Title
35789
    1GLY      N    1   5.731   4.143   3.341  0.3124  0.4598  0.2433
    1GLY    HT1    2   5.685   4.126   3.249 -1.0855  2.7628  0.4948
    1GLY    HT2    3   5.835   4.133   3.332  0.0568 -1.5154 -0.9367
    1GLY    HT3    4   5.716   4.242   3.369 -0.4410  0.9057 -1.6721
    1GLY     CA    5   5.664   4.058   3.447 -0.4355  0.1678  0.3156
    1GLY    HA1    6   5.681   4.108   3.541 -0.1263  1.7856 -0.5700
    1GLY    HA2    7   5.704   3.958   3.440 -0.3373  0.2683 -0.7419
    1GLY      C    8   5.518   4.038   3.425 -0.2213  0.0691  0.0658
    1GLY      O    9   5.461   4.065   3.317  0.8096 -0.1008  0.4761
    2SER      N   10   5.449   3.974   3.522 -0.6651 -0.1694 -0.1759
    2SER     HN   11   5.492   3.936   3.603 -1.7295 -1.6620 -0.2829
    2SER     CA   12   5.302   3.944   3.516 -0.1854  0.9520 -0.2060
    2SER     HA   13   5.281   3.895   3.422 -1.5547 -0.0754  0.6238
    2SER     CB   14   5.265   3.836   3.617  0.8983  0.2972  0.1366
    2SER    HB1   15   5.165   3.795   3.591  0.5794  0.2643  1.3511
    2SER    HB2   16   5.255   3.875   3.721 -0.3886 -1.2313  0.5989
    2SER     OG   17   5.358   3.725   3.609  0.0877 -0.8237  0.0866
    2SER    HG1   18   5.439   3.757   3.650 -0.3160  0.5172 -0.1546
    2SER      C   19   5.209   4.061   3.532  0.2868  0.4284 -0.4061
    2SER      O   20   5.243   4.159   3.601  0.0595  0.0651 -0.2414
    3GLY      N   21   5.085   4.058   3.464  0.2097  0.0415 -0.2308
    3GLY     HN   22   5.063   3.986   3.399  0.7333  1.5890 -2.1755
    3GLY     CA   23   4.988   4.158   3.487  0.2521  0.1802 -0.0103
    3GLY    HA1   24   4.906   4.121   3.427 -0.2712  1.4480 -0.0855
    3GLY    HA2   25   5.018   4.258   3.461 -0.3728  0.9635  2.1661
    3GLY      C   26   4.937   4.164   3.626  0.6040  0.6871  0.3347
    3GLY      O   27   4.949   4.068   3.701 -0.2502  0.2884 -0.2443
    4ASP      N   28   4.877   4.278   3.666 -0.4366  0.4370 -1.1410
    4ASP     HN   29   4.864   4.362   3.614  1.5404  3.4957  3.0379
    4ASP     CA   30   4.811   4.279   3.798 -0.4236  0.4074 -0.1109
    4ASP     HA   31   4.880   4.254   3.877 -3.3651 -1.2386  2.0051
    4ASP     CB   32   4.753   4.416   3.844 -0.2372  0.1351 -1.1715
    4ASP    HB1   33   4.698   4.407   3.940  0.9283 -0.6713 -0.5615
    4ASP    HB2   34   4.681   4.465   3.776  0.0015 -0.3061 -1.7459
    4ASP     CG   35   4.871   4.510   3.865 -0.7177  0.5787  0.3035
    4ASP    OD1   36   4.960   4.476   3.944 -0.0590  0.0729  0.1018
    4ASP    OD2   37   4.875   4.617   3.801  0.2334 -0.6397 -0.9390
    4ASP      C   38   4.693   4.182   3.795 -0.2399 -0.0797 -0.3923
    4ASP      O   39   4.629   4.188   3.694 -0.0696  0.3590  0.2986
    5PRO      N   40   4.659   4.093   3.886 -0.6561 -0.2470 -0.3535
    5PRO     CD   41   4.741   4.079   4.013  0.3421 -0.4884  0.8121
    5PRO    HD1   42   4.741   4.166   4.082  0.4367 -0.4815  0.8027
    5PRO    HD2   43   4.845   4.060   3.979 -0.3628 -1.7577 -0.6878
    5PRO     CA   44   4.536   4.017   3.890 -0.6255 -1.0834  0.2013
    5PRO     HA   45   4.551   3.943   3.812 -1.7851 -1.9036  0.7436
    5PRO     CB   46   4.528   3.966   4.033 -0.1640 -0.5389  0.1228
    5PRO    HB1   47   4.481   3.865   4.039  0.2450 -0.6726  1.3514
    5PRO    HB2   48   4.473   4.035   4.100  0.9409  1.0287 -0.5621
    5PRO     CG   49   4.673   3.953   4.071 -1.0668  0.1415 -0.5234
    5PRO    HG1   50   4.695   3.950   4.180 -0.8931  1.7664 -0.5006
    5PRO    HG2   51   4.709   3.861   4.020 -3.0060 -0.5257 -0.7102
    5PRO      C   52   4.406   4.078   3.845 -0.3181  0.2984  0.0026
    5PRO      O   53   4.369   4.176   3.903  0.7685  0.1513 -0.8327
    6GLY      N   54   4.341   4.017   3.741 -0.0867  0.2677  0.2095
    6GLY     HN   55   4.389   3.956   3.679  0.9870  0.8940  0.4230
    6GLY     CA   56   4.202   4.054   3.708  0.3018 -0.1134  0.4316
    6GLY    HA1   57   4.154   3.982   3.644 -0.0864 -0.3859  1.0244
    6GLY    HA2   58   4.201   4.158   3.676 -0.3365 -0.5441 -0.9726
    6GLY      C   59   4.097   4.032   3.818 -0.0303 -0.1223  0.3433
    6GLY      O   60   4.122   3.962   3.921 -0.4005  0.0184 -0.3891
    7ASN      N   61   3.981   4.090   3.791 -0.0224  0.4668  0.0453
    7ASN     HN   62   3.966   4.128   3.700 -1.8026 -0.2072  0.0326
    7ASN     CA   63   3.878   4.106   3.890 -0.1049 -0.3920  0.9024
    7ASN     HA   64   3.921   4.142   3.982  0.8617 -0.6074  0.5335
    7ASN     CB   65   3.765   4.201   3.841 -0.5946 -0.2747  0.1673
    7ASN    HB1   66   3.683   4.210   3.916  1.1526 -1.8932  2.3372
    7ASN    HB2   67   3.714   4.162   3.750 -3.0135  1.7734  0.5926
    7ASN     CG   68   3.819   4.343   3.804  0.0429  0.1299  0.6489
    7ASN    OD1   69   3.929   4.388   3.828  0.0643 -0.3900  0.5100
    7ASN    ND2   70   3.722   4.428   3.761  0.2630  0.0987 -0.4734
    7ASN   HD21   71   3.749   4.517   3.724  2.0310 -0.8609 -1.5582
    7ASN   HD22   72   3.633   4.390   3.736 -0.2441  0.7716  0.3111
    7ASN      C   73   3.819   3.973   3.940 -0.4239 -0.5163  0.0400
    7ASN      O   74   3.819   3.873   3.869 -0.3717  0.1651  0.2024
    8GLY      N   75   3.780   3.970   4.069  0.0126 -0.6030  0.2744
    8GLY     HN   76   3.800   4.049   4.126 -1.7833  2.1792 -2.8331
    8GLY     CA   77   3.710   3.849   4.120  0.4196  0.6734  0.4430
    8GLY    HA1   78   3.689   3.849   4.226 -1.4914 -1.0082  0.1017
    8GLY    HA2   79   3.770   3.762   4.101 -0.8455  0.4969 -2.9891
    8GLY      C   80   3.580   3.828   4.047  0.1436  0.2674 -0.4538
    8GLY      O   81   3.533   3.914   3.972  0.9049  0.0608 -0.5107
    9ASP      N   82   3.513   3.709   4.070  0.2208  0.2508 -0.2979
    9ASP     HN   83   3.554   3.647   4.136  1.6741 -0.5035 -1.8468
    9ASP     CA   84   3.386   3.670   4.020 -0.5566 -0.2264  0.4809
    9ASP     HA   85   3.390   3.691   3.914 -1.0885 -0.0269  0.4984
    9ASP     CB   86   3.358   3.513   4.034  0.7649 -0.7104  0.6828
    9ASP    HB1   87   3.257   3.491   3.994  0.4239  1.4326  0.3458
    9ASP    HB2   88   3.346   3.492   4.142 -0.1057 -0.9659  0.5374
    9ASP     CG   89   3.458   3.417   3.978  0.2607 -0.5125  0.1590
    9ASP    OD1   90   3.508   3.452   3.869 -0.3139  0.5132  0.5666
    9ASP    OD2   91   3.485   3.310   4.039  0.1741 -0.3469  0.6862
    9ASP      C   92   3.279   3.759   4.089 -0.7021 -0.2983 -0.5919
    9ASP      O   93   3.288   3.775   4.210 -0.3677 -0.0432 -0.8020
   10PRO      N   94   3.186   3.816   4.022 -0.1219 -0.4773 -1.1119
   10PRO     CD   95   3.178   3.827   3.872  0.0142 -0.4846  0.0568
   10PRO    HD1   96   3.144   3.733   3.824  0.5836 -0.3208 -0.6702
   10PRO    HD2   97   3.274   3.861   3.829 -0.6545  1.0046 -0.3018
   10PRO     CA   98   3.071   3.884   4.089 -0.7794 -0.4439 -0.1406
   10PRO     HA   99   3.104   3.970   4.145  0.4922  0.5549 -2.3932
   10PRO     CB  100   2.979   3.924   3.974  0.0027  0.4167 -1.1118
   10PRO    HB1  101   2.919   4.013   4.004 -0.4942 -0.5530  0.8462
   10PRO    HB2  102   2.913   3.837   3.954  1.1258 -0.1053 -2.5596
   10PRO     CG  103   3.075   3.936   3.856 -0.3657  0.2588 -0.0814
   10PRO    HG1  104   3.007   3.937   3.769  0.4737 -0.7332 -0.7648
   10PRO    HG2  105   3.117   4.039   3.861  0.6692 -0.0783 -1.4554
   10PRO      C  106   3.001   3.809   4.203 -0.1593 -0.0335 -0.4569
   10PRO      O  107   2.967   3.696   4.182  0.4288  0.1526  0.1205
   11GLY      N  108   2.987   3.868   4.321  0.3218 -0.5083 -1.0203
   11GLY     HN  109   3.013   3.964   4.314  2.7310 -1.1256 -1.0569
   11GLY     CA  110   2.912   3.802   4.434 -0.5972  0.0345 -0.0046
   11GLY    HA1  111   2.888   3.882   4.502 -0.9898  0.3672 -0.5307
   11GLY    HA2  112   2.981   3.724   4.464 -0.6793  0.8104  2.3192
   11GLY      C  113   2.773   3.751   4.394  0.3606  0.0083  0.4184
   11GLY      O  114   2.721   3.791   4.289  0.0472 -0.0414  0.2688
   12SER      N  115   2.720   3.655   4.482 -0.2337  0.2710 -0.7274
   12SER     HN  116   2.767   3.617   4.561 -0.8768 -0.6267 -0.7666
   12SER     CA  117   2.586   3.607   4.459  0.0303 -0.6959  0.4643
   12SER     HA  118   2.585   3.595   4.352 -3.3355  0.7286  0.2616
   12SER     CB  119   2.546   3.473   4.538 -0.5969  0.3543 -0.0961
   12SER    HB1  120   2.529   3.504   4.644 -0.9760 -2.7777  0.8168
   12SER    HB2  121   2.637   3.410   4.535  0.7897  2.2481  0.6849
   12SER     OG  122   2.430   3.404   4.484 -0.1719 -0.0237  0.2031
   12SER    HG1  123   2.443   3.374   4.393 -0.5059  0.8322 -0.1279
   12SER      C  124   2.479   3.718   4.478  0.2602 -0.3606  0.6821
   12SER      O  125   2.496   3.804   4.565 -0.4128 -0.1047 -0.3366
   13GLY      N  126   2.371   3.717   4.400 -0.0179  0.0064  0.0977
   13GLY     HN  127   2.356   3.636   4.344  3.2482 -1.1669  0.8426
   13GLY     CA  128   2.271   3.823   4.389  0.3747 -0.3297 -0.9794
   13GLY    HA1  129   2.224   3.816   4.292  0.5403  0.4448 -1.1171
   13GLY    HA2  130   2.316   3.920   4.405  3.4048 -2.2249  2.7458
   13GLY      C  131   2.150   3.824   4.484 -0.3008 -0.2556  0.4437
   13GLY    OT1  132   2.119   3.726   4.558  0.6144  0.6793  0.4863
   13GLY    OT2  133   2.094   3.935   4.510  0.1842 -0.7375 -0.0980
   14LIT    LIT  134   1.337   3.922   0.505 -1.1165 -0.0945  0.3913
   15LIT    LIT  135   0.112   4.745   5.919 -0.3864  0.2972  1.1503
   16LIT    LIT  136   7.647   7.015   1.868 -0.5232  1.6003 -0.4324
   17LIT    LIT  137   4.958   6.841   2.875 -0.4249  0.4105 -0.1455
   18LIT    LIT  138   6.729   5.208   1.861  1.0843 -0.5591  0.2403
   19LIT    LIT  139   6.674   4.570   2.305 -0.0868 -0.2893  0.0799
   20LIT    LIT  140   7.800   0.795   4.614  0.8003 -0.1985 -0.1466
   21LIT    LIT  141   2.687   4.293   2.128 -1.3111  0.5356 -0.2072
   22LIT    LIT  142   5.134   6.781   0.446  0.5350 -0.7617  0.2814
   23LIT    LIT  143   7.080   1.682   4.400 -0.0904  1.0561 -0.1964
   24LIT    LIT  144   1.221   5.214   5.518 -0.1213  0.7286 -0.4431
   25LIT    LIT  145   5.792   5.822   5.081  0.3576 -0.3373  0.3593
   26LIT    LIT  146   4.090   3.264   4.770  0.5512 -0.0857  0.4041
   27LIT    LIT  147   2.782   1.225   6.045  0.3463  1.1837 -0.4537
   28LIT    LIT  148   3.002   4.632   5.193 -0.2112  0.1645  0.7409
   29LIT    LIT  149   6.816   7.317   5.757  0.7210 -1.1294 -1.0622
   30LIT    LIT  150   3.934   5.036   0.556  0.4065 -0.3347  1.4597
   31LIT    LIT  151   0.326   4.604   3.870  1.2434  0.0369 -0.1458
   32LIT    LIT  152   3.238   1.666   2.865 -0.2996 -0.2998  0.9790
   33LIT    LIT  153   6.505   5.248   4.958  0.5355 -0.5600 -1.0689
   34LIT    LIT  154   1.708   5.263   3.718 -0.2389  1.0094 -0.3775
   35LIT    LIT  155   6.600   2.882   1.111 -0.2629 -1.0180 -1.9049
   36LIT    LIT  156   1.027   7.381   0.275  0.0263 -0.2575  0.0710
   37LIT    LIT  157   6.454   4.085   3.433 -0.3776  0.0658  0.8336
   38LIT    LIT  158   4.095   3.583   2.916 -0.6978 -0.0802  0.1925
   39LIT    LIT  159   0.322   5.578   5.651  0.4100  0.2634  0.4370
   40LIT    LIT  160   3.332   5.194   2.666 -0.1296  0.7389  0.2073
   41LIT    LIT  161   4.502   7.197   5.161 -0.1341  0.1259 -0.0826
   42LIT    LIT  162   5.109   1.035   3.329 -0.4563 -0.3308  0.5716
   43LIT    LIT  163   4.081   7.009   2.366  1.3146  0.4172 -0.5479
   44LIT    LIT  164   5.901   6.816   0.226 -0.3560  0.0344 -0.1928
   45LIT    LIT  165   1.020   3.489   1.478  0.5505  0.1113  1.1329
   46LIT    LIT  166   4.304   1.065   0.294 -1.3772 -0.8271  0.2760
   47LIT    LIT  167   0.024   3.031   3.140 -1.1808 -0.1698  0.4734
   48LIT    LIT  168   2.043   0.550   4.877  0.2678 -0.7626 -0.4554
   49LIT    LIT  169   3.775   1.450   1.568 -0.3696 -0.1914 -0.0555
   50CLA    CLA  170   4.949   2.438   1.781 -0.4207  0.4879 -0.2905
   51CLA    CLA  171   2.676   5.597   1.227  0.5051  0.1276 -0.1558
   52CLA    CLA  172   0.130   6.355   6.338 -0.5995 -0.2362  0.1466
   53CLA    CLA  173   0.538   5.633   2.474 -0.1567 -0.2347 -0.4188
   54CLA    CLA  174   2.161   4.056   1.682  0.2417 -0.4594 -0.1735
   55CLA    CLA  175   1.034   5.778   5.490  0.5736 -0.2201 -0.1594
   56CLA    CLA  176   1.278   1.417   4.767 -0.1875 -0.0495 -0.1453
   57CLA    CLA  177   2.553   1.949   3.129  0.1581 -0.1912 -0.3018
   58CLA    CLA  178   6.552   4.582   1.666  0.2678 -0.4385 -0.1539
   59CLA    CLA  179   5.248   7.051   5.244  0.2614  0.0866 -0.1566
   60CLA    CLA  180   5.994   1.319   4.983 -0.1726  0.2010 -0.6104
   61CLA    CLA  181   3.291   2.801   1.715 -0.0397  0.4302  0.0444
   62CLA    CLA  182   4.414   3.023   2.513  0.0037 -0.1568 -0.0628
   63CLA    CLA  183   3.693   3.159   6.317  0.2372  0.2543 -0.1423
   64CLA    CLA  184   6.392   3.961   3.633 -0.5692  0.2475  0.1050
   65CLA    CLA  185   1.890   5.855   3.532  0.4992 -0.3918  0.4330
   66CLA    CLA  186   0.045   4.158   5.875  0.4731  0.0299 -0.1862
   67CLA    CLA  187   7.668   5.435   0.516 -0.4436  0.1099  0.0109
   68CLA    CLA  188   6.189   7.123   4.060 -0.0518 -0.1401 -0.0703
   69CLA    CLA  189   4.336   7.445   5.781 -0.3158 -0.0230 -0.5462
   70CLA    CLA  190   7.036   1.368   3.161  0.2276 -0.0892 -0.3052
   71CLA    CLA  191   4.867   1.413   4.848  0.2765  0.1027 -0.0342
   72CLA    CLA  192   4.742   0.452   3.208  0.1567  0.1794  0.0679
   73CLA    CLA  193   2.814   3.540   5.422  0.1326 -0.1610 -0.0745
   74CLA    CLA  194   1.019   3.562   1.263  0.3331  0.3367 -0.2244
   75CLA    CLA  195   4.140   2.377   4.105  0.4872 -0.0266  0.0275
   76CLA    CLA  196   4.197   0.643   0.097  0.0672 -0.2928  0.2028
   77CLA    CLA  197   1.417   7.234   4.728 -0.3676 -0.0575  0.1636
   78CLA    CLA  198   0.074   6.055   5.670  0.0569  0.1985  0.1244
   79CLA    CLA  199   6.568   7.118   2.231 -0.0264  0.0251 -0.0912
   80CLA    CLA  200   2.538   7.098   0.193 -0.1661  0.4859  0.2469
   81CLA    CLA  201   0.502   0.485   0.348 -0.0487 -0.4234 -0.2278
   82CLA    CLA  202   5.834   5.788   5.299 -0.1058 -0.7272  0.3509
   83CLA    CLA  203   2.824   3.351   1.789 -0.0812  0.1525  0.1896
   84TIP3   OH2  204   2.433   0.799   2.228  0.2056 -0.0067 -0.1913
   84TIP3    H1  205   2.410   0.858   2.157  2.2510  0.5348 -0.4423
   84TIP3    H2  206   2.511   0.839   2.268  0.3971 -1.4538  0.9347
   85TIP3   OH2  207   7.492   6.356   3.066 -0.1319 -0.4540 -0.5937
   85TIP3    H1  208   7.586   6.349   3.051  0.2803  0.3878  1.4276
   85TIP3    H2  209   7.454   6.362   2.978  1.7484 -0.1626 -1.4119
   86TIP3   OH2  210   2.637   0.222   2.629  0.0357  0.3957 -0.8741
   86TIP3    H1  211   2.651   0.310   2.594  1.0081  1.8854  2.9426
   86TIP3    H2  212   2.574   0.235   2.700  0.2619 -1.9779 -0.1958
   87TIP3   OH2  213   1.516   1.472   2.377  0.0987 -0.2058  0.3197
   87TIP3    H1  214   1.599   1.468   2.330  0.6060 -0.1835  1.2005
   87TIP3    H2  215   1.540   1.495   2.467 -0.8843  0.1123  0.5123
   88TIP3   OH2  216   2.811   0.635   1.551 -0.1780 -0.0426  0.1847
   88TIP3    H1  217   2.903   0.608   1.553 -0.0111  0.5110  0.0178
   88TIP3    H2  218   2.766   0.564   1.506  0.0858 -0.5588  0.7221
   89TIP3   OH2  219   6.960   6.593   1.183  0.0971 -0.3320  0.0930
   89TIP3    H1  220   6.990   6.577   1.094 -0.3684 -0.3725 -0.0612
   89TIP3    H2  221   7.039   6.611   1.233  0.4579 -1.3767 -0.0988
   90TIP3   OH2  222   5.684   5.020   1.609  0.6062  0.0928  0.1346
   90TIP3    H1  223   5.775   4.996   1.629  0.0374 -1.3607  1.1039
   90TIP3    H2  224   5.640   5.017   1.693 -0.7369 -1.0702 -0.5830
   91TIP3   OH2  225   6.956   6.952   1.039 -0.0988  0.5567 -0.3492
   91TIP3    H1  226   7.039   6.908   1.021  0.5723  0.5748  2.5284
   91TIP3    H2  227   6.897   6.882   1.065  0.6700  1.1242  3.1790
   92TIP3   OH2  228   0.174   6.080   3.391 -0.2652  0.5290 -0.0732
   92TIP3    H1  229   0.218   6.165   3.397  0.7465 -0.1274  2.1438
   92TIP3    H2  230   0.090   6.094   3.433 -1.1505  1.0694 -1.9512
   93TIP3   OH2  231   6.289   7.386   1.290 -0.1501  0.5129  0.0477
   93TIP3    H1  232   6.254   7.475   1.280  1.1929  0.8124 -2.3428
   93TIP3    H2  233   6.219   7.330   1.257  0.2257  0.8777 -1.3714
   94TIP3   OH2  234   2.247   0.828   2.665  0.2389 -0.4582  0.0394
   94TIP3    H1  235   2.265   0.892   2.596  0.3868  0.2545  0.7281
   94TIP3    H2  236   2.156   0.802   2.650  0.5058 -0.8601 -0.8708
   95TIP3   OH2  237   7.363   6.020   2.651 -0.3378  0.2288 -0.1083
   95TIP3    H1  238   7.455   6.000   2.634 -0.4621 -1.9922  1.5975
   95TIP3    H2  239   7.353   6.112   2.627  1.8827  0.0128 -2.0016
   96TIP3   OH2  240   1.739   7.299   1.513 -0.2745 -0.1880  0.4166
   96TIP3    H1  241   1.766   7.284   1.604 -0.3806  0.8940  0.6321
   96TIP3    H2  242   1.732   7.394   1.506 -2.1323 -0.3532 -0.1934
   97TIP3   OH2  243   3.292   0.511   3.746 -0.1014  0.3246  0.6842
   97TIP3    H1  244   3.307   0.572   3.818 -1.2376  0.8940  0.4488
   97TIP3    H2  245   3.214   0.462   3.772  1.0671 -1.3488  1.0804
   98TIP3   OH2  246   3.563   0.475   2.022 -0.7465  0.5813  0.6084
   98TIP3    H1  247   3.650   0.478   2.064 -0.7223 -0.0882  0.6004
   98TIP3    H2  248   3.536   0.567   2.019 -1.2600  0.5768  3.1947
   99TIP3   OH2  249   4.934   0.500   1.484 -0.6580  0.3170 -0.0607
   99TIP3    H1  250   4.850   0.477   1.524 -0.8662 -1.1008 -1.2705
   99TIP3    H2  251   4.981   0.548   1.552 -0.9497 -2.1319  1.9349
  100TIP3   OH2  252   6.952   7.353   2.989 -0.3461 -0.0392 -0.4041
  100TIP3    H1  253   6.927   7.263   2.968 -0.2470 -0.1027 -0.2535
  100TIP3    H2  254   6.877   7.389   3.034 -0.1130 -0.2722  0.1713
  101TIP3   OH2  255   7.900   7.334   2.266 -0.1693 -0.0311  0.7184
  101TIP3    H1  256   7.814   7.310   2.233  0.1322 -1.0245  0.6298
  101TIP3    H2  257   7.941   7.251   2.290  0.3857  0.5199  1.6993
  102TIP3   OH2  258   7.453   6.865   1.419 -0.0261  0.4980 -0.3754
  102TIP3    H1  259   7.463   6.926   1.345 -0.3361  3.4347  1.8884
  102TIP3    H2  260   7.538   6.822   1.426  0.1963  0.6092 -2.0592
  103TIP3   OH2  261   2.677   0.813   3.896  0.0497 -0.0860 -0.2073
  103TIP3    H1  262   2.680   0.762   3.815 -1.3114 -0.8406  0.2049
  103TIP3    H2  263   2.744   0.880   3.884 -0.6438  0.2852 -2.2783
  104TIP3   OH2  264   7.353   5.281   3.107 -0.5572  0.3675  0.1833
  104TIP3    H1  265   7.285   5.216   3.089  0.5524 -0.3831 -1.3909
  104TIP3    H2  266   7.307   5.352   3.153 -2.5208  0.1378 -1.3687
  105TIP3   OH2  267   0.355   3.114   1.287  0.5971 -0.2637  0.1113
  105TIP3    H1  268   0.344   3.093   1.380  2.2575 -2.0071 -0.0521
  105TIP3    H2  269   0.274   3.083   1.246  0.0557  0.0782  0.8944
  106TIP3   OH2  270   1.981   1.142   2.256 -0.1662 -0.2032 -0.4530
  106TIP3    H1  271   1.998   1.073   2.320 -1.2993 -1.2683 -1.2759
  106TIP3    H2  272   1.900   1.183   2.286 -0.1092  0.0094 -0.5910
  107TIP3   OH2  273   0.151   0.631   2.276 -0.1500  0.4550 -0.4414
  107TIP3    H1  274   0.102   0.657   2.354 -2.4450 -1.1932 -1.2762
  107TIP3    H2  275   0.235   0.677   2.284 -1.0083  1.6871  2.0932
  108TIP3   OH2  276   1.012   5.214   1.716  0.4506 -0.1855 -0.4604
  108TIP3    H1  277   0.924   5.226   1.752  1.5286  0.5733  2.0011
  108TIP3    H2  278   1.033   5.122   1.735  0.4796 -0.1672 -0.4032
  109TIP3   OH2  279   4.603   0.005   2.976 -0.6864  0.1574 -0.0490
  109TIP3    H1  280   4.672  -0.001   3.042 -0.3643  0.7589 -0.3311
  109TIP3    H2  281   4.535   0.059   3.017 -1.3904 -1.1892  0.5744
  110TIP3   OH2  282   5.350   2.186   2.018 -0.3634  0.7012  0.2064
  110TIP3    H1  283   5.364   2.279   2.034 -0.6522  0.6816  0.5960
  110TIP3    H2  284   5.275   2.182   1.959  0.2496  0.7504 -0.5736
  111TIP3   OH2  285   5.164   2.143   0.826  0.0096  0.1969 -0.1081
  111TIP3    H1  286   5.097   2.156   0.894 -0.3781 -0.7007 -0.3053
  111TIP3    H2  287   5.213   2.225   0.825 -1.8216  1.3342 -0.7533
  112TIP3   OH2  288   5.296   0.504   1.272 -0.9242 -0.6716 -0.2305
  112TIP3    H1  289   5.253   0.487   1.188 -2.4967 -1.4285  0.7018
  112TIP3    H2  290   5.272   0.594   1.293 -2.2678 -1.1418  0.3667
  113TIP3   OH2  291   2.094   5.502   1.892 -0.0202 -0.0540 -0.2045
  113TIP3    H1  292   2.111   5.548   1.973 -0.7091  1.6670 -1.0181
  113TIP3    H2  293   2.005   5.468   1.902 -0.2211  0.4222 -0.3553
  114TIP3   OH2  294   1.419   6.007   0.118 -0.5787  0.0690  0.4896
  114TIP3    H1  295   1.515   6.006   0.110 -0.8086 -0.8354 -2.6185
  114TIP3    H2  296   1.401   6.084   0.172  1.8279  1.1580 -0.1811
  115TIP3   OH2  297   3.415   6.463   2.932  0.0468 -0.1800 -0.2867
  115TIP3    H1  298   3.402   6.546   2.978 -1.2127  0.2471 -1.3916
  115TIP3    H2  299   3.435   6.487   2.842 -0.9818 -1.0869 -0.7702
  116TIP3   OH2  300   1.668   7.391   4.193 -0.1641  0.3359  0.1555
  116TIP3    H1  301   1.582   7.356   4.168  0.5308 -0.1676 -1.6182
  116TIP3    H2  302   1.687   7.350   4.277 -0.0279 -2.4860 -1.1829
  117TIP3   OH2  303   1.382   7.327   2.145 -0.4741 -0.1526  0.5410
  117TIP3    H1  304   1.322   7.366   2.208  0.4265 -1.0122  1.9597
  117TIP3    H2  305   1.464   7.315   2.194  0.3526 -0.4700 -0.8985
  118TIP3   OH2  306   5.369   0.125   0.384 -0.0083 -0.1019  0.7728
  118TIP3    H1  307   5.293   0.121   0.442 -0.4848  1.1018  0.2369
  118TIP3    H2  308   5.354   0.202   0.329  1.0268 -0.5359 -0.1388
  119TIP3   OH2  309   7.689   5.924   3.029 -0.0267 -0.2658  0.0758
  119TIP3    H1  310   7.661   5.833   3.038 -0.0710 -0.1944  0.6581
  119TIP3    H2  311   7.767   5.919   2.973 -0.0547 -0.6527  0.0644
  120TIP3   OH2  312   6.250   1.835   2.508  0.7032  0.0995  0.1396
  120TIP3    H1  313   6.250   1.916   2.456 -0.2283  1.0555  1.6067
  120TIP3    H2  314   6.242   1.765   2.442  0.3259  1.2523 -1.0742
  121TIP3   OH2  315   4.000   0.713   3.541 -0.4772 -0.0057 -0.1763
  121TIP3    H1  316   4.010   0.808   3.533  1.3541 -0.3606 -2.9232
  121TIP3    H2  317   4.069   0.687   3.602  0.8252  0.1441 -1.5582
  122TIP3   OH2  318   1.908   0.329   1.822  0.0150  0.1505 -0.5175
  122TIP3    H1  319   1.839   0.339   1.887 -0.7267 -0.0467 -1.2579
  122TIP3    H2  320   1.879   0.256   1.767 -0.2062  1.3725 -2.0756
  123TIP3   OH2  321   1.532   3.895   6.012  0.6331  0.0701 -0.1328
  123TIP3    H1  322   1.605   3.920   6.068  1.5800  0.3652 -1.4719
  123TIP3    H2  323   1.481   3.975   6.001 -0.8454 -0.5396  2.1881
  124TIP3   OH2  324   0.144   6.368   1.717 -0.3393 -0.3319  0.4712
  124TIP3    H1  325   0.144   6.356   1.812 -0.0942 -1.6447  0.3082
  124TIP3    H2  326   0.150   6.463   1.705  1.2675 -0.2520  1.7491
  125TIP3   OH2  327   4.439   0.283   0.707 -0.1150 -0.0233  0.5678
  125TIP3    H1  328   4.448   0.300   0.800  0.4698 -0.7339  0.6450
  125TIP3    H2  329   4.517   0.232   0.684  0.5407  1.4876 -0.6262
  126TIP3   OH2  330   1.117   0.033   2.739 -0.2418  0.5109  0.1573
  126TIP3    H1  331   1.118   0.051   2.645  2.4458 -1.1024 -0.1793
  126TIP3    H2  332   1.138   0.117   2.780  0.5142  0.7918 -0.7827
  127TIP3   OH2  333   4.630   2.286   2.270 -0.5220 -0.3399  0.6021
  127TIP3    H1  334   4.656   2.313   2.183 -2.5780 -0.2840 -0.0202
  127TIP3    H2  335   4.685   2.338   2.329  0.8486 -0.3554 -0.6386
  128TIP3   OH2  336   2.948   1.381   0.610  0.3824  0.3835  0.1177
  128TIP3    H1  337   2.986   1.421   0.688  0.7762 -0.8927  0.6050
  128TIP3    H2  338   2.999   1.301   0.597 -1.5793 -0.9277  0.2650
  129TIP3   OH2  339   4.925   1.904   0.915 -0.4133  0.0388 -0.3236
  129TIP3    H1  340   4.922   1.951   0.998  1.4181  0.9442 -0.7466
  129TIP3    H2  341   4.856   1.945   0.862 -0.7839  0.2672  0.3301
  130TIP3   OH2  342   1.849   6.834   2.912 -0.0171 -0.0391  0.6218
  130TIP3    H1  343   1.928   6.820   2.964 -0.9380 -3.3170  1.2658
  130TIP3    H2  344   1.880   6.831   2.821  0.3543 -3.5435  0.8066
  131TIP3   OH2  345   4.732   2.144   0.137  0.1919 -0.1707 -0.1490
  131TIP3    H1  346   4.795   2.098   0.082  0.4190 -0.6592  0.5068
  131TIP3    H2  347   4.752   2.114   0.226 -1.7839 -1.2695 -0.0603
  132TIP3   OH2  348   4.269   6.720   2.616 -0.4132  0.5129 -0.0151
  132TIP3    H1  349   4.321   6.643   2.638 -0.6272  0.4490  0.2697
  132TIP3    H2  350   4.179   6.688   2.610 -0.2981  0.4221 -1.5291
  133TIP3   OH2  351   3.540   0.742   2.001 -0.1439  0.1639 -0.4152
  133TIP3    H1  352   3.605   0.795   1.955  1.6721 -2.2217 -0.7526
  133TIP3    H2  353   3.456   0.774   1.970  0.9356  1.7409 -1.8196
  134TIP3   OH2  354   6.891   0.265   2.018  0.7540  0.3120  0.4983
  134TIP3    H1  355   6.812   0.240   1.970  1.1476  0.7842 -0.4221
  134TIP3    H2  356   6.862   0.329   2.082  0.4429  0.7889 -0.1059
  135TIP3   OH2  357   1.751   0.452   4.327  0.4117  0.7388 -0.5976
  135TIP3    H1  358   1.844   0.449   4.346  0.2007  2.4775  0.7730
  135TIP3    H2  359   1.743   0.506   4.249  0.7671 -1.6935 -2.3717
  136TIP3   OH2  360   1.687   4.998   1.650 -0.3670 -0.0403  0.1150
  136TIP3    H1  361   1.699   4.933   1.580  0.9277 -1.3526  1.4958
  136TIP3    H2  362   1.599   5.032   1.637 -1.2018 -2.3499 -0.4342
  137TIP3   OH2  363   6.540   1.631   3.134 -0.4427 -0.3052 -0.0414
  137TIP3    H1  364   6.586   1.576   3.198 -0.5413  0.5684  0.7839
  137TIP3    H2  365   6.455   1.649   3.174  0.0118  1.3817  0.1945
  138TIP3   OH2  366   4.780   0.414   3.542  0.1189 -0.1763  0.1650
  138TIP3    H1  367   4.783   0.384   3.451 -1.2248  0.9741 -0.2699
  138TIP3    H2  368   4.871   0.416   3.569  0.4786 -1.3338 -0.8881
  139TIP3   OH2  369   4.057   1.661   3.592  0.2182  0.2284 -0.4828
  139TIP3    H1  370   4.036   1.672   3.684  0.1819  2.4364 -0.7271
  139TIP3    H2  371   4.031   1.571   3.572  2.1174 -0.9539  2.1309
  140TIP3   OH2  372   5.677   2.022   0.060 -0.3153  0.4781  0.1555
  140TIP3    H1  373   5.734   1.993  -0.011  0.4197 -2.2369  1.7995
  140TIP3    H2  374   5.702   2.113   0.075  0.2895  0.7411 -2.2862
  141TIP3   OH2  375   4.497   2.680   4.111 -0.4376  0.0719  0.2799
  141TIP3    H1  376   4.475   2.710   4.199  4.4265  0.6253  1.4411
  141TIP3    H2  377   4.510   2.585   4.121 -1.4944 -0.1279 -0.2151
  142TIP3   OH2  378   3.306   0.292   1.359  0.2950 -0.5162  0.1275
  142TIP3    H1  379   3.288   0.199   1.342 -0.6546 -0.9917  3.2368
  142TIP3    H2  380   3.400   0.301   1.349  0.1680 -1.3788 -2.0498
  143TIP3   OH2  381   2.357   5.616   2.461  0.1315  0.0712 -0.4397
  143TIP3    H1  382   2.405   5.662   2.391  1.1880  0.8714  0.7649
  143TIP3    H2  383   2.426   5.581   2.518 -0.7060  0.7711  1.0397
  144TIP3   OH2  384   5.202   1.477   4.121 -0.0296  0.7228  0.0605
  144TIP3    H1  385   5.173   1.414   4.186  0.9498 -0.6462 -0.7993
  144TIP3    H2  386   5.245   1.424   4.053  0.9182  2.3099 -0.6221
  145TIP3   OH2  387   1.889   6.965   2.510  0.4135  0.5520 -0.4307
  145TIP3    H1  388   1.930   7.012   2.583  0.8099 -0.2818 -0.1065
  145TIP3    H2  389   1.837   6.896   2.551 -0.1644  0.7033 -0.9024
  146TIP3   OH2  390   2.008   0.533   0.177 -0.0470  0.3112 -0.0523
  146TIP3    H1  391   2.023   0.624   0.202 -0.1676  0.8189 -1.8042
  146TIP3    H2  392   1.926   0.510   0.221 -0.2181  1.1535  0.0829
  147TIP3   OH2  393   2.840   0.081   2.782  0.2003 -0.3039 -0.6506
  147TIP3    H1  394   2.778   0.125   2.723  0.9111 -0.7515 -1.7447
  147TIP3    H2  395   2.787   0.016   2.828 -0.1987 -0.5318 -1.4235
  148TIP3   OH2  396   1.441   6.334   1.418  0.1905  0.1408 -0.0090
  148TIP3    H1  397   1.415   6.252   1.375 -0.8358 -1.1597  2.9617
  148TIP3    H2  398   1.519   6.311   1.469  0.7794  1.3882 -0.3261
  149TIP3   OH2  399   0.365   2.912   5.872 -0.3087 -0.1335  0.3895
  149TIP3    H1  400   0.287   2.956   5.905 -1.1800 -1.4805  0.2031
  149TIP3    H2  401   0.378   2.949   5.785 -1.3509 -0.6179  0.0165
  150TIP3   OH2  402   0.895   6.919   2.246  0.4635  0.3771 -0.2715
  150TIP3    H1  403   0.916   6.844   2.191  2.8266 -0.2100  1.3538
  150TIP3    H2  404   0.867   6.881   2.329  1.3036  1.2508  0.4353
  151TIP3   OH2  405   1.169   6.473   2.169 -0.4356 -0.0786  0.6340
  151TIP3    H1  406   1.228   6.452   2.242 -1.2223  1.2404  1.6582
  151TIP3    H2  407   1.197   6.414   2.099  3.8256  2.2074  0.2035
  152TIP3   OH2  408   2.462   6.414   1.097  0.0482 -0.0996  1.0367
  152TIP3    H1  409   2.449   6.456   1.182  0.5126  2.4530 -0.1082
  152TIP3    H2  410   2.396   6.453   1.040  0.6884 -0.7189 -0.1502
  153TIP3   OH2  411   3.028   0.962   1.386  0.3924 -0.0686  0.5125
  153TIP3    H1  412   3.105   0.913   1.356  0.6765 -0.2095  1.4383
  153TIP3    H2  413   3.056   1.053   1.385  0.5480 -0.1112  0.7511
  154TIP3   OH2  414   2.716   0.691   1.970  0.5537  0.2780 -0.2405
  154TIP3    H1  415   2.769   0.770   1.957  1.4611 -0.0340  1.4994
  154TIP3    H2  416   2.664   0.684   1.889  1.5961  1.7756 -1.0665
  155TIP3   OH2  417   5.342   0.525   3.632  0.5085 -0.7015  0.4633
  155TIP3    H1  418   5.382   0.556   3.713 -1.1039  0.3640  0.8783
  155TIP3    H2  419   5.346   0.599   3.573 -0.0998 -0.8362  0.2438
  156TIP3   OH2  420   4.745   0.632   1.788  0.0697  0.2902  0.3047
  156TIP3    H1  421   4.663   0.677   1.767  0.6044  0.8048 -0.7061
  156TIP3    H2  422   4.793   0.694   1.843  0.4130  0.6000 -0.3338
  157TIP3   OH2  423   7.370   7.280   1.829  0.6240 -0.0361  0.1333
  157TIP3    H1  424   7.338   7.282   1.738  0.1585  0.3950  0.3054
  157TIP3    H2  425   7.436   7.350   1.833 -0.7127  1.2152  0.6231
  158TIP3   OH2  426   5.079   1.172   2.949 -0.6369 -0.0475 -0.6488
  158TIP3    H1  427   5.159   1.221   2.970  0.2448 -1.7013 -0.0606
  158TIP3    H2  428   5.094   1.140   2.860 -1.3066  0.9259 -1.1159
  159TIP3   OH2  429   1.727   7.408   1.178 -0.1542  0.3315 -0.2155
  159TIP3    H1  430   1.780   7.487   1.180 -0.6463  0.6538  1.6419
  159TIP3    H2  431   1.789   7.337   1.197 -0.1776  0.5970  0.9197
  160TIP3   OH2  432   4.068   0.583   1.263 -0.1586 -0.2190  0.4811
  160TIP3    H1  433   4.034   0.591   1.174 -0.1116  0.9452  0.5546
  160TIP3    H2  434   4.113   0.666   1.278 -0.6647 -0.1800  1.8030
  161TIP3   OH2  435   4.814   1.034   2.396 -0.4574  0.0918 -0.5538
  161TIP3    H1  436   4.820   1.104   2.461 -0.1985  1.0425 -1.5841
  161TIP3    H2  437   4.748   0.975   2.431 -1.9163  1.7259 -0.4612
  162TIP3   OH2  438   2.118   6.732   2.819 -0.5654 -0.2978 -0.3015
  162TIP3    H1  439   2.091   6.640   2.819  1.6306 -0.9807  0.5883
  162TIP3    H2  440   2.181   6.739   2.747  0.3564  0.1534  0.5320
  163TIP3   OH2  441   1.832   7.075   1.358  0.3286 -0.0043 -0.1263
  163TIP3    H1  442   1.809   7.149   1.415 -0.2327 -1.1756  1.2216
  163TIP3    H2  443   1.847   7.114   1.272  0.2634  1.7004  0.6125
  164TIP3   OH2  444   3.990   0.697   3.934 -0.3138 -0.4480 -0.1379
  164TIP3    H1  445   4.056   0.629   3.938  0.4825  0.3752  1.4679
  164TIP3    H2  446   3.933   0.680   4.009 -0.0575  0.6867  0.3275
  165TIP3   OH2  447   6.074   1.198   1.472 -0.4087  0.2636  0.2309
  165TIP3    H1  448   6.108   1.110   1.455 -1.1680 -0.0919  0.5412
  165TIP3    H2  449   6.051   1.231   1.386 -1.1098 -0.2463  0.2218
  166TIP3   OH2  450   0.878   0.396   1.918  0.4223  0.1878  0.2773
  166TIP3    H1  451   0.881   0.303   1.942 -0.1363  0.4452  1.3815
  166TIP3    H2  452   0.809   0.433   1.973 -0.1416  1.0282 -0.9675
  167TIP3   OH2  453   4.817   1.650   1.924  0.2603 -0.5546 -0.3342
  167TIP3    H1  454   4.896   1.598   1.938 -0.2474 -1.1396  0.3632
  167TIP3    H2  455   4.747   1.585   1.915 -0.1480 -0.0386 -0.9474
  168TIP3   OH2  456   1.698   7.178   2.079  0.1372  0.2104  0.0332
  168TIP3    H1  457   1.722   7.086   2.075 -0.8435 -0.0997  1.0910
  168TIP3    H2  458   1.769   7.224   2.034  0.1103 -1.1535 -1.4267
  169TIP3   OH2  459   0.762   6.988   3.019 -0.3984 -0.3546  0.3317
  169TIP3    H1  460   0.812   6.997   3.100  0.1622 -1.8151  0.1652
  169TIP3    H2  461   0.805   7.047   2.957 -1.9978  2.2391  1.5995
  170TIP3   OH2  462   5.360   2.123   1.351  0.0111 -0.0439 -0.8277
  170TIP3    H1  463   5.289   2.156   1.406 -2.7043 -2.6220 -2.6221
  170TIP3    H2  464   5.385   2.197   1.296 -0.1378  1.3418  0.9347
  171TIP3   OH2  465   6.027   0.436   1.461  0.2289  0.1304  0.7020
  171TIP3    H1  466   5.969   0.389   1.400  0.8735  0.7506 -0.4095
  171TIP3    H2  467   6.112   0.393   1.450  0.4855  0.6377  0.7222
  172TIP3   OH2  468   5.126   0.967   2.549 -0.2183 -0.3463 -0.7724
  172TIP3    H1  469   5.063   0.902   2.579 -0.5369  0.4253  0.2677
  172TIP3    H2  470   5.212   0.930   2.570 -0.4018 -0.3961 -0.1043
  173TIP3   OH2  471   5.590   1.068   1.822  0.0060  0.4469  0.0332
  173TIP3    H1  472   5.683   1.060   1.841  0.0945 -0.1646 -0.6414
  173TIP3    H2  473   5.548   1.003   1.879  0.0153  0.5374  0.1433
  174TIP3   OH2  474   0.352   5.493   4.968 -0.2559  0.9339  0.2282
  174TIP3    H1  475   0.404   5.561   5.012  1.5284  0.4365 -1.0644
  174TIP3    H2  476   0.293   5.460   5.036  2.5311  0.0732  2.2758
  175TIP3   OH2  477   4.423   0.649   0.312  0.4026  0.3424  0.0943
  175TIP3    H1  478   4.353   0.675   0.251 -0.5209  1.0342  1.4083
  175TIP3    H2  479   4.449   0.562   0.284 -1.1630 -0.0155 -0.2732
  176TIP3   OH2  480   3.343   0.479   4.065  0.1247  0.7063  0.2949
  176TIP3    H1  481   3.438   0.470   4.076 -0.0035  0.2034  1.0325
  176TIP3    H2  482   3.331   0.570   4.037  0.7962  0.8869  0.5707
  177TIP3   OH2  483   2.306   0.767   0.896  0.4335  0.5974 -0.1476
  177TIP3    H1  484   2.292   0.713   0.974 -2.3150  1.2860 -0.0994
  177TIP3    H2  485   2.366   0.836   0.924 -0.3814  0.7257  1.3384
  178TIP3   OH2  486   5.055   1.915   2.550  0.0292  0.0603 -0.2496
  178TIP3    H1  487   5.047   2.011   2.549  1.1965  0.1780  0.3659
  178TIP3    H2  488   4.984   1.886   2.607 -0.5387  0.5422 -0.7092
  179TIP3   OH2  489   5.210   2.801   1.832 -0.1144 -0.5400 -0.1040
  179TIP3    H1  490   5.267   2.724   1.834 -1.2702 -1.4132 -0.4464
  179TIP3    H2  491   5.153   2.786   1.756 -1.4364 -0.1262  0.8029
  180TIP3   OH2  492   5.254   0.799   1.297 -0.1153 -0.2784 -0.2907
  180TIP3    H1  493   5.260   0.841   1.211  1.3212  0.3721  0.1184
  180TIP3    H2  494   5.161   0.801   1.318 -0.3661  0.3770 -1.4282
  181TIP3   OH2  495   5.113   0.577   2.107  0.2252  0.2783  0.3740
  181TIP3    H1  496   5.055   0.505   2.084  0.2848  0.3310  0.0563
  181TIP3    H2  497   5.086   0.649   2.050  0.2403  0.4711  0.6080
  182TIP3   OH2  498   2.341   6.968   2.230  0.1185  0.2518  0.3468
  182TIP3    H1  499   2.257   6.937   2.196  1.4872 -1.2850 -1.7135
  182TIP3    H2  500   2.318   7.044   2.284 -2.5318  0.1428 -0.5581
  183TIP3   OH2  501   5.186   1.282   3.935  0.2959  0.3055 -0.1690
  183TIP3    H1  502   5.220   1.193   3.949 -0.1994  0.2893  0.9930
  183TIP3    H2  503   5.153   1.281   3.845 -0.0343 -0.8060 -0.0479
  184TIP3   OH2  504   4.433   0.870   2.770 -0.3243  0.1385 -0.5178
  184TIP3    H1  505   4.395   0.791   2.810  0.8637 -0.0449  0.2813
  184TIP3    H2  506   4.459   0.924   2.845  1.3823  0.0599 -1.0501
  185TIP3   OH2  507   0.616   7.096   1.569 -0.3167  0.3286  0.2660
  185TIP3    H1  508   0.619   7.130   1.658 -0.6203 -0.8207  0.7187
  185TIP3    H2  509   0.597   7.003   1.579  1.1871 -0.1300 -0.9287
  186TIP3   OH2  510   2.804   1.012   4.545 -0.0350  0.5587  0.7117
  186TIP3    H1  511   2.871   0.983   4.606  1.6370  3.2889  0.2586
  186TIP3    H2  512   2.779   1.099   4.575  0.1580  1.5781 -1.9096
  187TIP3   OH2  513   3.849   6.491   0.796 -0.6801  0.2146  0.3750
  187TIP3    H1  514   3.923   6.440   0.762 -2.3364 -1.8535 -0.2563
  187TIP3    H2  515   3.785   6.425   0.821 -1.2339  1.8923  3.5517
  188TIP3   OH2  516   6.825   0.862   1.132 -0.2539  0.0643  0.1214
  188TIP3    H1  517   6.849   0.953   1.150  0.5760 -0.5583  2.3194
  188TIP3    H2  518   6.734   0.856   1.160  0.5411 -0.4782  2.6759
  189TIP3   OH2  519   1.573   3.483   6.393  0.3585  0.2131 -0.4501
  189TIP3    H1  520   1.506   3.550   6.393 -0.2265 -0.3648 -1.3398
  189TIP3    H2  521   1.548   3.424   6.322  1.9567  0.1484 -0.9767
  190TIP3   OH2  522   3.548   0.538   1.547  0.5956 -0.5139 -0.3658
  190TIP3    H1  523   3.559   0.484   1.469  0.2811 -0.3010 -0.5582
  190TIP3    H2  524   3.467   0.586   1.532  0.9715  0.1552 -0.2816
  191TIP3   OH2  525   7.103   1.245   0.982 -0.1409 -0.1346  0.3509
  191TIP3    H1  526   7.179   1.247   1.039 -1.0162 -0.3613  1.5525
  191TIP3    H2  527   7.071   1.335   0.982  0.5448  0.1142 -0.7368
  192TIP3   OH2  528   5.476   1.997   1.701  0.2186 -0.2898  0.1939
  192TIP3    H1  529   5.423   2.071   1.670  2.0168  0.5748 -0.9302
  192TIP3    H2  530   5.456   1.926   1.640  1.2694  0.4233 -1.0183
  193TIP3   OH2  531   3.719   0.907   1.884 -0.3168 -0.4743  0.7165
  193TIP3    H1  532   3.803   0.883   1.925 -0.7439 -0.8821  1.3724
  193TIP3    H2  533   3.713   1.002   1.897  0.2643 -0.3684  0.2409
  194TIP3   OH2  534   5.175   6.510   1.589 -0.6184  0.6550 -0.2232
  194TIP3    H1  535   5.143   6.595   1.621 -1.8961 -0.1159  0.5658
  194TIP3    H2  536   5.257   6.497   1.636 -0.2207  1.6311 -0.6308
  195TIP3   OH2  537   6.286   0.819   3.485  0.2766  0.6227  0.1137
  195TIP3    H1  538   6.213   0.765   3.515  1.1188 -0.4890  0.2012
  195TIP3    H2  539   6.361   0.789   3.538  1.1635  0.5631 -1.1534
  196TIP3   OH2  540   2.331   7.300   2.080  0.1679  0.0252 -0.1213
  196TIP3    H1  541   2.320   7.232   2.014  1.8478 -1.6315  1.2494
  196TIP3    H2  542   2.365   7.375   2.031  0.1105 -0.7434 -1.3522
  197TIP3   OH2  543   5.020   1.265   0.243  0.4154  0.3082  0.4671
  197TIP3    H1  544   4.966   1.318   0.300 -0.1761 -0.2657  0.4515
  197TIP3    H2  545   4.967   1.187   0.226  0.4574  0.6104 -1.1097
  198TIP3   OH2  546   0.833   2.473   6.317 -0.2894  0.1212 -0.4610
  198TIP3    H1  547   0.909   2.503   6.368  1.5023 -0.7733 -2.5335
  198TIP3    H2  548   0.839   2.377   6.319 -1.6242  0.0303 -0.2897
  199TIP3   OH2  549   7.282   3.702   2.114 -0.5066 -0.2743 -0.3813
  199TIP3    H1  550   7.269   3.607   2.107  1.1802 -0.4967 -0.8067
  199TIP3    H2  551   7.342   3.723   2.042  2.3498  0.4357  2.1319
  200TIP3   OH2  552   3.900   3.629   0.556  0.2879  0.0599  0.1817
  200TIP3    H1  553   3.896   3.720   0.584  0.1386  1.1039 -3.0494
  200TIP3    H2  554   3.992   3.614   0.535  0.3176 -0.5701  0.7341
  201TIP3   OH2  555   4.669   0.340   1.611  0.0692 -0.2595 -0.2994
  201TIP3    H1  556   4.636   0.371   1.695 -1.2217 -2.3591  0.0194
  201TIP3    H2  557   4.648   0.409   1.549 -1.7337 -0.0170  0.5585
  202TIP3   OH2  558   5.783   0.930   5.373 -0.2952  0.3489 -0.0893
  202TIP3    H1  559   5.696   0.893   5.360 -0.7309  1.7820 -1.4137
  202TIP3    H2  560   5.814   0.951   5.284  0.6795  1.4700  0.5034
  203TIP3   OH2  561   7.429   0.589   1.986 -0.4760 -0.2530  0.0420
  203TIP3    H1  562   7.461   0.623   2.070  0.7229 -1.0390 -0.0835
  203TIP3    H2  563   7.501   0.605   1.925 -1.5070  0.6853 -0.9292
  204TIP3   OH2  564   4.354   5.168   1.151 -0.0404 -0.2671  0.6031
  204TIP3    H1  565   4.300   5.173   1.229 -0.0168  0.7165  0.5704
  204TIP3    H2  566   4.334   5.248   1.103  1.5339  0.1848  0.6603
  205TIP3   OH2  567   7.230   0.678   0.527 -0.2922  0.2834 -0.4622
  205TIP3    H1  568   7.213   0.603   0.471 -0.5876  0.3390 -0.4471
  205TIP3    H2  569   7.306   0.721   0.488  0.8373 -0.8865  0.3879
  206TIP3   OH2  570   4.480   1.094   2.955  0.3231  0.3768  0.2272
  206TIP3    H1  571   4.485   1.178   2.908  0.5629 -0.0394 -0.5081
  206TIP3    H2  572   4.412   1.107   3.020 -1.0285  0.5113 -1.1893
  207TIP3   OH2  573   5.921   0.459   2.639  0.1990 -0.2103 -0.2083
  207TIP3    H1  574   5.868   0.379   2.638 -0.6120  0.2972  0.7635
  207TIP3    H2  575   5.926   0.484   2.732  0.9610  0.5240 -0.4363
  208TIP3   OH2  576   1.517   3.308   6.186  0.5328 -0.0665  0.1428
  208TIP3    H1  577   1.538   3.228   6.138 -0.6652  0.1628 -0.7877
  208TIP3    H2  578   1.467   3.361   6.124  0.2593  0.8804  1.1561
  209TIP3   OH2  579   7.887   6.607   2.754 -0.0240 -0.2993  0.5630
  209TIP3    H1  580   7.824   6.674   2.727  1.7077  1.1836  0.0569
  209TIP3    H2  581   7.911   6.562   2.673  3.1902  2.4104 -0.1384
  210TIP3   OH2  582   1.131   4.401   0.233  0.3140  0.2052  0.2023
  210TIP3    H1  583   1.212   4.447   0.216  0.8199 -0.5380  0.5445
  210TIP3    H2  584   1.062   4.457   0.198  1.1376 -0.2159 -2.1715
  211TIP3   OH2  585   1.068   2.621   0.222  0.0182  0.5017  0.3714
  211TIP3    H1  586   1.121   2.589   0.295 -1.3911 -1.5448  0.5278
  211TIP3    H2  587   1.016   2.691   0.260 -1.7485 -1.4953  1.7286
  212TIP3   OH2  588   1.748   3.950   0.273  0.4511  0.0001 -0.3085
  212TIP3    H1  589   1.742   3.973   0.181  2.3113 -1.8334 -0.9401
  212TIP3    H2  590   1.666   3.905   0.292 -0.3919  1.3293 -0.7826
  213TIP3   OH2  591   0.195   2.523   2.505  0.0405 -0.1705  0.0204
  213TIP3    H1  592   0.180   2.592   2.569  0.8419  0.2119 -0.1954
  213TIP3    H2  593   0.224   2.569   2.426 -0.7550 -0.6462 -0.5674
  214TIP3   OH2  594   7.701   3.305   1.370 -0.6535 -0.0965  0.1044
  214TIP3    H1  595   7.741   3.359   1.301 -1.2331  0.1541 -0.0379
  214TIP3    H2  596   7.716   3.215   1.341 -0.9467  0.0076 -0.3799
  215TIP3   OH2  597   1.510   3.087   2.589 -0.5815 -0.2068  0.3542
  215TIP3    H1  598   1.505   3.150   2.517  1.5011  1.3875  1.5620
  215TIP3    H2  599   1.470   3.132   2.663  0.3900 -0.5398  1.0809
  216TIP3   OH2  600   4.588   0.330   5.628 -0.0364  0.0956  0.1293
  216TIP3    H1  601   4.525   0.319   5.700  0.2380 -0.9582  0.2192
  216TIP3    H2  602   4.561   0.265   5.563  0.5747  0.0860 -0.1111
  217TIP3   OH2  603   1.246   2.383   3.455 -0.0140 -0.1718 -0.1389
  217TIP3    H1  604   1.334   2.402   3.423  0.0077 -0.4505 -0.2423
  217TIP3    H2  605   1.252   2.295   3.493 -0.1712 -0.0642  0.1377
  218TIP3   OH2  606   0.597   1.096   2.303 -0.8745  0.6063 -0.1076
  218TIP3    H1  607   0.586   1.082   2.209  4.0442 -3.6413 -0.2891
  218TIP3    H2  608   0.645   1.178   2.311  1.0347 -0.3469 -1.5379
  219TIP3   OH2  609   1.923   0.372   2.285  0.3119  0.2703 -0.1150
  219TIP3    H1  610   1.892   0.283   2.270  0.1229  0.3079  0.0504
  219TIP3    H2  611   1.975   0.366   2.365  1.1514  0.1089 -0.6650
  220TIP3   OH2  612   2.832   2.005   2.159  0.0248 -0.5201  0.2954
  220TIP3    H1  613   2.914   1.973   2.122 -1.3697 -2.1165 -1.5737
  220TIP3    H2  614   2.813   1.947   2.232  0.5943 -0.0998  0.7770
  221TIP3   OH2  615   0.659   2.878   0.353  0.4934  0.2157  0.5540
  221TIP3    H1  616   0.629   2.867   0.443 -1.4167  2.5611  0.2787
  221TIP3    H2  617   0.715   2.955   0.356  1.1737 -0.2510 -0.1007
  222TIP3   OH2  618   5.227   0.890   2.220 -0.2482 -0.6299  0.4360
  222TIP3    H1  619   5.136   0.918   2.221 -0.1652 -0.3585  0.1162
  222TIP3    H2  620   5.235   0.832   2.296 -0.1120  1.1574  1.8185
  223TIP3   OH2  621   2.246   0.515   2.809 -0.0067 -0.0690 -0.5611
  223TIP3    H1  622   2.155   0.492   2.792 -0.5197  0.3963  1.5018
  223TIP3    H2  623   2.250   0.609   2.796  1.0743 -0.5402 -4.4121
  224TIP3   OH2  624   0.557   6.828   1.640  0.4296  0.7903 -0.7853
  224TIP3    H1  625   0.610   6.812   1.717 -1.2410 -1.8497 -0.1029
  224TIP3    H2  626   0.597   6.774   1.571 -0.2902  0.1456 -0.7170
  225TIP3   OH2  627   1.861   2.197   1.774 -0.1310 -0.5870 -0.5391
  225TIP3    H1  628   1.933   2.257   1.757  0.9317 -1.8677 -0.6396
  225TIP3    H2  629   1.833   2.168   1.687  0.9683 -2.0846 -0.4171
  226TIP3   OH2  630   2.394   0.408   2.330 -0.2767 -0.4197 -0.4251
  226TIP3    H1  631   2.328   0.474   2.351 -0.5581 -0.4889 -1.0841
  226TIP3    H2  632   2.461   0.420   2.397  1.5074  3.0299 -2.6940
  227TIP3   OH2  633   3.966   1.353   2.707 -0.5712  0.2793  0.2104
  227TIP3    H1  634   3.954   1.332   2.614  0.2659 -0.4032  0.2495
  227TIP3    H2  635   4.050   1.399   2.709 -0.1566 -0.4949  0.7433
  228TIP3   OH2  636   1.579   1.770   2.777 -0.0213  0.5406 -0.0501
  228TIP3    H1  637   1.593   1.679   2.749  1.0612  1.2923 -2.0890
  228TIP3    H2  638   1.659   1.793   2.824 -0.7009  0.1481  1.3189
  229TIP3   OH2  639   3.866   1.149   1.997 -0.7367  0.5478  0.4384
  229TIP3    H1  640   3.836   1.105   2.077 -0.0117  2.6604  1.9085
  229TIP3    H2  641   3.836   1.239   2.006 -0.2240  0.9278 -1.4643
  230TIP3   OH2  642   2.969   6.852   5.559  0.5458  0.4919  0.1697
  230TIP3    H1  643   3.038   6.846   5.493 -0.0099 -0.6947 -0.3179
  230TIP3    H2  644   2.942   6.761   5.574 -0.6163  0.9111  0.6777
  231TIP3   OH2  645   3.997   6.112   5.023  0.0635 -0.5338 -0.0309
  231TIP3    H1  646   3.968   6.182   5.081 -1.1483 -1.6558  0.7633
  231TIP3    H2  647   3.984   6.146   4.934 -0.6710  0.1729  0.3458
  232TIP3   OH2  648   3.220   2.525   2.960 -0.2995  0.1612  0.3023
  232TIP3    H1  649   3.166   2.475   3.021 -2.2516  3.5378  1.4689
  232TIP3    H2  650   3.181   2.509   2.874 -1.0726 -0.0548  0.6920
  233TIP3   OH2  651   2.633   0.229   1.581 -0.2999  0.0269  0.1675
  233TIP3    H1  652   2.569   0.233   1.653  0.1286  1.7965  0.4933
  233TIP3    H2  653   2.714   0.199   1.623 -0.7733 -1.7188 -0.1460
  234TIP3   OH2  654   6.991   0.760   1.617 -0.1286 -0.2590 -0.3426
  234TIP3    H1  655   7.050   0.724   1.683  0.5841  0.6927 -0.4630
  234TIP3    H2  656   7.016   0.852   1.609 -1.7120  0.1932 -0.2897
  235TIP3   OH2  657   3.608   5.545   5.283 -0.0234  0.1149  0.1909
  235TIP3    H1  658   3.683   5.571   5.337 -0.3101 -0.2876  0.7824
  235TIP3    H2  659   3.576   5.464   5.323  0.0567 -0.4446 -0.8732
  236TIP3   OH2  660   6.191   7.184   0.848  0.3544  0.6655 -0.2082
  236TIP3    H1  661   6.264   7.155   0.903 -0.0438 -1.8656 -0.9297
  236TIP3    H2  662   6.231   7.243   0.784  1.8279 -0.8069 -0.6916
  237TIP3   OH2  663   2.789   5.490   5.876 -0.1404 -0.1911  0.1623
  237TIP3    H1  664   2.732   5.418   5.904  0.8353 -0.5064  1.3807
  237TIP3    H2  665   2.780   5.556   5.944 -2.2282  1.5563 -1.7126
  238TIP3   OH2  666   0.866   1.866   2.813 -0.0400  0.0013  0.2142
  238TIP3    H1  667   0.941   1.810   2.834 -0.7574 -0.6985  0.9011
  238TIP3    H2  668   0.868   1.872   2.717  0.6954 -0.2952  0.2040
  239TIP3   OH2  669   4.097   0.885   1.609  0.0367 -0.0064  0.0935
  239TIP3    H1  670   4.030   0.948   1.636 -0.3439 -0.7611  0.9438
  239TIP3    H2  671   4.153   0.934   1.549 -1.0898  0.7185 -0.3726
  240TIP3   OH2  672   1.797   2.476   1.442  0.1454  0.5118 -0.2783
  240TIP3    H1  673   1.810   2.570   1.434  0.9311  0.2832 -1.9989
  240TIP3    H2  674   1.885   2.439   1.442 -0.1749 -0.3008 -1.0774
  241TIP3   OH2  675   3.792   1.435   1.974 -0.2254  0.1126 -0.5626
  241TIP3    H1  676   3.761   1.414   2.062  0.3536  1.4257 -0.0316
  241TIP3    H2  677   3.839   1.518   1.984 -0.0366  0.2071 -2.0866
  242TIP3   OH2  678   7.393   4.503   1.824 -0.1563  0.5831 -0.4116
  242TIP3    H1  679   7.360   4.415   1.844  2.1994 -0.4487 -0.9811
  242TIP3    H2  680   7.313   4.555   1.809 -1.5146 -1.9444 -2.2323
  243TIP3   OH2  681   5.904   1.908   2.543  0.2662 -0.3166  0.4527
  243TIP3    H1  682   5.926   1.926   2.634 -0.4697  0.5822  0.4581
  243TIP3    H2  683   5.823   1.956   2.527 -0.0086 -1.0574 -0.4686
  244TIP3   OH2  684   1.932   2.756   2.617  0.6391  0.4090  0.6364
  244TIP3    H1  685   1.951   2.742   2.524  0.0467 -3.1389  0.9697
  244TIP3    H2  686   2.012   2.794   2.652  1.3811  0.4676 -1.0528
  245TIP3   OH2  687   5.056   1.262   1.486  0.2640 -0.0819 -0.4516
  245TIP3    H1  688   5.151   1.258   1.493  0.4523  3.0279 -0.5192
  245TIP3    H2  689   5.036   1.216   1.404  1.8825  0.6326 -1.2772
  246TIP3   OH2  690   3.322   4.416   5.993 -0.0577 -0.7279 -0.4108
  246TIP3    H1  691   3.314   4.394   5.900 -0.7035 -0.6561 -0.3737
  246TIP3    H2  692   3.242   4.381   6.033 -0.4212  0.4220 -0.1106
  247TIP3   OH2  693   2.909   0.812   2.906 -0.0911 -0.1853  0.8232
  247TIP3    H1  694   2.815   0.815   2.886 -0.2959  0.8050  1.8576
  247TIP3    H2  695   2.913   0.786   2.998  0.6174  0.4539  0.9771
  248TIP3   OH2  696   3.191   0.954   0.914  0.0070 -0.2687 -0.4100
  248TIP3    H1  697   3.178   0.877   0.969  1.7843  0.1406  0.6368
  248TIP3    H2  698   3.262   0.929   0.855 -1.2337 -0.3639 -1.8925
  249TIP3   OH2  699   1.144   1.862   4.410 -0.3945 -0.1714  0.6419
  249TIP3    H1  700   1.161   1.872   4.316 -0.6460  0.4559  0.6637
  249TIP3    H2  701   1.184   1.778   4.432  2.6388  1.2574  0.7119
  250TIP3   OH2  702   2.701   2.224   3.032  0.2859 -0.6108 -0.7761
  250TIP3    H1  703   2.665   2.137   3.048 -2.0730  0.4204 -0.1554
  250TIP3    H2  704   2.626   2.283   3.043  1.6978  1.4400 -1.7926
  251TIP3   OH2  705   6.138   6.705   3.992 -0.3484 -0.1745 -0.3861
  251TIP3    H1  706   6.165   6.779   3.939 -1.8325  1.1937  0.7147
  251TIP3    H2  707   6.141   6.737   4.082 -1.8647 -1.1393  0.0386
  252TIP3   OH2  708   6.607   7.159   1.659  0.2191 -0.7314  1.0088
  252TIP3    H1  709   6.542   7.116   1.603  1.3674  0.3549 -1.2032
  252TIP3    H2  710   6.555   7.205   1.725 -1.3180  0.5726 -1.0481
  253TIP3   OH2  711   0.545   7.348   2.102 -0.3707  0.2205  0.4104
  253TIP3    H1  712   0.530   7.327   2.194  0.8099 -0.6618  0.4089
  253TIP3    H2  713   0.491   7.426   2.086 -2.1691 -0.8143  1.3049
  254TIP3   OH2  714   2.436   1.594   3.046  0.3117  0.0196 -0.0702
  254TIP3    H1  715   2.365   1.648   3.080  1.4714  0.0320  2.4655
  254TIP3    H2  716   2.514   1.649   3.057  0.9827 -0.7432 -0.9678
  255TIP3   OH2  717   1.404   7.142   0.492  0.4560 -0.0750  0.1247
  255TIP3    H1  718   1.415   7.162   0.585 -0.1124 -0.5500  0.3011
  255TIP3    H2  719   1.411   7.226   0.448  2.2883 -0.0299  0.4447
  256TIP3   OH2  720   2.460   3.072   3.168  0.1238 -0.3924 -0.2595
  256TIP3    H1  721   2.514   3.006   3.125 -1.7702 -2.5655  0.5785
  256TIP3    H2  722   2.407   3.109   3.097 -1.1573 -2.1532 -0.2697
  257TIP3   OH2  723   2.758   1.201   0.889  0.2794 -0.4518 -0.1126
  257TIP3    H1  724   2.679   1.199   0.944  0.8584  3.2931  1.0048
  257TIP3    H2  725   2.827   1.166   0.946 -0.2290 -2.1697 -0.5255
  258TIP3   OH2  726   5.102   1.237   2.634  0.3649  0.0478 -0.0101
  258TIP3    H1  727   5.126   1.156   2.589 -1.7504  0.1253 -1.3319
  258TIP3    H2  728   5.160   1.304   2.596  0.2976 -0.3473 -0.8061
  259TIP3   OH2  729   4.074   3.119   0.088 -0.1980  0.4767  0.0935
  259TIP3    H1  730   4.007   3.117   0.020  0.3525  0.3186 -0.4379
  259TIP3    H2  731   4.050   3.047   0.147 -1.0141  0.9848  0.3972
  260TIP3   OH2  732   2.352   4.202   0.494  0.1119  0.2715 -0.0867
  260TIP3    H1  733   2.340   4.112   0.466 -0.3162  0.2413  0.1804
  260TIP3    H2  734   2.293   4.211   0.569 -0.0665  0.8568 -0.2944
  261TIP3   OH2  735   1.404   5.678   1.356 -0.1260  0.4230  0.2630
  261TIP3    H1  736   1.330   5.708   1.303 -0.6511  2.5565  2.1306
  261TIP3    H2  737   1.364   5.635   1.431  0.5602  0.0835  0.4355
  262TIP3   OH2  738   0.497   1.574   1.606  0.7054  0.3628 -0.3103
  262TIP3    H1  739   0.511   1.503   1.669  0.0266  1.6516  1.3353
  262TIP3    H2  740   0.581   1.618   1.600  0.7021  0.3994 -0.0979
  263TIP3   OH2  741   7.885   6.947   3.552 -0.1267  0.0589  0.1755
  263TIP3    H1  742   7.862   6.943   3.645 -1.0411  0.4160 -0.0346
  263TIP3    H2  743   7.926   7.033   3.541 -2.1030  0.9884 -0.2089
  264TIP3   OH2  744   1.858   3.469   0.239  0.4388 -0.2764 -0.4921
  264TIP3    H1  745   1.867   3.561   0.215 -1.0958  0.3810  1.2623
  264TIP3    H2  746   1.859   3.422   0.156  0.5979  1.3756 -1.4519
  265TIP3   OH2  747   1.561   3.581   0.554 -0.5507 -0.0056  0.1113
  265TIP3    H1  748   1.569   3.611   0.644  2.4623  2.3885 -0.8930
  265TIP3    H2  749   1.635   3.521   0.541  0.1177  1.1021 -1.2938
  266TIP3   OH2  750   3.898   0.205   3.042  0.3437  0.4396  0.5103
  266TIP3    H1  751   3.924   0.177   2.954 -0.5127 -0.1766  0.4446
  266TIP3    H2  752   3.941   0.142   3.100  0.7464  0.7246  0.5214
  267TIP3   OH2  753   2.077   0.868   3.001 -0.6232  0.6267  0.3778
  267TIP3    H1  754   2.151   0.877   3.062  0.1461 -1.2047 -0.2467
  267TIP3    H2  755   2.051   0.776   3.008 -0.5650  0.3944 -1.9759
  268TIP3   OH2  756   1.091   1.060   1.423 -0.0993  0.2349  0.0481
  268TIP3    H1  757   1.153   1.130   1.401 -0.0101  1.1124  2.8600
  268TIP3    H2  758   1.015   1.076   1.368  1.2286  0.5329 -1.7538
  269TIP3   OH2  759   0.470   1.500   3.027 -0.2715  0.3000  0.1455
  269TIP3    H1  760   0.456   1.555   3.103  1.5894 -0.9179  1.4028
  269TIP3    H2  761   0.397   1.521   2.968 -2.6973  0.0364  2.9524
  270TIP3   OH2  762   2.668   2.863   1.708  0.4711  0.3411 -0.3891
  270TIP3    H1  763   2.731   2.934   1.700  2.1517 -0.9708  0.7002
  270TIP3    H2  764   2.589   2.896   1.666  1.0699  2.9955  0.4363
  271TIP3   OH2  765   3.259   2.038   1.817  0.2530 -0.1595 -1.0161
  271TIP3    H1  766   3.168   2.016   1.835  1.0258 -0.4051  3.2103
  271TIP3    H2  767   3.266   2.131   1.840  1.5074 -0.6982  0.9254
  272TIP3   OH2  768   3.517   6.557   4.732 -0.3858  0.0242 -0.2297
  272TIP3    H1  769   3.523   6.480   4.788  0.6069 -0.2899 -0.7779
  272TIP3    H2  770   3.440   6.541   4.677 -0.9148 -0.0056  0.5076
  273TIP3   OH2  771   3.623   2.018   0.028 -0.3518 -0.0253 -0.3640
  273TIP3    H1  772   3.560   1.967  -0.022 -1.0513  0.3008  0.1626
  273TIP3    H2  773   3.617   1.983   0.117 -0.1072  0.2912 -0.2207
  274TIP3   OH2  774   0.712   1.771   2.269 -0.2186  0.5516  0.1316
  274TIP3    H1  775   0.792   1.756   2.320 -0.2870  0.2830  0.1609
  274TIP3    H2  776   0.685   1.860   2.293 -0.2001  0.4618  0.4965
  275TIP3   OH2  777   0.607   1.928   1.603 -0.1179 -0.5674 -1.0532
  275TIP3    H1  778   0.608   1.958   1.512  1.0120  0.9360 -0.5701
  275TIP3    H2  779   0.696   1.894   1.617 -0.2335 -0.6228 -0.4585
  276TIP3   OH2  780   2.067   1.431   2.141 -0.4569 -0.2907 -0.1058
  276TIP3    H1  781   2.056   1.432   2.236 -0.4642 -0.1629 -0.1077
  276TIP3    H2  782   2.015   1.356   2.111  0.4008 -0.9855  0.0977
  277TIP3   OH2  783   7.575   1.436   1.408 -0.4110  0.0494 -0.2081
  277TIP3    H1  784   7.668   1.429   1.386 -1.0858 -1.8215 -2.6866
  277TIP3    H2  785   7.553   1.528   1.391  0.6147  0.1345 -1.1248
  278TIP3   OH2  786   1.616   2.119   2.842  0.1953  0.1899  0.9743
  278TIP3    H1  787   1.618   2.148   2.751 -0.7878 -2.6495 -0.0257
  278TIP3    H2  788   1.529   2.144   2.873  0.0968  0.1352  0.7470
  279TIP3   OH2  789   0.730   0.327   2.188 -0.2211 -0.5095  0.2531
  279TIP3    H1  790   0.661   0.262   2.174 -0.3596 -0.1523 -0.7818
  279TIP3    H2  791   0.809   0.285   2.153 -0.9462  1.1897 -3.7499
  280TIP3   OH2  792   0.618   2.209   3.258 -0.2865 -0.4220  0.0748
  280TIP3    H1  793   0.526   2.186   3.270 -0.4395 -0.2948 -0.8478
  280TIP3    H2  794   0.657   2.132   3.216  0.5010 -1.3196  2.3445
  281TIP3   OH2  795   1.465   0.634   1.257  0.0868 -0.3979 -0.1575
  281TIP3    H1  796   1.520   0.611   1.332 -1.1307  0.2779  0.9628
  281TIP3    H2  797   1.498   0.720   1.230  1.1466 -1.0610 -1.0031
  282TIP3   OH2  798   1.413   0.425   3.547 -0.1016 -0.4670  0.3615
  282TIP3    H1  799   1.455   0.474   3.477 -1.5957  1.3953  0.7293
  282TIP3    H2  800   1.465   0.446   3.625 -0.6659  0.4785  0.4959
  283TIP3   OH2  801   0.341   1.255   1.418 -0.0241  0.4810 -0.2602
  283TIP3    H1  802   0.322   1.244   1.511  0.4955 -1.6667 -0.3838
  283TIP3    H2  803   0.430   1.222   1.407 -0.4243 -0.1710 -1.6784
  284TIP3   OH2  804   6.522   6.481   1.951  0.1609 -0.0446 -0.1049
  284TIP3    H1  805   6.544   6.391   1.926 -0.9656 -0.5744  0.8014
  284TIP3    H2  806   6.598   6.532   1.922  0.8123 -1.2761 -0.6350
  285TIP3   OH2  807   0.867   0.066   4.421 -0.3036  0.2351 -0.1572
  285TIP3    H1  808   0.953   0.107   4.409  0.5713 -0.7603  2.4457
  285TIP3    H2  809   0.862   0.000   4.352  1.2416 -0.0264 -0.0485
  286TIP3   OH2  810   3.728   2.615   1.963  0.3451 -0.3659  0.1762
  286TIP3    H1  811   3.764   2.616   1.875 -0.5630  2.6313 -0.2304
  286TIP3    H2  812   3.805   2.623   2.020  0.8707 -1.5557 -0.3450
  287TIP3   OH2  813   3.417   1.359   3.652 -0.0789 -0.1535 -0.0231
  287TIP3    H1  814   3.375   1.403   3.725 -1.9235 -0.9990 -0.5638
  287TIP3    H2  815   3.412   1.266   3.674  1.0517 -0.2976 -0.3393
  288TIP3   OH2  816   3.153   2.723   1.451 -0.5491  0.0418 -0.3748
  288TIP3    H1  817   3.210   2.737   1.527  0.0797 -0.1417 -0.8058
  288TIP3    H2  818   3.080   2.672   1.484 -0.6609  0.6117  0.2701
  289TIP3   OH2  819   2.172   1.624   0.972 -0.1338  0.3112 -0.3558
  289TIP3    H1  820   2.095   1.659   1.017  0.2193  0.4028  0.1906
  289TIP3    H2  821   2.244   1.642   1.032  0.2175 -0.3629 -0.5741
  290TIP3   OH2  822   3.324   3.173   0.988  0.0088  0.1309  0.5016
  290TIP3    H1  823   3.362   3.257   1.011 -0.4148  1.1783 -2.4571
  290TIP3    H2  824   3.233   3.179   1.016  0.1799  0.3603  1.0054
  291TIP3   OH2  825   2.773   3.675   1.200  0.4448 -0.6187 -0.0278
  291TIP3    H1  826   2.699   3.731   1.175  3.5764  3.3299 -0.8632
  291TIP3    H2  827   2.788   3.618   1.125 -1.4042 -1.1773 -0.0065
  292TIP3   OH2  828   1.258   1.189   1.183  0.1302 -0.2804  0.2666
  292TIP3    H1  829   1.332   1.195   1.123 -0.6953 -0.0239 -0.7338
  292TIP3    H2  830   1.181   1.205   1.129 -0.5077  1.7991  1.7281
  293TIP3   OH2  831   0.454   2.201   0.547 -0.5675  0.0372 -0.3798
  293TIP3    H1  832   0.518   2.241   0.607 -0.6591 -1.9180  1.0829
  293TIP3    H2  833   0.370   2.213   0.591 -0.9980  0.9742 -1.4338
  294TIP3   OH2  834   6.273   1.041   2.213  0.0857  0.0862 -0.4543
  294TIP3    H1  835   6.267   1.063   2.307  0.4449  1.6604 -0.7801
  294TIP3    H2  836   6.209   0.971   2.201 -1.3721  1.1873  0.6039
  295TIP3   OH2  837   4.870   1.418   0.404 -0.0250 -0.0867 -0.0269
  295TIP3    H1  838   4.920   1.445   0.482 -0.7568 -4.0081  1.9661
  295TIP3    H2  839   4.793   1.475   0.404  1.5118  2.0488  0.2916
  296TIP3   OH2  840   1.927   3.897   2.202  0.5394  0.3108 -0.1676
  296TIP3    H1  841   1.985   3.851   2.263  0.1595  0.4603  0.3100
  296TIP3    H2  842   1.987   3.935   2.137  0.9297 -0.0379 -0.0159
  297TIP3   OH2  843   7.595   5.659   3.051 -0.2124 -0.3225 -0.2488
  297TIP3    H1  844   7.537   5.676   2.976 -0.9600 -1.1331  0.1367
  297TIP3    H2  845   7.604   5.564   3.053  1.3557 -0.1848 -0.4607
  298TIP3   OH2  846   3.022   1.581   2.336 -0.1837 -0.1987  0.3612
  298TIP3    H1  847   2.991   1.525   2.407 -1.1786 -0.2976 -0.1465
  298TIP3    H2  848   3.074   1.521   2.281 -0.2326 -0.3407  0.4675
  299TIP3   OH2  849   0.631   3.268   0.964 -0.4156  0.3200 -0.2026
  299TIP3    H1  850   0.701   3.277   1.029  0.6903 -0.2300 -1.2924
  299TIP3    H2  851   0.642   3.345   0.908  0.2027 -0.4961 -1.2045
  300TIP3   OH2  852   2.325   1.209   2.715  0.2398  0.1121  0.0306
  300TIP3    H1  853   2.310   1.155   2.638 -2.7931 -1.0607  1.3450
  300TIP3    H2  854   2.262   1.281   2.706  0.8035  0.7047  0.7382
  301TIP3   OH2  855   2.388   2.553   0.866 -0.7451 -0.6558  0.1692
  301TIP3    H1  856   2.337   2.606   0.927 -1.6627 -0.9292 -0.3514
  301TIP3    H2  857   2.392   2.466   0.906 -2.1713 -1.0906 -0.6093
  302TIP3   OH2  858   3.851   6.652   5.592 -0.0461 -0.0826 -0.1383
  302TIP3    H1  859   3.786   6.687   5.653 -0.5595 -1.0273 -0.1271
  302TIP3    H2  860   3.881   6.570   5.633  2.7947  1.4316  0.9388
  303TIP3   OH2  861   2.619   2.498   1.194 -0.0315 -0.3968 -0.0247
  303TIP3    H1  862   2.667   2.564   1.244  0.2772  1.2694 -2.4419
  303TIP3    H2  863   2.527   2.523   1.202  0.1550  0.8561 -1.6506
  304TIP3   OH2  864   7.193   6.226   2.552  0.5777 -0.2101  0.0758
  304TIP3    H1  865   7.125   6.282   2.513  0.5449  0.3121  0.8690
  304TIP3    H2  866   7.235   6.184   2.477 -0.5897 -0.5053 -0.4367
  305TIP3   OH2  867   1.140   2.128   1.473 -0.1785  0.3198  0.6819
  305TIP3    H1  868   1.188   2.046   1.480  0.3339  0.4700 -0.9279
  305TIP3    H2  869   1.208   2.195   1.467 -0.5673  0.5785 -1.0888
  306TIP3   OH2  870   0.902   3.277   2.233 -0.2652  0.1307  0.4412
  306TIP3    H1  871   0.928   3.339   2.301  1.4588 -0.2355  0.1184
  306TIP3    H2  872   0.982   3.258   2.185 -1.2435 -0.4986 -0.9870
  307TIP3   OH2  873   0.610   3.913   3.523 -0.2395 -0.0566  0.6417
  307TIP3    H1  874   0.679   3.930   3.588  0.7402  0.7505 -0.5736
  307TIP3    H2  875   0.567   3.998   3.512 -1.4373 -0.5567  1.3824
  308TIP3   OH2  876   0.847   1.730   1.189 -0.1885 -0.3269 -0.3773
  308TIP3    H1  877   0.812   1.815   1.215  0.4666  0.0266 -0.6361
  308TIP3    H2  878   0.907   1.749   1.117  0.9085 -0.8583  0.3746
  309TIP3   OH2  879   6.780   6.367   2.029 -0.3125 -0.3158  0.6156
  309TIP3    H1  880   6.872   6.388   2.009 -0.6637 -0.4251 -1.2226
  309TIP3    H2  881   6.746   6.331   1.947 -2.2764  0.6504  0.9917
  310TIP3   OH2  882   1.396   2.651   1.486 -0.0737 -0.3480  0.0188
  310TIP3    H1  883   1.304   2.673   1.499  0.3787  0.9013  1.1836
  310TIP3    H2  884   1.413   2.581   1.549 -0.2960 -0.8224 -0.4364
  311TIP3   OH2  885   5.184   6.666   5.502  0.0418 -0.0870 -0.0053
  311TIP3    H1  886   5.153   6.756   5.500 -1.0860 -0.4157  1.6464
  311TIP3    H2  887   5.251   6.665   5.570 -0.5877 -0.6753  0.6193
  312TIP3   OH2  888   1.262   0.189   2.069  0.0081 -0.0596  0.3458
  312TIP3    H1  889   1.288   0.209   2.159  0.8882 -0.4965  0.1940
  312TIP3    H2  890   1.309   0.108   2.048 -1.5068 -0.8746  0.0687
  313TIP3   OH2  891   5.273   5.822   3.056 -0.0476  0.5013  0.2775
  313TIP3    H1  892   5.279   5.774   2.974  0.0471 -0.4404  0.8216
  313TIP3    H2  893   5.181   5.849   3.061 -0.0853  0.4408 -0.0676
  314TIP3   OH2  894   2.871   2.418   0.587  0.1294 -0.1191  0.0472
  314TIP3    H1  895   2.812   2.475   0.636  2.4701  0.8983  1.8354
  314TIP3    H2  896   2.959   2.452   0.606  1.3281 -1.5736 -2.4791
  315TIP3   OH2  897   0.851   4.074   6.273 -0.2852  0.2136  0.3857
  315TIP3    H1  898   0.880   4.090   6.363 -2.7967  0.3968  1.2118
  315TIP3    H2  899   0.801   4.152   6.250  1.2856  0.6723 -1.6185
  316TIP3   OH2  900   4.854   1.034   0.514  0.3840  0.3802 -0.0043
  316TIP3    H1  901   4.920   1.060   0.579  1.5958  0.0904 -1.0886
  316TIP3    H2  902   4.890   1.064   0.431 -0.3399 -0.7615 -0.7461
  317TIP3   OH2  903   3.996   1.151   0.559 -0.1345 -0.4312  0.2466
  317TIP3    H1  904   3.923   1.212   0.546 -0.1144 -0.3303  0.6196
  317TIP3    H2  905   3.954   1.065   0.562  0.0437 -0.6431 -2.4285
  318TIP3   OH2  906   3.109   1.999   0.698 -0.2411 -0.1098 -0.0999
  318TIP3    H1  907   3.025   2.019   0.657 -0.0605  2.1716  0.5689
  318TIP3    H2  908   3.109   2.050   0.779  1.6374 -0.3617  0.0893
  319TIP3   OH2  909   7.701   5.199   6.368  0.6321  0.0789  0.0156
  319TIP3    H1  910   7.703   5.266   6.436  1.9005 -0.7586  0.8307
  319TIP3    H2  911   7.707   5.116   6.416 -1.3746 -0.6619 -0.9470
  320TIP3   OH2  912   3.145   1.957   1.425 -0.0712  0.2037  0.0533
  320TIP3    H1  913   3.190   1.884   1.468 -0.1648  0.3293  0.3643
  320TIP3    H2  914   3.211   1.994   1.365 -0.1519 -0.3871 -0.4042
  321TIP3   OH2  915   3.614   0.952   0.622  0.4388 -0.1175 -0.5269
  321TIP3    H1  916   3.556   0.935   0.695  0.2202 -2.3495 -1.1998
  321TIP3    H2  917   3.697   0.978   0.663  0.5245 -1.9917  0.5511
  322TIP3   OH2  918   5.274   1.158   2.154  0.0182 -0.2589 -0.0474
  322TIP3    H1  919   5.277   1.063   2.163 -0.6376 -0.2194  0.7203
  322TIP3    H2  920   5.305   1.191   2.239  1.1062  0.2186 -0.6233
  323TIP3   OH2  921   2.212   1.354   1.837 -0.5233  0.2470 -0.0962
  323TIP3    H1  922   2.188   1.270   1.877 -1.2222  0.2256 -0.5521
  323TIP3    H2  923   2.156   1.418   1.880 -0.4578  0.3852 -0.2160
  324TIP3   OH2  924   6.450   0.048   0.193  0.1141  0.3982 -0.2708
  324TIP3    H1  925   6.510  -0.025   0.184 -2.0402 -1.3327 -1.0236
  324TIP3    H2  926   6.385   0.019   0.257 -0.5472  1.8040 -0.2727
  325TIP3   OH2  927   5.472   0.801   0.987 -0.0299  0.1216  0.7956
  325TIP3    H1  928   5.464   0.808   0.892  0.2114  0.6933  0.8157
  325TIP3    H2  929   5.465   0.891   1.019 -2.4365 -0.2576  1.5081
  326TIP3   OH2  930   5.316   4.655   4.449 -0.4120 -0.2767 -0.3729
  326TIP3    H1  931   5.283   4.613   4.370  1.1951 -0.3252 -1.0393
  326TIP3    H2  932   5.271   4.739   4.453  0.9454  0.5990 -2.4380
  327TIP3   OH2  933   3.594   6.616   0.431 -0.2155 -0.4281 -0.0196
  327TIP3    H1  934   3.642   6.696   0.408  0.6308 -0.3973  1.7479
  327TIP3    H2  935   3.508   6.648   0.459  0.6586  0.0402  2.2291
  328TIP3   OH2  936   2.246   6.988   2.922  0.3481 -0.4446  0.5442
  328TIP3    H1  937   2.290   6.938   2.853  1.3279 -1.0637  1.6080
  328TIP3    H2  938   2.201   6.922   2.974 -1.3378  0.1315 -0.1605
  329TIP3   OH2  939   4.225   5.952   5.844  0.6580  0.5467 -0.2043
  329TIP3    H1  940   4.207   5.999   5.925  1.1300  0.5502 -0.0957
  329TIP3    H2  941   4.155   5.978   5.784 -0.1210 -0.0406  0.4373
  330TIP3   OH2  942   6.272   2.850   3.451  0.4556 -0.1621  0.5585
  330TIP3    H1  943   6.340   2.861   3.518 -1.1569  0.9056  2.0386
  330TIP3    H2  944   6.225   2.771   3.477  0.3184 -0.1946  0.2198
  331TIP3   OH2  945   5.938   1.680   2.164  0.9683  0.5708  0.4558
  331TIP3    H1  946   5.946   1.689   2.069  0.6121 -0.4154  0.3169
  331TIP3    H2  947   5.925   1.769   2.196 -0.4080  0.7678 -0.5759
  332TIP3   OH2  948   5.752   5.576   6.280 -0.5975 -0.3897 -0.5005
  332TIP3    H1  949   5.681   5.618   6.329  0.0937 -0.4771  0.5952
  332TIP3    H2  950   5.722   5.486   6.267 -0.7592 -0.3857 -0.1674
  333TIP3   OH2  951   4.359   1.348   0.896  0.0309 -0.5658 -0.3109
  333TIP3    H1  952   4.315   1.263   0.897 -0.3381 -0.3770 -0.0159
  333TIP3    H2  953   4.396   1.355   0.808 -1.7966 -0.1055 -1.0723
  334TIP3   OH2  954   4.695   1.777   1.325 -0.3141  0.2682 -0.1655
  334TIP3    H1  955   4.790   1.783   1.336 -0.2770 -0.2240 -0.1710
  334TIP3    H2  956   4.661   1.860   1.359  0.1009  0.3532  0.0482
  335TIP3   OH2  957   0.557   7.106   3.684  0.6265 -0.0987  0.1914
  335TIP3    H1  958   0.529   7.158   3.759  1.0369  0.0759  0.2233
  335TIP3    H2  959   0.519   7.152   3.608 -0.9561 -1.0496  0.3839
  336TIP3   OH2  960   5.624   5.338   6.209  0.0749  0.0893 -0.0970
  336TIP3    H1  961   5.568   5.262   6.225  0.2747 -0.5093 -2.1191
  336TIP3    H2  962   5.705   5.301   6.176  0.3248  1.1607 -0.6967
  337TIP3   OH2  963   3.930   6.451   5.775 -0.0540  0.2348  0.8417
  337TIP3    H1  964   4.014   6.406   5.765  0.8043  2.0155 -0.1871
  337TIP3    H2  965   3.943   6.508   5.851  0.0535  1.3225  0.0217
  338TIP3   OH2  966   1.838   5.580   5.792 -0.1009 -0.1105  0.1846
  338TIP3    H1  967   1.820   5.595   5.885  1.4146  0.8943  0.3326
  338TIP3    H2  968   1.911   5.518   5.790 -0.0383 -0.0256 -0.3308
  339TIP3   OH2  969   2.420   0.272   1.226  0.5962  0.0384 -0.2923
  339TIP3    H1  970   2.420   0.176   1.228  0.1323  0.0220 -1.1550
  339TIP3    H2  971   2.431   0.294   1.134 -1.2758  0.8077 -0.3551
  340TIP3   OH2  972   3.205   0.510   1.968 -0.6887 -0.0117 -0.5750
  340TIP3    H1  973   3.250   0.441   1.921 -0.0759 -0.2483  0.3469
  340TIP3    H2  974   3.113   0.500   1.943 -0.2194  0.6067 -2.6103
  341TIP3   OH2  975   6.060   6.193   6.351 -0.4250  0.3528  0.4868
  341TIP3    H1  976   6.061   6.107   6.393  1.2100  0.7376  1.2491
  341TIP3    H2  977   6.077   6.174   6.259  2.2782  0.0162  1.0013
  342TIP3   OH2  978   6.611   6.414   6.151  0.6850 -0.0743 -0.7984
  342TIP3    H1  979   6.535   6.454   6.193  0.1767  0.5475 -2.3164
  342TIP3    H2  980   6.658   6.371   6.224 -0.6899  0.1802  0.2573
  343TIP3   OH2  981   0.945   3.977   6.037  0.7498  0.9662  0.1844
  343TIP3    H1  982   0.902   4.012   6.115  0.2844 -0.3122  0.5187
  343TIP3    H2  983   0.878   3.925   5.994  1.5590  0.0839 -0.0368
  344TIP3   OH2  984   3.715   0.742   0.309  0.2617  0.2382 -0.6232
  344TIP3    H1  985   3.684   0.651   0.307  0.5071  0.1609 -1.1401
  344TIP3    H2  986   3.806   0.735   0.335  0.4488  0.2826 -1.2502
  345TIP3   OH2  987   5.949   6.121   5.710 -0.1783 -0.0757  0.0993
  345TIP3    H1  988   5.930   6.051   5.648  1.0274  0.1140 -0.4904
  345TIP3    H2  989   6.043   6.114   5.727 -0.2150  0.8268  0.7235
  346TIP3   OH2  990   4.913   1.880   0.125  0.0578  0.1053 -0.6267
  346TIP3    H1  991   4.828   1.862   0.164 -0.1289  0.6869 -0.7565
  346TIP3    H2  992   4.900   1.866   0.031  0.0758  0.2938 -0.6583
  347TIP3   OH2  993   0.911   3.845   4.031  0.0753 -0.1241 -0.1619
  347TIP3    H1  994   0.974   3.780   4.061  1.0941  1.4792  1.2260
  347TIP3    H2  995   0.941   3.869   3.943  1.9016  1.2282  0.8069
  348TIP3   OH2  996   6.686   1.683   0.858 -0.2559  0.1882 -0.0608
  348TIP3    H1  997   6.721   1.642   0.937 -1.1638  2.2240  1.4545
  348TIP3    H2  998   6.598   1.712   0.884 -1.1044 -0.3138 -2.2492
  349TIP3   OH2  999   4.383   1.267   0.621 -0.1297 -0.0638 -0.1278
  349TIP3    H1 1000   4.457   1.206   0.621  0.8863  1.1110 -1.9535
  349TIP3    H2 1001   4.341   1.252   0.536 -0.2363  1.3130 -0.3210
  350TIP3   OH2 1002   1.207   0.954   0.692  0.0020  0.0104  0.6007
  350TIP3    H1 1003   1.266   0.942   0.618 -0.9133 -0.9087  0.0119
  350TIP3    H2 1004   1.123   0.977   0.652 -0.0272  1.4374  1.4367
  351TIP3   OH2 1005   4.304   0.954   1.424 -0.0402 -0.5940  0.0401
  351TIP3    H1 1006   4.386   0.908   1.442  0.7471  0.6907 -0.1656
  351TIP3    H2 1007   4.330   1.029   1.371 -1.4224 -0.4493 -0.4469
  352TIP3   OH2 1008   5.655   2.712   3.101  0.7006  0.6253  0.1692
  352TIP3    H1 1009   5.615   2.787   3.056  1.1318  0.3784 -0.6343
  352TIP3    H2 1010   5.741   2.702   3.060  0.6135 -0.3701  0.2138
  353TIP3   OH2 1011   6.517   4.954   5.505 -0.2688  0.1442  0.1853
  353TIP3    H1 1012   6.554   5.032   5.465 -2.0841  1.0089  0.1417
  353TIP3    H2 1013   6.593   4.901   5.530  0.9780  1.9183  0.2308
  354TIP3   OH2 1014   0.822   1.322   1.978  0.0172 -0.0814 -0.0530
  354TIP3    H1 1015   0.905   1.302   2.021  0.3789  1.7833  0.1480
  354TIP3    H2 1016   0.838   1.307   1.885  1.7919  3.9847 -0.5067
  355TIP3   OH2 1017   2.519   1.870   1.519 -0.1597 -0.8243  0.0641
  355TIP3    H1 1018   2.560   1.839   1.438 -0.8552 -1.7159  0.0438
  355TIP3    H2 1019   2.465   1.796   1.548 -1.1002  0.0384  0.5299
  356TIP3   OH2 1020   1.981   2.230  -0.009 -0.2450  0.1669  0.2165
  356TIP3    H1 1021   1.913   2.189   0.045 -1.7995  0.6824 -1.3087
  356TIP3    H2 1022   1.981   2.322   0.018  0.6063 -0.0340  0.9495
  357TIP3   OH2 1023   1.186   7.371   3.494 -0.0964  0.0850 -0.0180
  357TIP3    H1 1024   1.207   7.429   3.421 -0.4291 -0.0964 -0.2571
  357TIP3    H2 1025   1.150   7.293   3.453 -0.6589  0.1478  0.3617
  358TIP3   OH2 1026   3.538   1.051   0.859  0.3803 -0.3709  0.1007
  358TIP3    H1 1027   3.493   1.115   0.915 -0.1004 -0.2246 -0.4544
  358TIP3    H2 1028   3.536   0.970   0.909  1.4835  0.1782  1.0568
  359TIP3   OH2 1029   2.241   1.891   0.847 -0.2667  0.5760 -0.2064
  359TIP3    H1 1030   2.208   1.801   0.844  0.8578  0.1670 -0.6429
  359TIP3    H2 1031   2.183   1.936   0.908  0.1739 -0.8589  1.3124
  360TIP3   OH2 1032   1.435   0.844   0.863  0.3002 -0.2309  0.5084
  360TIP3    H1 1033   1.435   0.749   0.872 -0.9437 -0.2822  0.0314
  360TIP3    H2 1034   1.469   0.860   0.776 -1.4224 -0.3418 -0.2114
  361TIP3   OH2 1035   3.779   0.102   2.073 -0.6126  0.4652  0.4696
  361TIP3    H1 1036   3.754   0.158   1.999  1.0086 -0.2973 -0.6912
  361TIP3    H2 1037   3.772   0.159   2.149 -1.8173  1.4193 -0.3367
  362TIP3   OH2 1038   4.106   3.237   2.067  0.2136  0.5517  0.2666
  362TIP3    H1 1039   4.143   3.297   2.132 -0.3428  0.5747  0.5599
  362TIP3    H2 1040   4.124   3.150   2.101 -1.4700  0.5624  1.2509
  363TIP3   OH2 1041   3.696   2.312   4.252  0.1033 -0.1126 -0.3420
  363TIP3    H1 1042   3.644   2.263   4.316 -1.3298  0.3980 -1.0979
  363TIP3    H2 1043   3.787   2.291   4.274 -0.4205 -1.1378  0.9052
  364TIP3   OH2 1044   3.265   2.083   0.465 -0.0647 -0.0494  0.6101
  364TIP3    H1 1045   3.243   2.087   0.558  1.0398 -0.5002  0.9097
  364TIP3    H2 1046   3.272   1.989   0.446 -0.5502  0.0369  0.0106
  365TIP3   OH2 1047   3.391   2.569   0.501 -0.1137 -0.5939 -0.0030
  365TIP3    H1 1048   3.363   2.657   0.475  0.4955 -0.6548 -0.8858
  365TIP3    H2 1049   3.419   2.527   0.420 -3.1705 -2.6620 -0.0812
  366TIP3   OH2 1050   1.342   0.867   0.143 -0.0912  0.3778  0.3018
  366TIP3    H1 1051   1.437   0.855   0.137 -0.1381 -1.1013  2.1627
  366TIP3    H2 1052   1.323   0.865   0.236 -1.9621  0.6699 -0.0518
  367TIP3   OH2 1053   3.355   2.509   1.613  0.1985  0.1117 -0.0707
  367TIP3    H1 1054   3.305   2.582   1.648 -0.1900 -0.7669  1.2328
  367TIP3    H2 1055   3.434   2.549   1.576 -0.3665  1.2555 -0.0494
  368TIP3   OH2 1056   4.109   1.733   1.427 -0.4185 -0.1977  0.3911
  368TIP3    H1 1057   4.141   1.823   1.432 -2.0047  0.3512  1.2141
  368TIP3    H2 1058   4.187   1.679   1.424  0.5725  1.2722 -1.2995
  369TIP3   OH2 1059   2.837   1.789   3.118  0.3649 -0.3159  0.3084
  369TIP3    H1 1060   2.756   1.837   3.134 -0.1520 -1.4547  1.0878
  369TIP3    H2 1061   2.900   1.857   3.093 -0.8764  0.5457 -0.5256
  370TIP3   OH2 1062   4.096   2.544   1.796 -0.2871  0.0057  0.0105
  370TIP3    H1 1063   4.013   2.505   1.770 -0.4608 -1.0300  1.9977
  370TIP3    H2 1064   4.160   2.472   1.788  0.3788  0.7255 -1.2699
  371TIP3   OH2 1065   1.992   0.803   0.239  0.3739  0.2677 -0.1103
  371TIP3    H1 1066   1.959   0.815   0.150  0.4630 -1.6870 -0.4361
  371TIP3    H2 1067   1.933   0.855   0.294 -0.0959  0.9430 -1.2363
  372TIP3   OH2 1068   3.014   0.653   0.204  0.0184 -0.0801  0.0346
  372TIP3    H1 1069   3.058   0.738   0.195  0.8713 -0.4104  1.0068
  372TIP3    H2 1070   2.965   0.643   0.122 -1.6161  2.1909  0.6817
  373TIP3   OH2 1071   4.870   2.923   0.314  0.1048 -0.2198  0.5057
  373TIP3    H1 1072   4.792   2.955   0.361 -0.8033 -3.8589  1.6049
  373TIP3    H2 1073   4.938   2.919   0.380  1.2194  2.6534 -0.3917
  374TIP3   OH2 1074   5.430   3.149   4.475 -0.2805 -0.1478  0.1056
  374TIP3    H1 1075   5.355   3.199   4.445 -0.1110  0.1021  0.1001
  374TIP3    H2 1076   5.414   3.135   4.568  0.5458  1.4625  0.5043
  375TIP3   OH2 1077   1.919   7.322   0.878  0.2686 -0.9641  0.0675
  375TIP3    H1 1078   1.992   7.292   0.823  0.3388 -0.9894  0.1724
  375TIP3    H2 1079   1.847   7.263   0.857 -0.0491 -0.2646 -0.8267
  376TIP3   OH2 1080   7.701   4.890   6.142 -0.4183  0.2991 -0.1884
  376TIP3    H1 1081   7.669   4.879   6.232 -0.3464  0.1071 -0.1865
  376TIP3    H2 1082   7.634   4.943   6.099 -0.6732  0.0195 -0.1415
  377TIP3   OH2 1083   2.600   0.880   0.302  0.0086  0.3885 -0.2475
  377TIP3    H1 1084   2.570   0.806   0.355 -0.2258  0.2223 -0.6078
  377TIP3    H2 1085   2.606   0.953   0.364 -2.5978  0.8123 -0.4388
  378TIP3   OH2 1086   3.260   2.373   2.611  0.0963  0.0539 -0.4350
  378TIP3    H1 1087   3.191   2.439   2.602 -0.3137 -0.4327 -0.8724
  378TIP3    H2 1088   3.334   2.410   2.562 -0.2868 -0.0231 -1.0748
  379TIP3   OH2 1089   6.043   0.250   0.173  0.7091  0.1872  0.1920
  379TIP3    H1 1090   6.008   0.188   0.109 -0.5194  1.1359 -0.0833
  379TIP3    H2 1091   6.133   0.264   0.145  1.3031 -2.2034  0.8343
  380TIP3   OH2 1092   2.400   1.591   2.158 -0.8202 -0.2630 -0.2178
  380TIP3    H1 1093   2.421   1.677   2.195 -2.0408 -0.1366  0.1947
  380TIP3    H2 1094   2.385   1.535   2.234 -0.3753 -0.7500 -0.4914
  381TIP3   OH2 1095   3.784   2.133   0.609  0.3355 -0.1084 -0.9646
  381TIP3    H1 1096   3.743   2.047   0.609  1.8244 -0.9262  2.2199
  381TIP3    H2 1097   3.714   2.194   0.633  0.0205 -0.9480  0.3180
  382TIP3   OH2 1098   4.834   7.273   0.644  0.2924 -1.1676  0.1916
  382TIP3    H1 1099   4.903   7.337   0.658  0.7087 -1.7989  1.0881
  382TIP3    H2 1100   4.776   7.283   0.719 -1.6840  0.7121 -1.5395
  383TIP3   OH2 1101   7.691   2.741   6.199  0.6371  0.0837  0.0150
  383TIP3    H1 1102   7.676   2.770   6.110 -1.6458 -0.4110  0.2065
  383TIP3    H2 1103   7.713   2.821   6.247  0.3187  0.5918 -0.6746
  384TIP3   OH2 1104   3.867   1.301   1.509  0.0742 -0.3404  0.0835
  384TIP3    H1 1105   3.807   1.239   1.468  1.2425  0.0242 -2.2534
  384TIP3    H2 1106   3.933   1.245   1.551  0.9856 -0.7168 -1.8072
  385TIP3   OH2 1107   2.650   1.108   0.457 -0.4955 -0.0108 -0.1470
  385TIP3    H1 1108   2.616   1.197   0.454 -0.5105  0.0723  1.6803
  385TIP3    H2 1109   2.745   1.118   0.461 -0.5272 -0.0169  0.9713
  386TIP3   OH2 1110   6.902   2.336   1.190  0.4388  0.4481  0.2243
  386TIP3    H1 1111   6.812   2.307   1.178  0.7815 -0.9672  0.9900
  386TIP3    H2 1112   6.910   2.412   1.132 -1.7403  1.6437  1.4213
  387TIP3   OH2 1113   4.579   0.891   3.418 -0.3518  0.2097 -0.9038
  387TIP3    H1 1114   4.671   0.863   3.410  0.0527  0.9794  0.8707
  387TIP3    H2 1115   4.529   0.810   3.405  0.6515 -0.5799  0.0416
  388TIP3   OH2 1116   5.449   1.244   2.373  0.5567 -0.4927 -0.7186
  388TIP3    H1 1117   5.477   1.296   2.448 -1.9693  1.6572 -1.1795
  388TIP3    H2 1118   5.494   1.285   2.298 -0.3719  0.1835 -0.9123
  389TIP3   OH2 1119   7.684   7.067   5.811 -0.4174 -0.0298  0.4100
  389TIP3    H1 1120   7.692   7.087   5.904 -2.2831 -2.7694  1.2200
  389TIP3    H2 1121   7.603   7.016   5.804 -0.1247 -0.1759 -2.6621
  390TIP3   OH2 1122   2.250   0.666   2.399 -0.4445 -0.3164 -0.1198
  390TIP3    H1 1123   2.321   0.722   2.368  0.3866 -1.2916  0.0161
  390TIP3    H2 1124   2.170   0.709   2.366  0.1422  1.1779  0.3485
  391TIP3   OH2 1125   5.889   5.254   6.098 -0.8100 -0.1690  0.3258
  391TIP3    H1 1126   5.966   5.297   6.137 -2.1522  0.5910  2.2321
  391TIP3    H2 1127   5.891   5.279   6.006  1.1831 -0.0984  0.3708
  392TIP3   OH2 1128   4.388   2.925   0.527 -0.2703  0.4241 -0.4754
  392TIP3    H1 1129   4.369   2.967   0.611 -1.1890  0.0789 -0.4981
  392TIP3    H2 1130   4.340   2.842   0.531  2.8558 -1.4359  0.2510
  393TIP3   OH2 1131   6.812   2.842   0.269 -0.1063  0.0258  0.4954
  393TIP3    H1 1132   6.806   2.910   0.202 -0.2800 -1.8111 -1.3737
  393TIP3    H2 1133   6.720   2.822   0.290 -0.0704  1.5973  2.3809
  394TIP3   OH2 1134   6.188   4.121   4.995  0.2001  0.0440  0.5697
  394TIP3    H1 1135   6.274   4.122   4.952 -0.7168 -0.1780 -1.3497
  394TIP3    H2 1136   6.202   4.072   5.076  1.6902 -0.8288 -0.1914
  395TIP3   OH2 1137   6.319   2.907   2.695 -0.1401 -0.3830 -0.2765
  395TIP3    H1 1138   6.354   2.984   2.651 -1.7569  0.3658 -0.2864
  395TIP3    H2 1139   6.232   2.934   2.725  0.5107 -1.1994  2.4847
  396TIP3   OH2 1140   6.090   2.136   1.620  0.4135 -0.4408  0.2517
  396TIP3    H1 1141   6.012   2.107   1.574  0.8528 -0.5466 -0.4311
  396TIP3    H2 1142   6.130   2.200   1.561  0.9938 -0.5993  0.4695
  397TIP3   OH2 1143   1.812   0.628   0.863 -0.2965  0.0857 -0.6374
  397TIP3    H1 1144   1.761   0.563   0.911 -1.2665  0.5423 -1.0459
  397TIP3    H2 1145   1.837   0.583   0.782 -0.7137  0.1210 -0.7873
  398TIP3   OH2 1146   4.409   3.418   0.162  0.2762 -0.0964 -0.1689
  398TIP3    H1 1147   4.455   3.502   0.163  0.2538 -0.0907  0.9417
  398TIP3    H2 1148   4.474   3.355   0.192  0.3172 -0.4905 -1.0864
  399TIP3   OH2 1149   2.440   1.603   1.536  0.2876  0.4131 -0.5627
  399TIP3    H1 1150   2.398   1.522   1.563  0.7047  0.8417  1.4320
  399TIP3    H2 1151   2.510   1.576   1.477 -0.8120 -0.5143 -1.4786
  400TIP3   OH2 1152   5.931   6.709   5.810  0.5289 -0.1092  0.5806
  400TIP3    H1 1153   5.913   6.616   5.826  1.1966 -0.0934  1.4506
  400TIP3    H2 1154   5.960   6.712   5.719 -1.0602 -0.5226  0.0426
  401TIP3   OH2 1155   1.989   0.929   1.330  0.2623 -0.5454  0.0626
  401TIP3    H1 1156   2.033   0.952   1.248  1.2707 -1.3383  0.3705
  401TIP3    H2 1157   1.897   0.954   1.316  0.6291  0.2924 -0.9148
  402TIP3   OH2 1158   4.437   2.091   2.364 -0.2511 -0.0948 -0.1851
  402TIP3    H1 1159   4.424   2.031   2.291 -0.6498 -2.3018  1.6398
  402TIP3    H2 1160   4.502   2.154   2.332 -0.2502 -1.1495 -2.3456
  403TIP3   OH2 1161   6.164   2.524   0.714  0.3561  0.2937 -0.2011
  403TIP3    H1 1162   6.093   2.471   0.676 -0.1469  0.2794  0.7429
  403TIP3    H2 1163   6.204   2.568   0.639  1.1835 -1.9039 -1.0878
  404TIP3   OH2 1164   6.418   3.512   1.238  0.1690  0.9667 -0.3652
  404TIP3    H1 1165   6.382   3.537   1.323  0.5011  1.9945 -0.5103
  404TIP3    H2 1166   6.373   3.431   1.215  0.1135  0.6570  0.8115
  405TIP3   OH2 1167   5.739   0.890   1.461 -0.3724  0.1044  0.1926
  405TIP3    H1 1168   5.790   0.828   1.513  0.7423  0.6234 -0.2809
  405TIP3    H2 1169   5.790   0.903   1.381 -1.6630 -0.0410 -0.6851
  406TIP3   OH2 1170   2.745   0.581   0.095  0.3840  0.5057 -0.0403
  406TIP3    H1 1171   2.692   0.575   0.174  0.2338 -1.2477 -0.2622
  406TIP3    H2 1172   2.688   0.622   0.030 -0.3488 -0.4201  0.0187
  407TIP3   OH2 1173   3.767   0.532   1.744 -0.3878  0.1205 -0.0327
  407TIP3    H1 1174   3.724   0.570   1.821  0.1144  0.4014  0.1078
  407TIP3    H2 1175   3.697   0.524   1.679 -1.0690 -1.1879  0.8371
  408TIP3   OH2 1176   1.954   7.247   5.179  0.0393  0.1299 -0.6031
  408TIP3    H1 1177   1.908   7.271   5.099 -2.5587  0.6203  0.9911
  408TIP3    H2 1178   1.903   7.175   5.216  1.5148 -0.4587  0.3558
  409TIP3   OH2 1179   3.930   7.203   4.682  0.4564 -0.5253 -0.5545
  409TIP3    H1 1180   4.006   7.146   4.696  2.2301  1.4972 -1.7507
  409TIP3    H2 1181   3.963   7.292   4.694 -1.1917  0.5239 -3.1984
  410TIP3   OH2 1182   6.333   1.496   1.202  0.3651 -0.1553 -0.1452
  410TIP3    H1 1183   6.255   1.537   1.163  1.0950 -0.4024 -1.8942
  410TIP3    H2 1184   6.320   1.402   1.188  0.7710 -0.2319 -0.0083
  411TIP3   OH2 1185   2.171   2.685   0.102 -0.4899 -0.6707 -0.0078
  411TIP3    H1 1186   2.260   2.665   0.075 -0.3503 -1.2751  0.8573
  411TIP3    H2 1187   2.166   2.653   0.192 -1.2172  0.4509  0.3528
  412TIP3   OH2 1188   5.251   3.655   2.606 -0.0111 -0.0310  0.2534
  412TIP3    H1 1189   5.320   3.628   2.665  0.3144 -1.6198 -0.8061
  412TIP3    H2 1190   5.201   3.575   2.589 -1.3542  0.8287  0.0168
  413TIP3   OH2 1191   7.467   6.854   5.559 -0.0232  0.4261  0.3766
  413TIP3    H1 1192   7.467   6.884   5.650  0.4192  0.0412  0.5059
  413TIP3    H2 1193   7.423   6.924   5.510 -2.0184 -0.2563  1.1614
  414TIP3   OH2 1194   1.372   6.767   2.662  0.1314  0.0952  0.0497
  414TIP3    H1 1195   1.281   6.792   2.681  0.3770  0.7529  0.3772
  414TIP3    H2 1196   1.366   6.711   2.585 -0.6743 -0.8427  0.7696
  415TIP3   OH2 1197   5.793   2.766   0.583  0.5597 -0.1493  0.5856
  415TIP3    H1 1198   5.862   2.795   0.524  0.3373  0.4354  0.6039
  415TIP3    H2 1199   5.723   2.830   0.570 -0.2676 -1.1481  0.0223
  416TIP3   OH2 1200   7.697   0.530   6.429  0.1073  0.8077 -0.0233
  416TIP3    H1 1201   7.662   0.507   6.515  1.0222 -2.3774 -0.4148
  416TIP3    H2 1202   7.642   0.483   6.367  0.7253  1.4165 -1.0531
  417TIP3   OH2 1203   5.716   5.898   5.813  0.5601 -0.1746  0.3073
  417TIP3    H1 1204   5.722   5.919   5.720 -0.0711  2.3023  0.7850
  417TIP3    H2 1205   5.633   5.851   5.822 -0.6281  1.8086 -0.0256
  418TIP3   OH2 1206   5.336   3.923   6.092  0.3213 -0.0735  0.4091
  418TIP3    H1 1207   5.431   3.933   6.091  0.3979 -0.7437  0.8639
  418TIP3    H2 1208   5.315   3.892   6.003  0.5620 -0.2448  0.4112
  419TIP3   OH2 1209   6.839   1.016   1.866  0.1021  0.0884 -0.3411
  419TIP3    H1 1210   6.833   1.030   1.961  0.0942  0.8615 -0.4540
  419TIP3    H2 1211   6.932   1.016   1.847  0.1383 -0.8589 -0.2264
  420TIP3   OH2 1212   1.557   7.412   0.927 -0.3196  0.3282  0.2340
  420TIP3    H1 1213   1.469   7.440   0.953 -0.4324 -0.8960  1.1813
  420TIP3    H2 1214   1.605   7.407   1.009  0.3764  0.0583 -0.1925
  421TIP3   OH2 1215   4.674   4.818   5.246  0.5393 -0.0699  0.0103
  421TIP3    H1 1216   4.722   4.852   5.171  2.2637 -0.1616  1.0451
  421TIP3    H2 1217   4.594   4.871   5.250 -0.0047 -0.6687 -2.3927
  422TIP3   OH2 1218   5.986   4.958   5.991 -0.1052 -0.1213 -0.0288
  422TIP3    H1 1219   6.027   5.003   6.064 -0.8608 -0.5877  0.6945
  422TIP3    H2 1220   5.959   5.028   5.931  3.6540  0.1180 -1.5878
  423TIP3   OH2 1221   6.063   2.191   1.883 -0.4922 -0.2411  0.4409
  423TIP3    H1 1222   5.972   2.217   1.896 -0.6855 -1.0813  0.8489
  423TIP3    H2 1223   6.082   2.213   1.791 -0.5160  1.6392  0.8728
  424TIP3   OH2 1224   2.458   1.883   2.275  0.7480  0.1241 -0.5943
  424TIP3    H1 1225   2.402   1.883   2.352 -0.0464 -1.9640 -1.1349
  424TIP3    H2 1226   2.547   1.870   2.310  0.2712 -1.8836 -0.0923
  425TIP3   OH2 1227   4.247   2.311   1.775  0.3038  0.3708 -0.2115
  425TIP3    H1 1228   4.337   2.310   1.744  0.4011  0.0425  0.0873
  425TIP3    H2 1229   4.252   2.281   1.866 -0.1530 -0.0388 -0.3195
  426TIP3   OH2 1230   4.270   1.666   3.026  0.5464 -0.0502 -0.2255
  426TIP3    H1 1231   4.257   1.671   3.121  1.3583 -0.3542 -0.0887
  426TIP3    H2 1232   4.326   1.589   3.014 -1.1718 -1.1878 -1.1190
  427TIP3   OH2 1233   6.700   3.787   6.172 -0.4859 -0.3818 -0.3736
  427TIP3    H1 1234   6.762   3.715   6.158  0.5916  0.2685  0.9737
  427TIP3    H2 1235   6.648   3.760   6.247 -0.6359 -0.1228 -0.3834
  428TIP3   OH2 1236   0.689   1.360   1.007  0.4116  0.7424  0.5877
  428TIP3    H1 1237   0.725   1.319   0.929  0.0986  0.1020  0.7738
  428TIP3    H2 1238   0.601   1.388   0.981  0.2465  0.3841  0.7527
  429TIP3   OH2 1239   3.775   1.688   2.896 -0.1673 -0.0775 -0.4345
  429TIP3    H1 1240   3.855   1.640   2.917  0.7515 -0.1526 -3.8233
  429TIP3    H2 1241   3.704   1.632   2.927  0.9694 -2.2886 -1.7128
  430TIP3   OH2 1242   4.497   3.093   6.126  0.1831 -0.5584 -0.1517
  430TIP3    H1 1243   4.487   3.173   6.075  0.9266 -0.0277  0.5321
  430TIP3    H2 1244   4.417   3.044   6.109  0.0973 -0.0551 -1.2432
  431TIP3   OH2 1245   5.282   4.588   5.015  0.1781  0.3795  0.3298
  431TIP3    H1 1246   5.254   4.592   4.923  1.0370  1.8422  0.1131
  431TIP3    H2 1247   5.329   4.671   5.029 -0.0499  0.2166  2.1211
  432TIP3   OH2 1248   3.773   3.152   2.350  0.1900  0.6184  0.0085
  432TIP3    H1 1249   3.861   3.158   2.385  0.3267  1.7341 -0.5249
  432TIP3    H2 1250   3.770   3.066   2.307  1.4739  1.1788 -1.2371
  433TIP3   OH2 1251   3.433   1.788   0.864 -0.0340 -0.3573  0.1942
  433TIP3    H1 1252   3.428   1.732   0.787 -1.6496  0.7322 -0.5145
  433TIP3    H2 1253   3.502   1.851   0.844  2.1335 -2.3106  1.1893
  434TIP3   OH2 1254   3.649   1.307   0.012 -0.1600 -0.0016  0.8898
  434TIP3    H1 1255   3.735   1.335  -0.018 -0.5884 -0.0786 -0.4716
  434TIP3    H2 1256   3.632   1.359   0.090 -0.9853  3.7298 -1.6412
  435TIP3   OH2 1257   7.774   7.101   6.083  0.0063  0.6320  0.4181
  435TIP3    H1 1258   7.841   7.033   6.070  0.9600  1.3460  1.4637
  435TIP3    H2 1259   7.707   7.058   6.136  0.0269  0.1541  0.0653
  436TIP3   OH2 1260   3.212   1.311   2.705  0.1448 -0.0741 -0.5013
  436TIP3    H1 1261   3.128   1.341   2.670  0.4439  2.6762  1.0018
  436TIP3    H2 1262   3.195   1.295   2.798  0.8320 -1.4076 -0.5883
  437TIP3   OH2 1263   6.016   0.982   0.197 -0.5587 -0.5797  0.1300
  437TIP3    H1 1264   6.071   0.910   0.229 -0.2352  0.1899  1.3669
  437TIP3    H2 1265   6.067   1.021   0.127 -0.3085 -0.9703  0.0919
  438TIP3   OH2 1266   6.941   0.896   4.568 -0.2974  0.3479  0.9130
  438TIP3    H1 1267   6.916   0.976   4.614  1.0715  1.4598 -0.2220
  438TIP3    H2 1268   7.037   0.894   4.574 -0.2849 -0.8853  0.3919
  439TIP3   OH2 1269   0.885   4.803   6.443 -0.1402 -0.5170  0.0603
  439TIP3    H1 1270   0.970   4.759   6.434 -0.5229 -1.4855  0.9396
  439TIP3    H2 1271   0.835   4.775   6.367  0.8368  1.3004 -1.2955
  440TIP3   OH2 1272   6.223   7.386   1.833 -0.7528 -0.2166  0.8204
  440TIP3    H1 1273   6.238   7.304   1.787 -0.0396 -0.1227  0.8681
  440TIP3    H2 1274   6.220   7.452   1.764 -2.0987 -0.3712  0.7180
  441TIP3   OH2 1275   6.894   6.858   5.924 -0.5149  0.0782 -0.3127
  441TIP3    H1 1276   6.843   6.912   5.984  0.0363 -1.0187  1.1721
  441TIP3    H2 1277   6.828   6.811   5.872 -0.9966  0.1362  0.2451
  442TIP3   OH2 1278   3.578   2.248   2.570  0.2523 -0.0170  0.7171
  442TIP3    H1 1279   3.566   2.170   2.624  1.8787 -0.5232  0.3920
  442TIP3    H2 1280   3.503   2.249   2.511  1.8910 -3.2777 -1.5919
  443TIP3   OH2 1281   5.412   4.889   6.416  0.0961 -0.1543 -0.5672
  443TIP3    H1 1282   5.407   4.796   6.393 -0.6368  0.3271 -2.4751
  443TIP3    H2 1283   5.501   4.902   6.446  0.1951 -1.4817 -0.2385
  444TIP3   OH2 1284   4.520   0.974   1.931 -0.0545 -0.2280  0.2254
  444TIP3    H1 1285   4.608   0.955   1.899  0.0257 -0.1529  0.4001
  444TIP3    H2 1286   4.513   0.923   2.013 -0.0621  0.0107  0.3725
  445TIP3   OH2 1287   6.353   6.665   5.454  0.0728  0.0541  0.0305
  445TIP3    H1 1288   6.352   6.750   5.410  1.2158 -0.3108 -0.7410
  445TIP3    H2 1289   6.400   6.607   5.393 -0.3001 -1.0220  0.7417
  446TIP3   OH2 1290   7.574   4.887   6.382 -0.1863  0.4453  0.0603
  446TIP3    H1 1291   7.479   4.891   6.388 -0.1243  1.3115  0.4993
  446TIP3    H2 1292   7.597   4.800   6.416 -0.8439  0.0783 -0.4303
  447TIP3   OH2 1293   2.064   0.046   0.942 -0.0794  0.4155  0.0227
  447TIP3    H1 1294   2.130   0.083   0.884 -0.8202  0.4682 -0.7987
  447TIP3    H2 1295   2.034   0.120   0.995  2.3366 -0.1002  2.2092
  448TIP3   OH2 1296   4.476   1.009   0.390  0.1291 -0.2389  0.4412
  448TIP3    H1 1297   4.488   0.914   0.393 -1.9388 -0.5623 -0.8435
  448TIP3    H2 1298   4.509   1.039   0.475  0.2710 -2.1588  1.1046
  449TIP3   OH2 1299   6.451   1.780   1.869 -0.2953  0.5566  0.2986
  449TIP3    H1 1300   6.398   1.845   1.824 -1.9811 -0.1972  1.1632
  449TIP3    H2 1301   6.388   1.719   1.907  1.1843 -0.3861  1.3135
  450TIP3   OH2 1302   3.754   1.330   2.232  0.6577  0.2498 -0.2554
  450TIP3    H1 1303   3.791   1.269   2.295 -1.0397 -0.5893 -0.0455
  450TIP3    H2 1304   3.699   1.389   2.284  1.2444  1.1385 -0.6267
  451TIP3   OH2 1305   4.972   2.211   2.484  0.0867  0.6471 -0.4120
  451TIP3    H1 1306   4.881   2.182   2.472  0.6087 -0.4945 -1.7745
  451TIP3    H2 1307   4.969   2.305   2.469 -0.5894  0.3545 -2.3293
  452TIP3   OH2 1308   3.671   2.052   1.878  0.3689 -0.5807 -0.0826
  452TIP3    H1 1309   3.639   2.104   1.804  1.7944 -0.2932 -0.5187
  452TIP3    H2 1310   3.682   2.115   1.949 -2.2180 -1.0659  0.8032
  453TIP3   OH2 1311   5.495   0.974   4.806 -0.3542 -0.5683 -0.1279
  453TIP3    H1 1312   5.422   0.923   4.841  0.0786 -2.1548 -1.4935
  453TIP3    H2 1313   5.506   1.045   4.869 -1.3197 -1.8256  1.5178
  454TIP3   OH2 1314   5.838   0.847   0.389  0.3023 -0.1108  0.6754
  454TIP3    H1 1315   5.885   0.894   0.320 -0.1287  0.3055  0.6641
  454TIP3    H2 1316   5.825   0.759   0.354 -2.7928  0.9810 -1.1380
  455TIP3   OH2 1317   5.119   2.656   1.629 -0.3865  0.5635  0.0903
  455TIP3    H1 1318   5.069   2.605   1.692 -1.5629 -0.0913 -1.3478
  455TIP3    H2 1319   5.156   2.591   1.569  0.7408  1.1744  0.0988
  456TIP3   OH2 1320   5.644   0.929   2.412  0.5901 -0.5371 -0.3222
  456TIP3    H1 1321   5.600   1.005   2.449  1.1207 -0.1963 -0.3718
  456TIP3    H2 1322   5.674   0.878   2.487  0.7868 -0.3687 -0.2866
  457TIP3   OH2 1323   1.659   0.875   0.097  0.2536 -0.4591  0.0280
  457TIP3    H1 1324   1.668   0.847   0.006  3.5635 -0.6314  0.3472
  457TIP3    H2 1325   1.729   0.939   0.110 -0.1167 -0.4876  2.4754
  458TIP3   OH2 1326   4.995   0.592   1.104  0.5946 -0.3180 -0.4405
  458TIP3    H1 1327   4.918   0.544   1.075  0.3313  0.2234 -0.6400
  458TIP3    H2 1328   5.069   0.534   1.081  0.1526 -1.7916  1.6894
  459TIP3   OH2 1329   2.289   2.404   2.773 -0.3617  0.1989  0.1899
  459TIP3    H1 1330   2.233   2.438   2.842 -0.6308 -0.0204  0.0792
  459TIP3    H2 1331   2.307   2.314   2.799 -0.4253  0.1307 -0.0062
  460TIP3   OH2 1332   2.402   3.264   2.949 -0.1407  0.5007 -0.8100
  460TIP3    H1 1333   2.479   3.260   2.892  1.6135  1.1473  1.4545
  460TIP3    H2 1334   2.363   3.348   2.929  0.8078  0.9906 -0.6401
  461TIP3   OH2 1335   4.891   3.365   1.153  0.6956  0.7312  0.0220
  461TIP3    H1 1336   4.979   3.327   1.150  0.5013  0.2698  0.2633
  461TIP3    H2 1337   4.905   3.451   1.193  0.9346  0.3696  0.7224
  462TIP3   OH2 1338   4.206   2.713   0.593  0.1172  0.0622  0.1548
  462TIP3    H1 1339   4.153   2.757   0.659  1.5619 -0.2130  1.5412
  462TIP3    H2 1340   4.200   2.620   0.615 -0.8915 -0.2081 -1.2355
  463TIP3   OH2 1341   4.126   1.362   1.299 -0.2235  0.6488  0.3671
  463TIP3    H1 1342   4.065   1.350   1.371  0.9237 -0.6440  1.1531
  463TIP3    H2 1343   4.193   1.421   1.333  0.2786  0.0965  0.3631
  464TIP3   OH2 1344   4.939   0.286   1.715  0.6755 -0.4050  0.2267
  464TIP3    H1 1345   4.857   0.307   1.669  0.9077 -0.7368 -0.3418
  464TIP3    H2 1346   4.937   0.191   1.724  1.8030 -0.5976 -1.3151
  465TIP3   OH2 1347   5.390   1.544   0.009 -0.3057  0.2025  0.1829
  465TIP3    H1 1348   5.392   1.594   0.091 -1.9467  0.2255  0.2204
  465TIP3    H2 1349   5.344   1.601  -0.053 -1.5691 -0.9565  0.0316
  466TIP3   OH2 1350   5.945   1.877   0.459 -0.3375  0.2527 -0.1261
  466TIP3    H1 1351   5.894   1.946   0.502 -0.2137 -0.1533  0.6968
  466TIP3    H2 1352   6.012   1.854   0.523  0.8325  0.7192 -1.1735
  467TIP3   OH2 1353   5.717   0.691   0.593 -0.0812 -0.3198  0.1570
  467TIP3    H1 1354   5.755   0.760   0.538  0.1020  1.0193  1.9130
  467TIP3    H2 1355   5.718   0.613   0.537 -0.3342  1.0891 -1.8890
  468TIP3   OH2 1356   5.908   3.623   1.760 -0.2180  0.3598 -0.2994
  468TIP3    H1 1357   5.831   3.573   1.787  0.1048 -1.1328 -2.0454
  468TIP3    H2 1358   5.877   3.676   1.686  0.0002  1.0902  0.1304
  469TIP3   OH2 1359   5.410   6.475   6.365 -0.4779 -0.0656  0.2735
  469TIP3    H1 1360   5.398   6.480   6.460 -1.5999  1.4369  0.0781
  469TIP3    H2 1361   5.455   6.557   6.343 -0.8703 -0.0804 -0.5763
  470TIP3   OH2 1362   5.280   1.572   0.326 -0.7880  0.3038 -0.2026
  470TIP3    H1 1363   5.235   1.598   0.245 -0.0698  1.4940 -0.2392
  470TIP3    H2 1364   5.356   1.629   0.329  0.0007 -0.7773  0.5486
  471TIP3   OH2 1365   7.371   6.500   6.050 -0.6490  0.0008 -0.5558
  471TIP3    H1 1366   7.389   6.423   6.104  0.7101 -0.3865 -1.5287
  471TIP3    H2 1367   7.383   6.575   6.108 -0.1309 -0.4426 -0.0896
  472TIP3   OH2 1368   5.751   2.829   1.400 -0.4527 -0.3807 -0.3005
  472TIP3    H1 1369   5.753   2.861   1.490 -1.2021  1.0166 -0.7656
  472TIP3    H2 1370   5.692   2.754   1.402 -0.6007 -0.2474  0.3393
  473TIP3   OH2 1371   6.105   0.157   1.097 -0.1720  0.0370  0.1710
  473TIP3    H1 1372   6.107   0.249   1.121  0.0055  0.0372  0.1578
  473TIP3    H2 1373   6.174   0.117   1.150 -0.7783 -0.2337  0.7626
  474TIP3   OH2 1374   2.182   6.365   0.728 -0.3271 -0.5052 -0.3522
  474TIP3    H1 1375   2.160   6.290   0.782  1.1847 -2.6752 -2.6249
  474TIP3    H2 1376   2.117   6.363   0.657 -1.4860  1.5436  0.5766
  475TIP3   OH2 1377   7.622   4.425   5.219 -0.3783  0.4738  0.0914
  475TIP3    H1 1378   7.704   4.432   5.267  0.5439  0.3306 -1.4229
  475TIP3    H2 1379   7.574   4.353   5.262  1.3818 -1.1353 -0.5906
  476TIP3   OH2 1380   3.202   6.481   2.419  0.2158  0.2966 -0.1519
  476TIP3    H1 1381   3.276   6.461   2.476 -0.2302  1.3563  0.8155
  476TIP3    H2 1382   3.222   6.435   2.338 -0.0707 -2.8093  1.4739
  477TIP3   OH2 1383   2.626   3.215   2.704 -0.2026 -0.0452  0.3706
  477TIP3    H1 1384   2.722   3.219   2.701 -0.0002 -3.6073 -0.5956
  477TIP3    H2 1385   2.597   3.272   2.633  1.1580  1.5396  1.0538
  478TIP3   OH2 1386   4.513   1.323   2.222  0.3675  1.0873  0.2530
  478TIP3    H1 1387   4.490   1.231   2.229  1.5718  0.9968  4.1142
  478TIP3    H2 1388   4.606   1.323   2.200  0.1115  1.3961 -0.8490
  479TIP3   OH2 1389   2.145   7.286   0.709 -0.1916  0.2188  0.2749
  479TIP3    H1 1390   2.238   7.269   0.700 -0.0046 -0.1134  2.4912
  479TIP3    H2 1391   2.129   7.364   0.656  1.4727  0.6821  0.4531
  480TIP3   OH2 1392   3.687   1.145   2.744 -0.5212 -0.1268 -0.2799
  480TIP3    H1 1393   3.623   1.208   2.709 -1.4752 -1.7895 -1.6277
  480TIP3    H2 1394   3.766   1.196   2.757 -1.6384  1.6192 -0.1840
  481TIP3   OH2 1395   0.615   7.263   3.339  0.1455 -0.3847  0.4507
  481TIP3    H1 1396   0.693   7.276   3.392  0.1964 -0.9378  0.5130
  481TIP3    H2 1397   0.630   7.318   3.261  0.7333 -0.7286  0.3180
  482TIP3   OH2 1398   6.543   0.168   1.469 -0.1111  0.3218  0.4482
  482TIP3    H1 1399   6.584   0.234   1.525  0.2468 -0.3265  0.9560
  482TIP3    H2 1400   6.614   0.132   1.417 -0.3860  0.6717 -0.1777
  483TIP3   OH2 1401   7.620   7.228   6.302  0.4674  0.1858  0.0075
  483TIP3    H1 1402   7.599   7.218   6.395  1.0981  2.8093  0.4431
  483TIP3    H2 1403   7.702   7.180   6.291 -1.4588 -3.2828 -0.0237
  484TIP3   OH2 1404   1.603   7.329   0.323  0.1288 -0.7109  0.0509
  484TIP3    H1 1405   1.566   7.374   0.399  0.6947 -0.7632  0.3567
  484TIP3    H2 1406   1.686   7.294   0.354  1.3513  1.0499 -1.1634
  485TIP3   OH2 1407   7.071   6.758   5.098 -0.1694  0.8173 -0.1507
  485TIP3    H1 1408   7.001   6.718   5.046  2.3782 -2.5488 -1.1774
  485TIP3    H2 1409   7.090   6.694   5.167  1.9268  1.5815  0.0281
  486TIP3   OH2 1410   4.483   3.308   3.198 -0.0143 -0.5647 -0.7960
  486TIP3    H1 1411   4.562   3.272   3.238  0.6782  1.0495 -0.6771
  486TIP3    H2 1412   4.513   3.344   3.115 -0.6037  0.2043 -0.6764
  487TIP3   OH2 1413   5.839   0.208   2.722 -0.6884 -0.0561 -0.4122
  487TIP3    H1 1414   5.876   0.217   2.809 -0.0370 -2.4604 -0.4013
  487TIP3    H2 1415   5.747   0.185   2.737 -0.4486 -0.9914 -0.3338
  488TIP3   OH2 1416   4.220   2.807   2.170  0.3682  0.2653  0.5120
  488TIP3    H1 1417   4.230   2.898   2.198  0.9478  0.7910 -1.3126
  488TIP3    H2 1418   4.198   2.813   2.077  1.5502 -1.4746  0.0919
  489TIP3   OH2 1419   4.255   0.489   0.598 -0.9421 -0.4136 -0.6487
  489TIP3    H1 1420   4.315   0.430   0.643 -0.3189 -0.5108 -1.5886
  489TIP3    H2 1421   4.242   0.450   0.512 -0.1776  1.0202 -1.4462
  490TIP3   OH2 1422   4.038   1.796   0.547  0.1747  0.8835  0.2796
  490TIP3    H1 1423   4.006   1.749   0.624 -1.0018 -1.0798 -1.3504
  490TIP3    H2 1424   4.118   1.749   0.522  0.0044  0.8855 -0.2735
  491TIP3   OH2 1425   6.458   5.784   6.167  0.3443 -0.3738 -0.0491
  491TIP3    H1 1426   6.385   5.842   6.190  0.2690 -0.1935 -0.7157
  491TIP3    H2 1427   6.536   5.829   6.199  0.2985  0.1707 -0.6818
  492TIP3   OH2 1428   2.422   0.116   5.663 -0.1410 -0.2513  0.2825
  492TIP3    H1 1429   2.377   0.038   5.696 -0.2350 -0.7604 -1.0045
  492TIP3    H2 1430   2.461   0.087   5.581 -0.8563  1.2891 -0.6157
  493TIP3   OH2 1431   0.047   4.591   6.322 -0.1743 -0.1097  0.5771
  493TIP3    H1 1432   0.058   4.498   6.340  0.2329 -0.5088 -1.5646
  493TIP3    H2 1433   0.135   4.627   6.326 -0.1064 -0.1599 -0.2653
  494TIP3   OH2 1434   1.819   1.825   0.660 -0.2826 -0.3905 -0.0460
  494TIP3    H1 1435   1.864   1.887   0.717 -0.0032 -0.0308 -0.6521
  494TIP3    H2 1436   1.726   1.839   0.678 -0.1843 -0.5541  0.6002
  495TIP3   OH2 1437   5.386   6.003   5.853  0.8279 -0.1724 -0.0407
  495TIP3    H1 1438   5.388   5.909   5.837 -0.8725 -0.2791  0.2789
  495TIP3    H2 1439   5.373   6.042   5.766 -1.3291 -0.3905  0.1675
  496TIP3   OH2 1440   2.724   1.629   1.706  0.3547  0.0410 -0.4631
  496TIP3    H1 1441   2.644   1.663   1.747 -0.3578 -1.4227 -0.5950
  496TIP3    H2 1442   2.795   1.669   1.756 -0.4899 -0.8889  1.5368
  497TIP3   OH2 1443   2.253   0.460   0.820 -0.2698 -0.1723 -1.0459
  497TIP3    H1 1444   2.341   0.489   0.794 -0.3803 -1.2597 -2.7432
  497TIP3    H2 1445   2.214   0.537   0.862  1.0998  0.6655 -1.2612
  498TIP3   OH2 1446   5.138   1.730   0.103 -0.2307  0.0496 -0.1205
  498TIP3    H1 1447   5.204   1.785   0.061 -1.1165  1.4996  0.3326
  498TIP3    H2 1448   5.058   1.783   0.100 -1.5995 -2.0486 -1.4928
  499TIP3   OH2 1449   5.764   1.117   1.200  0.2231 -0.1423  0.3333
  499TIP3    H1 1450   5.813   1.038   1.223  0.3605 -0.0597  0.3199
  499TIP3    H2 1451   5.798   1.143   1.115 -2.5486 -2.3113 -1.5415
  500TIP3   OH2 1452   5.771   2.235   1.130 -0.0427  0.3087 -0.1134
  500TIP3    H1 1453   5.781   2.163   1.192 -0.9135  1.2346  1.1157
  500TIP3    H2 1454   5.852   2.235   1.080  0.5622 -0.5998  0.8519
  501TIP3   OH2 1455   2.638   6.845   0.920  0.3057  0.0397  0.4367
  501TIP3    H1 1456   2.647   6.914   0.854 -0.9739  0.4408  0.6720
  501TIP3    H2 1457   2.654   6.764   0.871 -0.7312  0.3251 -0.4059
  502TIP3   OH2 1458   3.638   1.460   1.442 -0.2895  0.5069  0.5808
  502TIP3    H1 1459   3.630   1.488   1.351  0.5574 -0.3011  0.2452
  502TIP3    H2 1460   3.559   1.408   1.459  0.3330 -0.7438 -0.2235
  503TIP3   OH2 1461   0.403   4.674   5.244  0.1900 -0.1091  0.1663
  503TIP3    H1 1462   0.330   4.732   5.264  0.1128 -0.2338  0.2478
  503TIP3    H2 1463   0.403   4.610   5.316 -0.9775 -1.4184 -0.9692
  504TIP3   OH2 1464   3.282   0.864   1.270  0.7016  0.1346 -0.3952
  504TIP3    H1 1465   3.278   0.847   1.176  1.1791 -1.3303 -0.1726
  504TIP3    H2 1466   3.357   0.924   1.281  0.5322  0.4458 -0.9590
  505TIP3   OH2 1467   4.402   2.125   1.094 -0.6571 -0.7146  0.1640
  505TIP3    H1 1468   4.426   2.033   1.083 -1.3580 -0.8916  0.0663
  505TIP3    H2 1469   4.341   2.142   1.022  0.3567  0.1532 -0.5004
  506TIP3   OH2 1470   3.627   1.493   1.166 -0.1646  0.5848 -0.2179
  506TIP3    H1 1471   3.690   1.522   1.100 -0.3373  1.2089 -0.1063
  506TIP3    H2 1472   3.555   1.555   1.160 -0.1209  0.7194  0.6485
  507TIP3   OH2 1473   6.582   0.930   5.744 -0.2590 -0.1328 -0.3368
  507TIP3    H1 1474   6.622   0.989   5.681  1.9820 -0.7056  0.4991
  507TIP3    H2 1475   6.597   0.972   5.829  0.7678 -1.5408  0.2014
  508TIP3   OH2 1476   5.465   6.734   6.225  0.0375 -0.7998  0.2142
  508TIP3    H1 1477   5.436   6.777   6.144 -1.3790 -1.5999  0.2917
  508TIP3    H2 1478   5.548   6.778   6.246 -0.4031  0.5502 -0.7655
  509TIP3   OH2 1479   3.944   1.100   1.735 -0.1139  0.0930  0.0854
  509TIP3    H1 1480   4.035   1.128   1.727  0.2299 -0.4294  1.9025
  509TIP3    H2 1481   3.919   1.125   1.824 -1.7597  0.2397 -0.3917
  510TIP3   OH2 1482   5.660   1.662   1.420  0.4248 -0.3785 -0.5372
  510TIP3    H1 1483   5.594   1.631   1.481 -1.2257  2.8715 -0.5458
  510TIP3    H2 1484   5.645   1.613   1.340 -0.7359 -1.0132  0.0616
  511TIP3   OH2 1485   0.074   0.479   5.734 -0.1809  0.6184  0.3440
  511TIP3    H1 1486   0.001   0.540   5.723 -0.4674  0.1584 -0.3401
  511TIP3    H2 1487   0.033   0.395   5.755  0.1427  0.3124 -0.2395
  512TIP3   OH2 1488   2.561   6.700   4.252 -0.3926 -0.3196 -0.6405
  512TIP3    H1 1489   2.490   6.684   4.314 -1.0920 -0.0208 -1.3514
  512TIP3    H2 1490   2.605   6.778   4.285  0.7993 -1.5984  0.8577
  513TIP3   OH2 1491   4.353   1.512   2.114  1.3071  0.2909  0.0096
  513TIP3    H1 1492   4.285   1.451   2.085  0.8949  1.2070 -0.9381
  513TIP3    H2 1493   4.410   1.459   2.171 -0.0655 -0.5302  0.6346
  514TIP3   OH2 1494   5.263   2.260   2.557  0.2862  0.3440  0.0404
  514TIP3    H1 1495   5.313   2.192   2.512  0.5103 -1.2716  2.6133
  514TIP3    H2 1496   5.174   2.250   2.525  0.0027 -2.2195  1.5008
  515TIP3   OH2 1497   7.197   1.555   1.484 -0.2860  0.0227  0.2195
  515TIP3    H1 1498   7.235   1.628   1.436  0.9494 -0.2929  0.6833
  515TIP3    H2 1499   7.236   1.562   1.572  0.8041 -1.8892 -0.0816
  516TIP3   OH2 1500   5.944   0.721   0.971 -0.2571 -0.1032  0.1225
  516TIP3    H1 1501   5.887   0.649   0.946 -0.0642 -0.4203  0.5732
  516TIP3    H2 1502   6.011   0.724   0.903 -1.0602  0.5645 -0.6546
  517TIP3   OH2 1503   0.283   6.140   5.330 -0.1148 -0.4308 -0.0382
  517TIP3    H1 1504   0.209   6.117   5.275 -0.9358  0.2338  0.7693
  517TIP3    H2 1505   0.292   6.235   5.319  0.0349 -0.3728  0.5690
  518TIP3   OH2 1506   7.083   4.853   5.668 -0.7495  0.4063 -0.1706
  518TIP3    H1 1507   7.111   4.905   5.592 -0.7826 -0.4343 -0.7751
  518TIP3    H2 1508   7.157   4.796   5.686 -0.8521  0.4108  0.2591
  519TIP3   OH2 1509   3.600   7.414   0.390  0.5153 -0.1186  0.2527
  519TIP3    H1 1510   3.512   7.399   0.356  0.5937  0.4706 -0.2130
  519TIP3    H2 1511   3.586   7.469   0.467  0.4960  0.1622  0.0479
  520TIP3   OH2 1512   4.581   1.508   1.948  0.1165 -0.2550 -0.3888
  520TIP3    H1 1513   4.537   1.496   2.033  0.6717 -4.8247 -0.6316
  520TIP3    H2 1514   4.511   1.498   1.884  0.3906 -1.0736 -0.5682
  521TIP3   OH2 1515   0.142   1.710   0.818 -0.1063  0.6133  0.0994
  521TIP3    H1 1516   0.097   1.792   0.797 -1.6974  0.1289  1.4698
  521TIP3    H2 1517   0.221   1.711   0.764 -0.8444  2.3581 -0.9950
  522TIP3   OH2 1518   5.481   1.307   0.838 -0.0244 -0.3296  0.8823
  522TIP3    H1 1519   5.392   1.338   0.853  0.5301  1.6844  0.1246
  522TIP3    H2 1520   5.471   1.236   0.774 -1.1341 -0.5459  1.2805
  523TIP3   OH2 1521   6.912   0.383   0.615  0.1532  0.2707 -0.0000
  523TIP3    H1 1522   7.005   0.358   0.614  0.2000  0.4598 -0.3358
  523TIP3    H2 1523   6.874   0.331   0.686  0.5598  0.3455  0.2753
  524TIP3   OH2 1524   6.218   0.966   1.558 -0.4195  0.8517 -0.0824
  524TIP3    H1 1525   6.183   0.921   1.635  1.2936  0.2858  0.3716
  524TIP3    H2 1526   6.247   1.051   1.590  0.3248  0.6037 -0.0850
  525TIP3   OH2 1527   3.050   6.485   0.797 -0.0986 -0.3441  0.3792
  525TIP3    H1 1528   3.036   6.551   0.729  0.5324  1.2658  1.7716
  525TIP3    H2 1529   2.964   6.446   0.811 -0.8177  1.2449  0.5809
  526TIP3   OH2 1530   4.766   0.926   1.831 -0.4890  0.5720 -0.6909
  526TIP3    H1 1531   4.801   0.877   1.757  0.1875  0.7069 -0.4620
  526TIP3    H2 1532   4.802   1.014   1.821 -0.6534  0.6776 -0.3762
  527TIP3   OH2 1533   1.832   4.601   5.723 -0.3441  0.2296 -0.3914
  527TIP3    H1 1534   1.770   4.586   5.652 -0.0996  0.2110 -0.6012
  527TIP3    H2 1535   1.852   4.514   5.757  0.7957  0.1101 -1.3718
  528TIP3   OH2 1536   6.596   0.927   0.873  0.3821 -0.2772 -0.1699
  528TIP3    H1 1537   6.687   0.906   0.894  0.4734 -0.3743 -0.6645
  528TIP3    H2 1538   6.563   0.969   0.953  1.2938  1.1099 -0.4916
  529TIP3   OH2 1539   4.701   2.622   0.644 -0.8994  0.2808  0.6862
  529TIP3    H1 1540   4.609   2.625   0.671 -0.3323  0.5528  2.6844
  529TIP3    H2 1541   4.750   2.625   0.726  0.8820 -1.0361 -0.2989
  530TIP3   OH2 1542   7.176   1.995   0.509  0.2839  0.1553  1.0443
  530TIP3    H1 1543   7.170   2.029   0.419 -1.8195  0.7996  1.4152
  530TIP3    H2 1544   7.121   2.053   0.561 -0.4348 -1.6371  2.3384
  531TIP3   OH2 1545   2.978   6.794   1.231 -0.1382 -0.6463  0.0561
  531TIP3    H1 1546   2.913   6.725   1.240 -0.9578 -0.1128 -1.5636
  531TIP3    H2 1547   2.932   6.864   1.184  0.5800  1.1131  1.8842
  532TIP3   OH2 1548   4.000   0.169   6.039  0.2877 -0.0176  0.0717
  532TIP3    H1 1549   4.041   0.231   6.098 -1.4613 -0.2737  1.6044
  532TIP3    H2 1550   3.987   0.219   5.958 -1.0322  1.6332  1.2567
  533TIP3   OH2 1551   7.817   5.682   5.509 -0.2571 -0.5865 -0.6915
  533TIP3    H1 1552   7.742   5.695   5.451 -2.6871  1.3303  2.6419
  533TIP3    H2 1553   7.790   5.610   5.566  1.2450 -1.1274 -0.6522
  534TIP3   OH2 1554   7.197   5.020   6.051  0.0598  0.1336  0.8427
  534TIP3    H1 1555   7.157   5.103   6.025 -0.0358 -0.4998 -1.1047
  534TIP3    H2 1556   7.124   4.957   6.052  0.3989 -0.2645  0.7284
  535TIP3   OH2 1557   0.429   5.583   6.034 -0.4066 -0.0141  0.0262
  535TIP3    H1 1558   0.362   5.538   6.086 -0.3364 -1.0586 -0.7764
  535TIP3    H2 1559   0.466   5.515   5.979 -0.5445  1.1094 -1.4686
  536TIP3   OH2 1560   6.428   1.252   0.139  0.1753  0.0488 -0.2481
  536TIP3    H1 1561   6.356   1.212   0.188 -0.9847  0.7192 -1.3946
  536TIP3    H2 1562   6.466   1.315   0.200 -1.1692  0.7751 -0.1469
  537TIP3   OH2 1563   0.036   6.032   5.204  0.5270  0.1427  0.5467
  537TIP3    H1 1564  -0.033   6.083   5.246  2.3842  2.4666  0.9069
  537TIP3    H2 1565   0.075   5.981   5.275 -1.1491 -1.5772  0.2422
  538TIP3   OH2 1566   4.755   1.152   1.215 -0.1184  0.0730  0.3193
  538TIP3    H1 1567   4.846   1.180   1.206  0.2929 -1.1725  0.5280
  538TIP3    H2 1568   4.704   1.233   1.202  1.0532  1.0281  1.5036
  539TIP3   OH2 1569   3.304   0.238   6.215 -0.1938  0.1089 -0.1943
  539TIP3    H1 1570   3.244   0.217   6.287  1.8010 -2.3317  0.7928
  539TIP3    H2 1571   3.354   0.313   6.247  1.5472 -1.7328  1.5284
  540TIP3   OH2 1572   4.687   0.866   0.083 -0.3584  0.1549 -0.4627
  540TIP3    H1 1573   4.592   0.859   0.076 -0.3988  0.1867  0.0080
  540TIP3    H2 1574   4.713   0.787   0.130 -0.0624 -0.2464 -1.2821
  541TIP3   OH2 1575   5.215   2.384   1.598 -0.1504  0.1501  1.1218
  541TIP3    H1 1576   5.150   2.377   1.668  0.9408 -0.0861  2.1440
  541TIP3    H2 1577   5.207   2.303   1.548 -1.5364  0.7051  0.4305
  542TIP3   OH2 1578   0.324   5.753   5.252  0.3220 -0.7239  0.1894
  542TIP3    H1 1579   0.242   5.790   5.284  0.3039  0.4603 -1.1581
  542TIP3    H2 1580   0.361   5.822   5.197  1.3867 -1.8934 -0.5915
  543TIP3   OH2 1581   0.249   4.903   5.171  0.0558 -0.4685  0.0751
  543TIP3    H1 1582   0.281   4.875   5.085 -0.4634 -1.0040  0.0595
  543TIP3    H2 1583   0.301   4.981   5.191  0.2071 -0.3657 -0.7044
  544TIP3   OH2 1584   4.412   1.376   2.500 -0.7856 -0.3279 -0.2208
  544TIP3    H1 1585   4.465   1.332   2.566 -0.0545 -0.0046 -0.5866
  544TIP3    H2 1586   4.467   1.379   2.422 -0.8585  1.1129 -0.2452
  545TIP3   OH2 1587   5.176   2.902   2.077 -0.2393 -0.4107 -0.6812
  545TIP3    H1 1588   5.197   2.846   2.002 -1.3520 -0.0888 -1.2487
  545TIP3    H2 1589   5.146   2.984   2.038 -2.0266 -0.6753  0.0749
  546TIP3   OH2 1590   1.388   6.815   0.206 -0.1596  0.1351  0.5964
  546TIP3    H1 1591   1.482   6.801   0.199 -0.0636 -0.1587  2.1507
  546TIP3    H2 1592   1.361   6.847   0.120  1.3692  0.3012  0.1705
  547TIP3   OH2 1593   1.897   3.133   5.934 -0.6081 -0.2324  0.3497
  547TIP3    H1 1594   1.893   3.203   5.869  0.9487 -1.3245 -0.9384
  547TIP3    H2 1595   1.891   3.179   6.018 -1.5330  1.2723 -0.5109
  548TIP3   OH2 1596   0.569   3.960   5.271 -0.5889 -0.2671  0.7787
  548TIP3    H1 1597   0.481   3.924   5.258 -0.2644 -0.3749 -1.1146
  548TIP3    H2 1598   0.627   3.903   5.221  0.4309  0.4646  1.1040
  549TIP3   OH2 1599   0.721   5.982   6.333  0.3799  0.1544 -0.1568
  549TIP3    H1 1600   0.669   5.952   6.259  1.3595  0.2411 -0.8984
  549TIP3    H2 1601   0.754   6.068   6.305  1.3860 -0.1552  0.0535
  550TIP3   OH2 1602   0.171   4.367   0.508 -0.2298  0.4148  0.4630
  550TIP3    H1 1603   0.093   4.351   0.454  1.0363 -0.1757 -1.2165
  550TIP3    H2 1604   0.136   4.407   0.588 -2.1542  1.1660 -0.7118
  551TIP3   OH2 1605   5.621   4.128   0.159 -0.2430  0.0253 -0.3812
  551TIP3    H1 1606   5.578   4.057   0.207 -1.4457  0.7705 -0.3309
  551TIP3    H2 1607   5.621   4.202   0.220 -0.6960  0.6252 -1.1001
  552TIP3   OH2 1608   3.743   6.774   0.818  0.1277 -0.1279  0.3474
  552TIP3    H1 1609   3.803   6.702   0.837 -0.8927 -0.8392  0.9614
  552TIP3    H2 1610   3.764   6.800   0.728  0.6464 -1.0567  0.1932
  553TIP3   OH2 1611   7.606   0.674   1.457  0.0994  0.1370 -0.7395
  553TIP3    H1 1612   7.625   0.755   1.408 -0.5075  1.0936  0.5740
  553TIP3    H2 1613   7.510   0.668   1.455  0.1892 -1.1239 -1.7179
  554TIP3   OH2 1614   1.901   6.762   2.313 -0.6935 -0.2353 -0.3532
  554TIP3    H1 1615   1.989   6.737   2.342 -0.1483  1.4305 -0.5003
  554TIP3    H2 1616   1.870   6.822   2.380 -2.3459 -1.9513  0.4711
  555TIP3   OH2 1617   5.489   3.296   0.489 -0.5939  0.1639  0.0036
  555TIP3    H1 1618   5.402   3.268   0.515  0.4556 -1.9656  1.3673
  555TIP3    H2 1619   5.499   3.263   0.400 -1.6394  1.5761 -0.6673
  556TIP3   OH2 1620   6.808   0.250   0.359  0.1044  0.2186 -0.2449
  556TIP3    H1 1621   6.731   0.305   0.375  0.6415  0.8901  0.0687
  556TIP3    H2 1622   6.867   0.269   0.432 -0.2005 -1.7008  0.5234
  557TIP3   OH2 1623  -0.001   1.983   5.711  0.3049 -0.1137  0.2258
  557TIP3    H1 1624   0.075   1.967   5.766  0.6318 -1.7248 -0.6862
  557TIP3    H2 1625   0.034   2.016   5.629 -0.0513  0.2448  0.2138
  558TIP3   OH2 1626   6.184   0.123   0.603  0.0985  0.5567  0.1261
  558TIP3    H1 1627   6.164   0.213   0.629 -0.8343  0.2829  0.3726
  558TIP3    H2 1628   6.184   0.074   0.686 -1.0154  0.0319 -0.1727
  559TIP3   OH2 1629   6.422   1.446   0.796  0.4486  0.1105  0.3850
  559TIP3    H1 1630   6.402   1.485   0.881 -0.6670  0.6827 -0.1259
  559TIP3    H2 1631   6.409   1.352   0.808  0.5944  0.1577  0.9203
  560TIP3   OH2 1632   6.877   0.278   0.926 -0.1493 -0.1142 -0.2481
  560TIP3    H1 1633   6.920   0.194   0.943  0.6525  0.6990  1.9839
  560TIP3    H2 1634   6.945   0.343   0.942 -1.9791  1.1704  2.6801
  561TIP3   OH2 1635   5.091   6.265   2.053  0.2476 -0.2999  0.1819
  561TIP3    H1 1636   5.123   6.262   1.963  1.0280 -1.3654  0.4907
  561TIP3    H2 1637   5.016   6.325   2.050 -0.5534 -1.3712 -1.4203
  562TIP3   OH2 1638   3.181   6.996   2.049  0.1971 -0.1693  0.4687
  562TIP3    H1 1639   3.119   7.047   2.101  0.4563  1.1397 -0.4948
  562TIP3    H2 1640   3.152   6.905   2.060 -0.7316  0.2513  1.5659
  563TIP3   OH2 1641   5.616   1.490   1.966  0.1952  0.2042 -0.6867
  563TIP3    H1 1642   5.540   1.444   1.929 -0.1150  1.0191 -1.0751
  563TIP3    H2 1643   5.588   1.581   1.974  1.4346  0.6792 -1.6408
  564TIP3   OH2 1644   5.281   1.781   2.497  0.9382  0.0559 -0.4568
  564TIP3    H1 1645   5.202   1.835   2.506 -0.0244 -1.1933 -1.2104
  564TIP3    H2 1646   5.249   1.698   2.460  2.3503 -1.1151  0.8845
  565TIP3   OH2 1647   6.758   2.052   2.087 -0.5116 -0.1853 -0.5660
  565TIP3    H1 1648   6.809   2.120   2.043  1.2796 -0.3988  1.1047
  565TIP3    H2 1649   6.750   2.083   2.177 -1.5144 -1.1727 -0.3064
  566TIP3   OH2 1650   4.368   1.637   1.643 -0.1245 -0.0582  0.1416
  566TIP3    H1 1651   4.358   1.562   1.701  0.1046  0.8217  1.3407
  566TIP3    H2 1652   4.298   1.696   1.668  0.3410  0.5890 -0.0711
  567TIP3   OH2 1653   4.169   7.056   0.818 -0.0215  0.1659 -0.2805
  567TIP3    H1 1654   4.165   7.150   0.834 -0.3601  0.1464 -0.2357
  567TIP3    H2 1655   4.107   7.018   0.881 -0.3417 -0.0283 -0.7057
  568TIP3   OH2 1656   3.215   4.751   3.350  0.5674  0.3261  0.3661
  568TIP3    H1 1657   3.198   4.797   3.432  0.5532 -0.6483  0.9105
  568TIP3    H2 1658   3.310   4.749   3.343  0.5727  0.2259  0.4661
  569TIP3   OH2 1659   5.619   0.689   0.119  0.1146  0.5889  0.0433
  569TIP3    H1 1660   5.530   0.703   0.086  0.7400 -0.2081 -2.1034
  569TIP3    H2 1661   5.669   0.764   0.086  1.0167 -0.8331 -1.9327
  570TIP3   OH2 1662   5.041   1.514   1.880 -0.4655 -0.7136  0.0458
  570TIP3    H1 1663   5.099   1.573   1.831 -1.0189 -0.4271 -0.2685
  570TIP3    H2 1664   5.081   1.428   1.871  0.8336 -0.2575  1.2295
  571TIP3   OH2 1665   1.391   5.805   4.299 -0.2268 -0.1148 -0.1551
  571TIP3    H1 1666   1.458   5.781   4.236 -0.3922 -0.2903 -0.2660
  571TIP3    H2 1667   1.337   5.870   4.253 -1.5268 -1.7138 -0.9024
  572TIP3   OH2 1668   4.468   1.897   0.304  0.1255  0.0962  0.1493
  572TIP3    H1 1669   4.490   1.986   0.330  0.4272 -0.3166  1.3539
  572TIP3    H2 1670   4.378   1.902   0.275 -0.0200  0.7059  0.6954
  573TIP3   OH2 1671   5.869   1.332   1.944 -0.1837  0.6177  0.0614
  573TIP3    H1 1672   5.907   1.291   2.021  0.4566 -0.3149 -0.7407
  573TIP3    H2 1673   5.778   1.351   1.969  0.3716  1.5118  1.4676
  574TIP3   OH2 1674   6.933   1.621   1.525 -0.1316 -0.0877  0.0316
  574TIP3    H1 1675   7.024   1.599   1.507  0.6262 -0.8186  4.1730
  574TIP3    H2 1676   6.938   1.691   1.591 -2.5705  0.6371 -0.4988
  575TIP3   OH2 1677   2.096   2.745   1.315  0.2887  0.3634 -0.2524
  575TIP3    H1 1678   2.106   2.776   1.225 -1.2190  2.1699  0.1539
  575TIP3    H2 1679   2.118   2.822   1.368 -2.4463  0.4361  0.8219
  576TIP3   OH2 1680   7.510   2.537   6.249  0.2691 -0.2699 -0.5232
  576TIP3    H1 1681   7.499   2.480   6.173  0.9201  0.6682 -1.3203
  576TIP3    H2 1682   7.577   2.600   6.224 -1.3286  1.6645 -0.1322
  577TIP3   OH2 1683   1.078   5.221   5.045  0.1757 -0.3689 -0.0280
  577TIP3    H1 1684   1.157   5.214   4.991  0.5454 -0.6534  0.5538
  577TIP3    H2 1685   1.076   5.141   5.096  2.0673  1.6695  3.4101
  578TIP3   OH2 1686   1.158   3.781   5.360  0.0301  0.1101  0.4544
  578TIP3    H1 1687   1.207   3.846   5.411 -0.6345  0.0209  1.2259
  578TIP3    H2 1688   1.067   3.792   5.389 -0.4188  0.3020 -0.9838
  579TIP3   OH2 1689   1.809   0.517   5.920  0.0474  0.1897 -0.6465
  579TIP3    H1 1690   1.897   0.481   5.927  0.8097  1.7926 -1.6782
  579TIP3    H2 1691   1.762   0.455   5.864  0.7300 -0.2925 -0.6906
  580TIP3   OH2 1692   5.971   2.907   0.424 -0.0404  0.2105  0.4239
  580TIP3    H1 1693   5.895   2.962   0.407  0.2259  0.9700  1.6250
  580TIP3    H2 1694   6.044   2.955   0.385  0.2480  0.9054  1.7919
  581TIP3   OH2 1695   6.016   4.444   0.156 -0.2399  0.2330  0.1080
  581TIP3    H1 1696   5.974   4.361   0.133  0.4433 -0.1957  0.3782
  581TIP3    H2 1697   5.950   4.510   0.137 -1.3365 -0.4874  1.2979
  582TIP3   OH2 1698   6.858   5.889   4.778 -0.1256  0.0624 -0.0206
  582TIP3    H1 1699   6.783   5.942   4.749  0.3411  0.7563  0.0179
  582TIP3    H2 1700   6.931   5.951   4.782 -0.3279  0.1895  3.3533
  583TIP3   OH2 1701   7.587   2.442   0.147  0.0216  0.7946  0.3384
  583TIP3    H1 1702   7.635   2.521   0.121 -1.2613  1.2729 -0.6314
  583TIP3    H2 1703   7.499   2.456   0.113 -0.2636 -0.9929  0.3277
  584TIP3   OH2 1704   1.139   2.878   5.808 -0.5869  0.1486 -0.8610
  584TIP3    H1 1705   1.193   2.876   5.728  0.1800 -0.4485 -0.3400
  584TIP3    H2 1706   1.197   2.913   5.875 -0.7711 -0.7313 -0.2352
  585TIP3   OH2 1707   6.090   3.637   3.020  0.4494 -0.5302 -0.3010
  585TIP3    H1 1708   6.058   3.549   3.000 -1.2842 -0.0611  0.3345
  585TIP3    H2 1709   6.029   3.696   2.977  0.6750  0.3868  0.6014
  586TIP3   OH2 1710   5.065   1.906   2.219 -0.3134  0.0229 -0.1380
  586TIP3    H1 1711   5.094   1.912   2.310 -0.3848 -0.9289 -0.0547
  586TIP3    H2 1712   4.969   1.905   2.224 -0.3305  0.5374 -0.2642
  587TIP3   OH2 1713   6.462   7.469   5.503 -0.5702 -0.2269 -0.0068
  587TIP3    H1 1714   6.467   7.415   5.424  1.4889  0.0210 -0.0713
  587TIP3    H2 1715   6.417   7.413   5.567 -0.1073 -1.3327 -0.6261
  588TIP3   OH2 1716   3.971   6.206   2.900  0.0786 -0.5170 -0.4132
  588TIP3    H1 1717   3.880   6.217   2.872 -0.2495 -1.2623  0.3352
  588TIP3    H2 1718   3.984   6.276   2.965 -0.3220 -1.1200  0.3262
  589TIP3   OH2 1719   5.400   0.985   3.013  0.1059  0.4491  0.3562
  589TIP3    H1 1720   5.364   0.898   3.033 -0.7430  0.5183 -0.8581
  589TIP3    H2 1721   5.422   0.981   2.920  1.5027  1.0394  0.6447
  590TIP3   OH2 1722   7.484   2.513   3.409 -0.0591  0.4849 -0.1835
  590TIP3    H1 1723   7.449   2.530   3.322 -1.5780  1.0893  0.5197
  590TIP3    H2 1724   7.540   2.437   3.398 -0.2516  0.5439 -1.6854
  591TIP3   OH2 1725   5.487   2.078   1.089  0.1598 -0.3584 -0.0805
  591TIP3    H1 1726   5.527   2.159   1.057  0.5807  0.4096  2.2918
  591TIP3    H2 1727   5.535   2.057   1.168 -1.0702 -2.0200  0.2506
  592TIP3   OH2 1728   7.388   5.392   5.153 -0.2306 -0.6267 -0.3629
  592TIP3    H1 1729   7.417   5.428   5.069  0.8753 -0.4829  0.0706
  592TIP3    H2 1730   7.458   5.414   5.214 -1.3555 -0.1030  0.7733
  593TIP3   OH2 1731   7.283   0.656   1.206 -0.2642  0.1254  0.3522
  593TIP3    H1 1732   7.188   0.650   1.205 -0.2539 -0.1492  1.0632
  593TIP3    H2 1733   7.306   0.664   1.299  0.5551 -2.3599  0.3879
  594TIP3   OH2 1734   6.006   0.848   1.704  0.0993 -0.4148 -0.5093
  594TIP3    H1 1735   5.980   0.939   1.692  2.1332  0.0959 -1.2165
  594TIP3    H2 1736   5.943   0.813   1.768  0.4829  2.0112  1.2648
  595TIP3   OH2 1737   6.008   1.859   3.583  0.1672 -0.4723 -0.2743
  595TIP3    H1 1738   5.940   1.901   3.636  1.5105  0.6705  0.5767
  595TIP3    H2 1739   5.988   1.886   3.493  1.0871  2.2072  0.2644
  596TIP3   OH2 1740   7.712   2.138   2.827  0.0782  0.0874 -0.1078
  596TIP3    H1 1741   7.619   2.131   2.804 -0.0695 -0.1933  0.5520
  596TIP3    H2 1742   7.756   2.162   2.745 -0.8328  2.2274 -0.0084
  597TIP3   OH2 1743   7.714   4.534   0.606 -0.3645 -0.1427  0.3917
  597TIP3    H1 1744   7.743   4.613   0.560 -0.5308 -0.8392 -0.9113
  597TIP3    H2 1745   7.625   4.519   0.575  0.2709 -1.8098 -0.6633
  598TIP3   OH2 1746   1.674   6.919   5.612  0.3245  0.1989  0.1498
  598TIP3    H1 1747   1.757   6.871   5.601 -0.9213 -2.5853  2.2383
  598TIP3    H2 1748   1.691   7.006   5.575  3.2474 -1.2696 -2.1247
  599TIP3   OH2 1749   6.473   1.449   0.317  0.0985  0.3284 -0.1650
  599TIP3    H1 1750   6.398   1.497   0.284  0.2635  0.7588  0.0809
  599TIP3    H2 1751   6.482   1.478   0.408  0.5628  0.2800 -0.1932
  600TIP3   OH2 1752   6.614   4.164   0.264  0.2864 -0.3411 -0.4024
  600TIP3    H1 1753   6.552   4.235   0.283  1.3656  0.2083  1.2036
  600TIP3    H2 1754   6.610   4.107   0.341  2.1704  0.0069 -0.0243
  601TIP3   OH2 1755   0.749   3.587   6.230 -0.3932  0.2515  0.1900
  601TIP3    H1 1756   0.711   3.560   6.147 -0.7308  0.8221  0.1576
  601TIP3    H2 1757   0.839   3.613   6.208  0.3839 -2.0655  0.4288
  602TIP3   OH2 1758   0.091   0.649   1.555 -0.3049  0.7165  0.1035
  602TIP3    H1 1759   0.039   0.616   1.481 -0.4130  1.9755 -0.4103
  602TIP3    H2 1760   0.027   0.664   1.624 -0.0447 -1.5216  0.8424
  603TIP3   OH2 1761   3.303   6.635   0.431 -0.0976  0.2399  0.5350
  603TIP3    H1 1762   3.263   6.669   0.351 -0.1278  0.3465  0.5948
  603TIP3    H2 1763   3.253   6.676   0.502 -1.4802 -1.4834  0.6063
  604TIP3   OH2 1764   0.040   5.517   6.275 -0.1535 -0.5353 -0.5047
  604TIP3    H1 1765   0.131   5.496   6.254 -0.2931 -1.7322  0.0659
  604TIP3    H2 1766   0.047   5.581   6.347  0.2442  0.4267 -1.3757
  605TIP3   OH2 1767   6.739   2.108   0.971 -0.4299 -0.1901  0.0440
  605TIP3    H1 1768   6.644   2.100   0.976 -0.3676 -0.3843  1.0985
  605TIP3    H2 1769   6.770   2.066   1.051  0.4839  0.8984  0.2658
  606TIP3   OH2 1770   0.780   4.807   5.565  0.2601  0.4802 -0.3866
  606TIP3    H1 1771   0.849   4.873   5.563  0.2912  0.4602  0.0040
  606TIP3    H2 1772   0.801   4.747   5.493 -0.5706  1.7009 -1.6887
  607TIP3   OH2 1773   1.320   2.836   5.606  0.0657  0.1430  0.5472
  607TIP3    H1 1774   1.408   2.801   5.619 -0.3564 -1.2306 -0.2333
  607TIP3    H2 1775   1.326   2.888   5.526  0.0928 -0.2336  0.3024
  608TIP3   OH2 1776   5.557   1.110   0.650  1.0664  0.4427 -0.0540
  608TIP3    H1 1777   5.565   1.015   0.647 -0.0993  0.3313  0.0425
  608TIP3    H2 1778   5.629   1.142   0.595  2.3872 -0.4341  1.1128
  609TIP3   OH2 1779   4.454   6.989   0.094 -0.7581 -0.0653  0.8026
  609TIP3    H1 1780   4.427   7.077   0.119 -1.7472  0.1923 -1.0792
  609TIP3    H2 1781   4.387   6.932   0.132 -0.3262  0.0269  1.7002
  610TIP3   OH2 1782   5.047   1.979   1.717 -0.4069  0.0141 -0.1477
  610TIP3    H1 1783   5.068   2.055   1.771  1.6121  0.8190 -1.9837
  610TIP3    H2 1784   4.953   1.967   1.726 -0.6693  2.4799  0.4809
  611TIP3   OH2 1785   1.311   4.372   6.412  0.0719  0.1220  0.2968
  611TIP3    H1 1786   1.341   4.334   6.495 -1.0961 -2.7663 -0.5409
  611TIP3    H2 1787   1.224   4.406   6.431 -0.1787 -0.5031  0.2877
  612TIP3   OH2 1788   5.885   1.580   1.738  0.3573 -0.2346  0.1339
  612TIP3    H1 1789   5.919   1.663   1.772  1.8289 -1.0811  0.7793
  612TIP3    H2 1790   5.844   1.539   1.813  0.3129 -0.4340 -0.0006
  613TIP3   OH2 1791   5.306   3.963   2.268 -0.1805  0.2642  0.6197
  613TIP3    H1 1792   5.227   4.011   2.293 -0.2775  0.0852  0.6573
  613TIP3    H2 1793   5.296   3.949   2.174  0.1826  0.9331  0.4760
  614TIP3   OH2 1794   2.690   6.855   0.055 -0.3172 -0.0611  0.3649
  614TIP3    H1 1795   2.620   6.909   0.092 -1.6501  0.2923 -2.4752
  614TIP3    H2 1796   2.736   6.914  -0.006 -0.8983 -1.6977 -1.7278
  615TIP3   OH2 1797   2.722   4.485   0.222 -0.6814  0.4747 -0.5443
  615TIP3    H1 1798   2.709   4.405   0.171  0.3773 -0.3923  0.5190
  615TIP3    H2 1799   2.633   4.516   0.241 -1.0990 -0.3791 -1.0541
  616TIP3   OH2 1800   7.521   0.751   2.234  0.2796 -0.2542  0.0816
  616TIP3    H1 1801   7.606   0.730   2.196  0.5662  0.3711  0.3766
  616TIP3    H2 1802   7.534   0.743   2.328 -0.1395 -0.7133  0.1017
  617TIP3   OH2 1803   5.110   2.716   1.040  0.4202 -0.3201  0.1064
  617TIP3    H1 1804   5.085   2.701   0.949  1.8074 -0.1478 -0.3192
  617TIP3    H2 1805   5.031   2.749   1.082 -0.7297 -2.0775 -0.6088
  618TIP3   OH2 1806   4.490   2.118  -0.008 -0.5153  0.6021 -0.0908
  618TIP3    H1 1807   4.546   2.040  -0.011 -0.1745  0.8403  0.0952
  618TIP3    H2 1808   4.544   2.185   0.035 -0.8447  0.9098 -0.1568
  619TIP3   OH2 1809   1.015   5.013   5.208  0.7482 -0.4043  0.2175
  619TIP3    H1 1810   1.055   4.947   5.265  0.6385 -1.3012 -0.7384
  619TIP3    H2 1811   0.950   5.056   5.264  0.3743 -1.5363  0.6781
  620TIP3   OH2 1812   3.490  -0.007   6.140  0.3344 -0.2649  0.2949
  620TIP3    H1 1813   3.537   0.065   6.098  2.4061 -0.9514  1.3626
  620TIP3    H2 1814   3.423   0.036   6.193  0.2429  0.7711 -0.6424
  621TIP3   OH2 1815   5.797   2.830  -0.027  0.5405  0.7163 -0.4518
  621TIP3    H1 1816   5.721   2.853   0.028  0.2330  1.5345 -1.1990
  621TIP3    H2 1817   5.858   2.787   0.033 -1.1049 -1.2507 -0.1315
  622TIP3   OH2 1818   6.273   1.612   0.268 -0.2650  0.1274  0.2105
  622TIP3    H1 1819   6.207   1.563   0.217 -0.6295  0.5437  0.2783
  622TIP3    H2 1820   6.272   1.700   0.229 -1.3130  0.7589  1.6164
  623TIP3   OH2 1821   2.674   5.953   5.136  0.0363  1.7039  0.1762
  623TIP3    H1 1822   2.628   5.885   5.087 -0.9465  2.2951  0.2707
  623TIP3    H2 1823   2.628   5.957   5.220  0.2107  2.3566  0.2446
  624TIP3   OH2 1824   1.344   6.026   4.737  0.3564  0.7542  0.5358
  624TIP3    H1 1825   1.414   6.075   4.693  1.6327 -1.0185  0.5433
  624TIP3    H2 1826   1.373   6.019   4.828  0.5764 -0.7317  0.3496
  625TIP3   OH2 1827   2.336   1.330   1.592 -0.2093  0.4133  0.1444
  625TIP3    H1 1828   2.274   1.307   1.524 -0.1074 -0.2714  0.2848
  625TIP3    H2 1829   2.282   1.350   1.668 -0.2864  0.4528  0.0785
  626TIP3   OH2 1830   5.577   0.700   1.292  0.0737  0.1350 -0.1367
  626TIP3    H1 1831   5.579   0.738   1.380 -0.7500  0.6318 -0.3360
  626TIP3    H2 1832   5.578   0.775   1.233  0.4899 -0.1946 -0.5607
  627TIP3   OH2 1833   6.751   2.465   2.959  0.2781 -0.0102  0.2948
  627TIP3    H1 1834   6.690   2.421   3.018  0.2666  0.4596  0.6343
  627TIP3    H2 1835   6.787   2.395   2.905 -1.1513 -0.1976 -0.4373
  628TIP3   OH2 1836   1.386   3.713   6.404 -0.1967  0.1649  0.2578
  628TIP3    H1 1837   1.368   3.727   6.311  0.0044 -0.8954  0.0589
  628TIP3    H2 1838   1.389   3.801   6.441  2.2628  0.7462 -1.2026
  629TIP3   OH2 1839   4.704   1.902   2.000  0.0503 -0.0721  0.5110
  629TIP3    H1 1840   4.734   1.913   2.090  0.8509 -1.8212  0.4962
  629TIP3    H2 1841   4.752   1.825   1.969 -0.7509  0.0901 -1.1793
  630TIP3   OH2 1842   6.985   1.048   2.257  0.2094 -0.5032 -0.2082
  630TIP3    H1 1843   6.892   1.050   2.232 -0.6392  4.0681  2.6703
  630TIP3    H2 1844   6.993   0.973   2.315 -1.9677 -0.3698  0.3061
  631TIP3   OH2 1845   5.746   0.281   1.467 -0.1940  0.2905 -0.2748
  631TIP3    H1 1846   5.769   0.305   1.378  1.1976  0.4314  0.1014
  631TIP3    H2 1847   5.661   0.323   1.483 -1.4554 -1.4566 -2.2132
  632TIP3   OH2 1848   3.569   2.335   0.600 -0.2723 -0.0611 -0.5951
  632TIP3    H1 1849   3.559   2.311   0.508  0.5007 -3.5392  0.1381
  632TIP3    H2 1850   3.481   2.362   0.627 -0.6087  0.5243 -2.1966
  633TIP3   OH2 1851   5.904   5.103   0.937  0.6944 -0.5106 -0.5338
  633TIP3    H1 1852   5.889   5.168   0.868  1.7466  0.6492  0.3005
  633TIP3    H2 1853   5.816   5.075   0.963  0.1927  1.2636 -0.2676
  634TIP3   OH2 1854   2.502   1.778   0.798 -0.2252 -0.0972  0.4329
  634TIP3    H1 1855   2.568   1.837   0.832  0.4337 -0.5801  0.0122
  634TIP3    H2 1856   2.419   1.816   0.825  0.2545 -0.0581  1.8822
  635TIP3   OH2 1857   4.418   1.922   2.153  0.4766  0.2667  0.0055
  635TIP3    H1 1858   4.495   1.895   2.104  1.2931 -1.3361  2.0929
  635TIP3    H2 1859   4.360   1.846   2.150 -0.4462  0.9806 -0.4029
  636TIP3   OH2 1860   0.824   7.326   5.583 -0.8043 -0.1662 -0.3444
  636TIP3    H1 1861   0.829   7.350   5.675 -1.3857  1.1211 -0.6427
  636TIP3    H2 1862   0.910   7.348   5.547 -0.1022 -1.9435  0.1683
  637TIP3   OH2 1863   0.422   6.879   5.020  0.2241  1.2350 -0.2270
  637TIP3    H1 1864   0.482   6.876   5.094  0.9457  1.6948 -0.7885
  637TIP3    H2 1865   0.346   6.829   5.049  1.4717 -0.5993 -0.0294
  638TIP3   OH2 1866   5.299   4.017   1.457 -0.2106  0.2518 -0.3542
  638TIP3    H1 1867   5.366   3.959   1.421 -0.6928 -0.6491  0.1886
  638TIP3    H2 1868   5.341   4.056   1.533  0.3049  1.0504 -1.0322
  639TIP3   OH2 1869   4.305   7.120   2.100 -0.1833  0.4738 -0.6589
  639TIP3    H1 1870   4.260   7.127   2.015 -2.7562 -2.3111  0.3918
  639TIP3    H2 1871   4.246   7.161   2.162  0.3249 -0.1795  0.2644
  640TIP3   OH2 1872   7.512   1.697   0.952 -0.5352 -0.4562  0.1996
  640TIP3    H1 1873   7.466   1.645   1.018 -0.0204 -0.3424  0.6448
  640TIP3    H2 1874   7.552   1.631   0.895  0.7014 -0.5602  1.1676
  641TIP3   OH2 1875   7.752   6.242   5.169 -0.1174  0.8844  0.2600
  641TIP3    H1 1876   7.756   6.328   5.128 -1.1814  1.2537  0.8923
  641TIP3    H2 1877   7.776   6.258   5.260  1.1883  0.2531  0.0337
  642TIP3   OH2 1878   0.958   5.494   5.375  0.2580  0.1727 -0.3098
  642TIP3    H1 1879   0.983   5.577   5.417  1.5574 -0.9634  1.1785
  642TIP3    H2 1880   0.889   5.459   5.430  2.0546 -1.3861  0.9881
  643TIP3   OH2 1881   5.362   2.660   0.828  0.2086  0.2060  0.1237
  643TIP3    H1 1882   5.451   2.678   0.800 -0.1011 -0.0446 -1.0224
  643TIP3    H2 1883   5.313   2.739   0.806 -0.2930 -0.4540 -1.2036
  644TIP3   OH2 1884   1.035   6.763   5.097 -0.1676  0.3342 -0.1943
  644TIP3    H1 1885   1.117   6.773   5.145 -0.1857  1.7966 -0.4364
  644TIP3    H2 1886   1.057   6.706   5.023  0.3317 -0.2998  0.4438
  645TIP3   OH2 1887   7.503   5.291   5.684  0.6184 -0.3683  0.1482
  645TIP3    H1 1888   7.439   5.220   5.685 -0.9627  1.0343  1.3943
  645TIP3    H2 1889   7.485   5.338   5.602 -0.8741  0.8095  1.1229
  646TIP3   OH2 1890   0.071   6.210   4.882  0.9056  0.0178  0.0595
  646TIP3    H1 1891   0.063   6.298   4.918  0.7479 -0.3034  0.8111
  646TIP3    H2 1892   0.076   6.153   4.959  1.6221 -0.5693 -0.4169
  647TIP3   OH2 1893   0.492   7.335   6.392  0.1971 -0.1198  0.3720
  647TIP3    H1 1894   0.406   7.307   6.359  0.6916 -0.5931 -0.5638
  647TIP3    H2 1895   0.554   7.290   6.335  1.0722 -0.0152  1.2338
  648TIP3   OH2 1896   1.728   0.253   5.717  0.1242  0.4689  0.0713
  648TIP3    H1 1897   1.813   0.211   5.716  0.4698  1.1837 -2.2245
  648TIP3    H2 1898   1.721   0.297   5.633 -2.0056  1.4497  0.7116
  649TIP3   OH2 1899   5.244   1.576   1.330 -0.2555 -0.3696 -0.0989
  649TIP3    H1 1900   5.248   1.658   1.379 -1.9458  0.6884 -1.6538
  649TIP3    H2 1901   5.283   1.597   1.245  1.1015 -1.7276  0.1618
  650TIP3   OH2 1902   5.830   0.476   2.055  0.1085 -0.1825  0.3282
  650TIP3    H1 1903   5.751   0.504   2.101 -0.7301 -0.8748 -0.6710
  650TIP3    H2 1904   5.808   0.390   2.019  0.6243  0.4807 -1.6386
  651TIP3   OH2 1905   4.473   2.830   2.758  0.3934  0.1563  0.3566
  651TIP3    H1 1906   4.449   2.886   2.685 -0.7115  0.0322  0.6236
  651TIP3    H2 1907   4.547   2.875   2.800 -0.7742  1.6441  0.8427
  652TIP3   OH2 1908   1.072   6.536   5.372  0.1741  0.2190  0.0862
  652TIP3    H1 1909   1.146   6.589   5.340  0.5606 -0.2176  0.2570
  652TIP3    H2 1910   1.030   6.504   5.292  1.0064 -0.6866  0.0081
  653TIP3   OH2 1911   7.761   1.185   1.218 -0.0463 -0.1122 -0.0446
  653TIP3    H1 1912   7.856   1.202   1.217 -0.2245  0.9076 -0.7461
  653TIP3    H2 1913   7.742   1.150   1.131 -0.0178 -2.0831  0.7300
  654TIP3   OH2 1914   4.078   0.397   5.050 -0.2000 -0.3796 -0.7058
  654TIP3    H1 1915   4.008   0.337   5.074 -1.2517  0.7837 -0.8068
  654TIP3    H2 1916   4.051   0.432   4.965  0.3997  0.2423 -0.6444
  655TIP3   OH2 1917   1.784   6.944   6.410 -0.4545  0.1302  0.1059
  655TIP3    H1 1918   1.770   6.851   6.392 -0.2875  0.2588 -0.6995
  655TIP3    H2 1919   1.791   6.949   6.505  0.2308 -0.7804  0.1164
  656TIP3   OH2 1920   0.340   3.556   2.604  0.0631  0.3260 -0.4592
  656TIP3    H1 1921   0.298   3.508   2.533  0.3950  1.9454 -1.7853
  656TIP3    H2 1922   0.402   3.494   2.642 -1.2550 -1.0603 -0.5395
  657TIP3   OH2 1923   7.388   2.920   1.262  0.5898 -0.0140 -0.4969
  657TIP3    H1 1924   7.299   2.955   1.274  1.3921  1.1709  2.2493
  657TIP3    H2 1925   7.387   2.885   1.172 -3.1153 -1.4376 -0.0367
  658TIP3   OH2 1926   7.668   5.613   4.630 -0.4881 -0.4657 -0.1440
  658TIP3    H1 1927   7.601   5.679   4.648  0.3837  0.3421  0.1937
  658TIP3    H2 1928   7.656   5.590   4.538 -1.3274 -0.4363 -0.0433
  659TIP3   OH2 1929   0.229   5.173   6.068 -0.0936 -0.8870  0.2629
  659TIP3    H1 1930   0.195   5.180   5.978  0.1769 -1.4076  0.1188
  659TIP3    H2 1931   0.154   5.142   6.119 -0.4350  0.0464  0.3436
  660TIP3   OH2 1932   7.422   2.897   0.940  0.1424 -0.3669  0.5266
  660TIP3    H1 1933   7.370   2.924   0.864  0.0005 -1.7089  0.1220
  660TIP3    H2 1934   7.487   2.966   0.951  1.0080 -0.7953 -1.6383
  661TIP3   OH2 1935   7.460   2.019   0.569  0.3636  0.0172  0.4331
  661TIP3    H1 1936   7.374   1.979   0.551  0.4609  0.2544 -0.6197
  661TIP3    H2 1937   7.493   2.043   0.482  0.4972  1.9764  1.0032
  662TIP3   OH2 1938   2.455   6.271   5.862 -0.1492  0.3683  0.0589
  662TIP3    H1 1939   2.457   6.262   5.957 -1.5127  1.1380  0.1763
  662TIP3    H2 1940   2.362   6.272   5.839  0.1586  0.2777 -1.2722
  663TIP3   OH2 1941   5.643   2.588   0.833 -0.2055 -0.2258 -0.0907
  663TIP3    H1 1942   5.737   2.591   0.846 -0.1511 -0.2764 -0.4446
  663TIP3    H2 1943   5.621   2.495   0.839 -0.0870 -0.3161 -0.9513
  664TIP3   OH2 1944   0.099   4.608   0.274 -0.0830  0.3026 -0.3201
  664TIP3    H1 1945   0.006   4.621   0.292  0.0094 -0.1832  0.5141
  664TIP3    H2 1946   0.101   4.565   0.188 -0.6005  0.8858 -0.6223
  665TIP3   OH2 1947   5.735   1.465   1.243  0.1502  0.0519  0.0088
  665TIP3    H1 1948   5.694   1.382   1.221  0.3076 -0.2746  0.8901
  665TIP3    H2 1949   5.763   1.454   1.334  0.2977  1.0196  0.0873
  666TIP3   OH2 1950   6.011   2.858   1.311  0.2480 -0.1901 -0.1620
  666TIP3    H1 1951   5.926   2.855   1.356 -0.2208 -0.8574 -1.0787
  666TIP3    H2 1952   6.027   2.768   1.284  1.2400 -0.0634 -0.0217
  667TIP3   OH2 1953   1.091   1.062   2.791  0.1037 -0.2642  0.1332
  667TIP3    H1 1954   1.005   1.048   2.831 -0.0959 -0.2461 -0.2773
  667TIP3    H2 1955   1.144   1.100   2.860 -0.4287  0.3922  0.1924
  668TIP3   OH2 1956   2.246   5.891   6.047 -0.3658  0.3359 -0.5711
  668TIP3    H1 1957   2.223   5.804   6.014 -0.2656  1.2545 -3.1991
  668TIP3    H2 1958   2.167   5.942   6.037 -0.2542  0.7146  0.4307
  669TIP3   OH2 1959   4.240   1.565   6.448  0.0430  0.2602 -0.0522
  669TIP3    H1 1960   4.277   1.507   6.382  0.1539  0.3455 -0.0647
  669TIP3    H2 1961   4.269   1.653   6.423  0.2080  0.2766  0.1928
  670TIP3   OH2 1962   6.632   3.471   1.001  0.0398 -0.4028 -0.0282
  670TIP3    H1 1963   6.696   3.482   0.931  1.7682  0.6212  1.6423
  670TIP3    H2 1964   6.618   3.560   1.034 -1.1097 -0.8142  0.6050
  671TIP3   OH2 1965   5.227   4.745   3.187  0.0783  0.4708 -0.1074
  671TIP3    H1 1966   5.143   4.774   3.224  0.4140 -1.2458  2.1177
  671TIP3    H2 1967   5.207   4.720   3.097 -1.6906  0.5702  0.2505
  672TIP3   OH2 1968   7.032   0.488   1.778  0.1451  0.0180  0.5306
  672TIP3    H1 1969   7.049   0.495   1.872  1.6362 -0.9536  0.3420
  672TIP3    H2 1970   7.103   0.434   1.745 -1.1815 -0.8611 -0.9263
  673TIP3   OH2 1971   3.442   2.200   1.225 -1.1286 -0.4122 -0.4955
  673TIP3    H1 1972   3.427   2.279   1.278 -1.1288 -0.9160  0.2631
  673TIP3    H2 1973   3.503   2.228   1.157 -1.3054  0.3006 -0.3640
  674TIP3   OH2 1974   7.549   4.686   1.967 -0.1272  0.3980  0.7032
  674TIP3    H1 1975   7.495   4.626   1.915 -0.2260  0.8103  0.3210
  674TIP3    H2 1976   7.607   4.727   1.903 -0.4774  1.1594  0.8604
  675TIP3   OH2 1977   7.407   3.524   1.296  0.2457  0.1807  0.2281
  675TIP3    H1 1978   7.416   3.443   1.347  0.9145 -0.1715 -0.4418
  675TIP3    H2 1979   7.444   3.591   1.353  2.2314 -0.4210 -0.3177
  676TIP3   OH2 1980   0.836   3.674   0.195  0.2185 -0.0937  0.0417
  676TIP3    H1 1981   0.896   3.640   0.128  0.1546 -1.1268  0.4899
  676TIP3    H2 1982   0.755   3.693   0.147  0.6480  0.5683 -0.4287
  677TIP3   OH2 1983   1.163   4.608   1.304  0.5438  0.5115  0.4581
  677TIP3    H1 1984   1.185   4.614   1.397  0.5964 -0.8381  0.5411
  677TIP3    H2 1985   1.133   4.518   1.292  0.7785  0.6014 -0.8850
  678TIP3   OH2 1986   7.697   3.803   1.442 -0.1569 -0.2373  0.0720
  678TIP3    H1 1987   7.687   3.736   1.375  1.9260 -0.9740  0.4732
  678TIP3    H2 1988   7.734   3.878   1.397  0.2382 -0.3568  0.2017
  679TIP3   OH2 1989   0.711   3.554   1.279 -0.0914  0.2938  0.3570
  679TIP3    H1 1990   0.797   3.595   1.268  0.3623 -0.5545  0.7054
  679TIP3    H2 1991   0.725   3.462   1.258 -0.3885 -0.3098  2.6446
  680TIP3   OH2 1992   6.092   1.194   6.331  0.1692 -0.8295  0.2863
  680TIP3    H1 1993   6.152   1.231   6.266 -2.5063  1.3166 -1.1140
  680TIP3    H2 1994   6.073   1.267   6.390 -2.7455 -0.7277 -0.6589
  681TIP3   OH2 1995   7.816   4.368   0.361  0.1227 -0.2178  0.2511
  681TIP3    H1 1996   7.781   4.455   0.379 -2.4760 -1.6326  2.2931
  681TIP3    H2 1997   7.795   4.353   0.268 -2.0086  0.2216  0.6287
  682TIP3   OH2 1998   1.228   3.475   2.598 -0.1001  0.3670  0.0174
  682TIP3    H1 1999   1.207   3.562   2.564  0.0662  0.8829  1.2351
  682TIP3    H2 2000   1.282   3.492   2.675 -1.3931 -0.7693  1.2004
  683TIP3   OH2 2001   0.762   4.129   1.600 -0.0320 -0.2572 -1.0282
  683TIP3    H1 2002   0.751   4.053   1.543  1.3356 -0.7387 -0.6741
  683TIP3    H2 2003   0.830   4.181   1.557  0.9802 -0.6064  0.1244
  684TIP3   OH2 2004   1.931   2.121   3.341  0.2032 -0.4312  0.4972
  684TIP3    H1 2005   1.840   2.129   3.314  0.7611  0.6065 -1.1587
  684TIP3    H2 2006   1.965   2.210   3.338  1.8712 -1.0984 -1.1151
  685TIP3   OH2 2007   3.232   7.136   5.081 -0.4579 -0.2493  0.6909
  685TIP3    H1 2008   3.263   7.226   5.096  1.8466 -1.1704  1.6015
  685TIP3    H2 2009   3.150   7.148   5.033  0.5512  2.3246 -0.5309
  686TIP3   OH2 2010   2.150   1.566   1.520 -0.2666 -0.1493  0.3341
  686TIP3    H1 2011   2.199   1.607   1.448  2.0112 -0.8417  1.4421
  686TIP3    H2 2012   2.149   1.632   1.589  0.9194 -0.8755  1.0652
  687TIP3   OH2 2013   7.735   4.523   1.098 -0.1499 -0.5647 -0.2559
  687TIP3    H1 2014   7.823   4.496   1.123  0.1857  1.6424  1.0887
  687TIP3    H2 2015   7.686   4.528   1.181 -1.5872 -1.8920 -0.9929
  688TIP3   OH2 2016   7.383   5.187   1.720  0.0229 -0.1570  0.0210
  688TIP3    H1 2017   7.327   5.175   1.643 -0.5076 -1.4913  0.5847
  688TIP3    H2 2018   7.331   5.241   1.779 -0.8990 -1.7399  0.7194
  689TIP3   OH2 2019   0.350   5.570   3.534  0.1704 -0.1058 -0.4387
  689TIP3    H1 2020   0.353   5.592   3.627 -1.7327 -0.7546 -0.2106
  689TIP3    H2 2021   0.393   5.644   3.491  0.0066  0.7613  0.8606
  690TIP3   OH2 2022   0.454   3.533   2.331 -0.4254  0.5038 -0.1244
  690TIP3    H1 2023   0.484   3.622   2.317  2.2514 -0.1608  1.0298
  690TIP3    H2 2024   0.447   3.525   2.426  2.4215 -1.4302 -0.0305
  691TIP3   OH2 2025   0.957   4.320   0.604  0.0595  0.2906  0.0111
  691TIP3    H1 2026   0.963   4.292   0.695 -1.3545  0.2390  0.0974
  691TIP3    H2 2027   0.891   4.390   0.604 -1.6556 -1.2758 -1.2977
  692TIP3   OH2 2028   1.400   3.840   1.829  0.0898 -0.0103  0.0237
  692TIP3    H1 2029   1.318   3.862   1.785 -0.2327 -1.7338 -0.2408
  692TIP3    H2 2030   1.385   3.754   1.868  1.2740  0.3163  1.2330
  693TIP3   OH2 2031   0.487   4.123   3.122  0.7267  0.4302 -0.5576
  693TIP3    H1 2032   0.512   4.215   3.123  0.1954  0.5711  0.8697
  693TIP3    H2 2033   0.568   4.076   3.104  1.3602  1.0607  0.6418
  694TIP3   OH2 2034   0.572   2.713   1.515 -0.3499  0.1385  0.5593
  694TIP3    H1 2035   0.632   2.642   1.537 -0.0010 -0.1074 -1.0801
  694TIP3    H2 2036   0.588   2.729   1.422 -0.1310  2.6301  0.9904
  695TIP3   OH2 2037   7.687   5.497   2.320 -0.2173 -0.2594  0.0746
  695TIP3    H1 2038   7.699   5.442   2.242  3.5605  0.3594  0.1522
  695TIP3    H2 2039   7.707   5.586   2.290 -0.5226  0.2407  1.3363
  696TIP3   OH2 2040   0.293   1.903   2.644  0.3659  0.2004 -0.0558
  696TIP3    H1 2041   0.263   1.813   2.654  0.8051  0.2923  2.4176
  696TIP3    H2 2042   0.212   1.954   2.637  0.1229 -0.4504 -2.6961
  697TIP3   OH2 2043   1.115   3.604   1.600  0.0060  0.5822 -0.2074
  697TIP3    H1 2044   1.210   3.600   1.611 -0.1423 -1.4800  0.5893
  697TIP3    H2 2045   1.088   3.684   1.646  1.1677  0.2906  1.0075
  698TIP3   OH2 2046   2.399   6.190   6.137  0.4818 -0.1349  0.0297
  698TIP3    H1 2047   2.342   6.149   6.202  1.2224 -1.0032  0.1364
  698TIP3    H2 2048   2.404   6.282   6.165  0.0634 -0.3019  0.6711
  699TIP3   OH2 2049   0.753   4.131   2.593 -0.3849  0.2651 -0.8113
  699TIP3    H1 2050   0.690   4.101   2.659 -0.0960  0.8016 -0.2771
  699TIP3    H2 2051   0.705   4.129   2.510 -1.0335  0.4332 -0.4477
  700TIP3   OH2 2052   1.475   3.536   1.959 -0.0340  0.0241 -0.9062
  700TIP3    H1 2053   1.566   3.510   1.943 -0.0076 -0.5437  0.1156
  700TIP3    H2 2054   1.471   3.550   2.054 -1.2268 -0.8038 -0.8259
  701TIP3   OH2 2055   0.076   4.270   2.449  0.0687  0.9195  0.7054
  701TIP3    H1 2056   0.015   4.254   2.377  0.3931  0.9165  0.4280
  701TIP3    H2 2057   0.063   4.362   2.471 -0.0068  0.9299  0.6156
  702TIP3   OH2 2058   7.601   5.177   0.337  0.4075 -0.3867  0.5017
  702TIP3    H1 2059   7.637   5.186   0.249  0.7385 -0.7011  0.6047
  702TIP3    H2 2060   7.616   5.262   0.378  0.2818 -0.2500  0.2676
  703TIP3   OH2 2061   6.811   4.952   1.470  0.2248  0.2327  0.5346
  703TIP3    H1 2062   6.864   4.877   1.444  0.7075  0.3496  1.1790
  703TIP3    H2 2063   6.872   5.026   1.468  0.1965  0.2947  1.7046
  704TIP3   OH2 2064   0.621   3.021   1.705 -0.1667 -0.5307  0.1662
  704TIP3    H1 2065   0.569   2.980   1.636 -0.6244 -0.6663  0.5864
  704TIP3    H2 2066   0.600   2.971   1.784  0.7850 -0.7287  0.2896
  705TIP3   OH2 2067   1.580   5.260   2.771  0.1651 -0.5144  0.3873
  705TIP3    H1 2068   1.668   5.292   2.748  0.1202 -2.1963 -2.3299
  705TIP3    H2 2069   1.520   5.323   2.731  0.0830  0.6174  2.2175
  706TIP3   OH2 2070   5.320   0.544   6.000 -0.1618 -0.0801  0.4057
  706TIP3    H1 2071   5.306   0.478   5.932 -0.9811  0.2055  0.2872
  706TIP3    H2 2072   5.387   0.506   6.057  0.5101 -0.3366 -0.5401
  707TIP3   OH2 2073   1.349   4.960   2.649  0.0345  0.0251  0.0940
  707TIP3    H1 2074   1.386   4.956   2.561  0.3241 -0.9903  0.2551
  707TIP3    H2 2075   1.258   4.987   2.636  0.3181  0.7170 -0.4459
  708TIP3   OH2 2076   0.175   1.093   2.933  0.3124 -1.0130  0.4746
  708TIP3    H1 2077   0.268   1.107   2.912 -0.5078  0.4161 -2.3654
  708TIP3    H2 2078   0.164   0.998   2.928  1.7061 -1.2494  1.3510
  709TIP3   OH2 2079   0.159   3.425   2.440  0.0790  0.1720 -0.4057
  709TIP3    H1 2080   0.087   3.388   2.389 -0.8249  2.0331 -0.5236
  709TIP3    H2 2081   0.220   3.353   2.451 -1.3315 -1.1693 -1.1794
  710TIP3   OH2 2082   7.588   3.468   2.049  0.2589 -0.2289 -0.1436
  710TIP3    H1 2083   7.586   3.384   2.095  0.1243 -0.1282  0.0318
  710TIP3    H2 2084   7.502   3.475   2.008  0.2900 -0.2042 -0.2053
  711TIP3   OH2 2085   1.809   5.326   0.856  0.2045 -0.8805 -0.2212
  711TIP3    H1 2086   1.778   5.291   0.773 -2.1450  2.2373 -0.7299
  711TIP3    H2 2087   1.864   5.400   0.832 -1.2212  0.6024  0.9814
  712TIP3   OH2 2088   3.081   2.845   2.149  0.4420 -0.6170 -0.0781
  712TIP3    H1 2089   3.176   2.846   2.166  0.3482 -1.3037  0.5152
  712TIP3    H2 2090   3.053   2.758   2.178 -0.1963 -0.8064 -1.2324
  713TIP3   OH2 2091   7.016   3.991   1.467  0.5223  0.2898 -0.5844
  713TIP3    H1 2092   7.026   3.897   1.457  0.9777  0.1699  0.9341
  713TIP3    H2 2093   6.938   4.012   1.417  1.3685 -0.6266 -2.3537
  714TIP3   OH2 2094   0.602   4.731   4.127  0.5219 -0.2950  0.2228
  714TIP3    H1 2095   0.549   4.668   4.176 -1.3566  0.4529 -0.8048
  714TIP3    H2 2096   0.585   4.815   4.170 -0.7608  0.2892 -1.3770
  715TIP3   OH2 2097   0.739   5.357   2.517  0.6878  0.0404 -0.3587
  715TIP3    H1 2098   0.690   5.422   2.468  1.4257 -0.2803 -1.5283
  715TIP3    H2 2099   0.818   5.341   2.465  0.7162 -1.4745  0.1215
  716TIP3   OH2 2100   2.485   7.048   5.463 -0.4917 -0.4636  0.0014
  716TIP3    H1 2101   2.558   6.992   5.437  0.3086  0.4567  0.2749
  716TIP3    H2 2102   2.440   7.068   5.380  0.2282 -0.1019 -0.3042
  717TIP3   OH2 2103   0.262   5.197   1.154  0.1115 -0.2004  0.3869
  717TIP3    H1 2104   0.233   5.233   1.237 -1.2126 -0.8782  0.2241
  717TIP3    H2 2105   0.302   5.112   1.178  1.8753  0.6552  0.5915
  718TIP3   OH2 2106   0.510   0.920   1.621 -0.2000  0.0287 -0.2719
  718TIP3    H1 2107   0.493   1.012   1.603  1.4129  0.4286  0.1473
  718TIP3    H2 2108   0.446   0.872   1.568 -0.3190  1.3470 -1.3254
  719TIP3   OH2 2109   1.418   3.257   0.900  0.7059  0.4806  0.0958
  719TIP3    H1 2110   1.408   3.318   0.973  0.2232 -0.9018  1.2127
  719TIP3    H2 2111   1.512   3.254   0.883  1.1156 -1.1934  2.4387
  720TIP3   OH2 2112   2.388   2.709   2.630 -0.1785  0.0414  0.6156
  720TIP3    H1 2113   2.429   2.645   2.688 -1.2996 -0.2897  1.0559
  720TIP3    H2 2114   2.455   2.728   2.563  0.5348 -0.7767  1.0947
  721TIP3   OH2 2115   3.197   0.584   3.270  0.1787  0.0717 -0.4986
  721TIP3    H1 2116   3.222   0.500   3.310  0.6780 -0.6433 -2.2730
  721TIP3    H2 2117   3.245   0.587   3.188 -0.3057  1.8416 -0.7329
  722TIP3   OH2 2118   0.467   3.552   0.918  0.3327  0.0213 -0.1416
  722TIP3    H1 2119   0.456   3.531   1.010 -0.4296  1.8864  0.2197
  722TIP3    H2 2120   0.551   3.598   0.913  0.8997 -1.0267 -0.5688
  723TIP3   OH2 2121   1.274   6.021   2.443 -0.6308 -0.0351  0.3816
  723TIP3    H1 2122   1.342   6.045   2.380 -1.2542 -3.5497 -1.7802
  723TIP3    H2 2123   1.207   6.088   2.433  0.6411  1.1347 -0.4888
  724TIP3   OH2 2124   7.531   4.051   1.932 -0.1139 -0.1000 -0.0300
  724TIP3    H1 2125   7.472   4.127   1.926 -1.8628 -1.4986 -1.0349
  724TIP3    H2 2126   7.598   4.069   1.866 -1.1078  0.1076 -1.0139
  725TIP3   OH2 2127   7.668   3.778   0.671  0.3058  0.2158  0.1780
  725TIP3    H1 2128   7.650   3.761   0.579  1.4184  0.8596 -0.1598
  725TIP3    H2 2129   7.667   3.873   0.679  0.4007  0.1693  0.7922
  726TIP3   OH2 2130   7.163   4.250   1.059  0.0308 -0.6136 -0.3965
  726TIP3    H1 2131   7.185   4.244   1.152 -0.0636  1.2691 -0.2205
  726TIP3    H2 2132   7.247   4.247   1.014  0.0618 -1.7654 -0.2745
  727TIP3   OH2 2133   7.821   3.900   2.523 -0.2630  0.1585 -0.1188
  727TIP3    H1 2134   7.829   3.869   2.613 -0.0811 -0.6734 -0.4102
  727TIP3    H2 2135   7.746   3.959   2.523  0.7667  1.4887  0.9313
  728TIP3   OH2 2136   2.590   3.223   3.825 -0.0103  0.0142  0.2224
  728TIP3    H1 2137   2.529   3.172   3.879 -0.5129 -1.0297 -1.2956
  728TIP3    H2 2138   2.533   3.274   3.767  0.5212  1.1975  0.7353
  729TIP3   OH2 2139   0.988   0.506   2.535  0.6642 -0.2097 -0.3087
  729TIP3    H1 2140   0.981   0.592   2.576 -0.4941 -0.7927  0.7301
  729TIP3    H2 2141   0.925   0.508   2.463 -0.3847 -0.6720  0.5865
  730TIP3   OH2 2142   0.978   3.965   2.505  0.2957 -0.2857 -0.1796
  730TIP3    H1 2143   0.916   4.004   2.566  0.3011  0.1997 -0.4741
  730TIP3    H2 2144   0.983   4.028   2.433  0.5223 -0.7026 -0.5324
  731TIP3   OH2 2145   4.616   3.306   1.110 -0.6099 -0.1268 -0.4207
  731TIP3    H1 2146   4.705   3.328   1.139 -0.4625 -1.1961 -0.0365
  731TIP3    H2 2147   4.629   3.256   1.029 -0.7969 -1.1442  0.1609
  732TIP3   OH2 2148   2.661   2.548   0.763  0.1723 -0.4409 -0.0758
  732TIP3    H1 2149   2.572   2.537   0.796  0.1969 -0.9499 -0.1638
  732TIP3    H2 2150   2.655   2.620   0.700 -0.1185 -0.2812  0.1374
  733TIP3   OH2 2151   2.920   1.822   1.296  0.1798 -0.0642 -0.3078
  733TIP3    H1 2152   2.985   1.850   1.360  0.7538  0.5106 -1.1328
  733TIP3    H2 2153   2.949   1.862   1.214 -1.2547  0.2855 -0.6611
  734TIP3   OH2 2154   6.653   0.784   6.108 -0.6073  0.0893 -0.0419
  734TIP3    H1 2155   6.599   0.805   6.183 -0.5029  1.9855 -0.4854
  734TIP3    H2 2156   6.712   0.859   6.098  0.7360 -1.0277 -0.7962
  735TIP3   OH2 2157   2.054   1.245   0.068  0.5572 -0.0440  0.2435
  735TIP3    H1 2158   2.074   1.323   0.121  1.9020 -0.8422  0.9455
  735TIP3    H2 2159   2.014   1.280  -0.012  2.2790  1.4564  0.0037
  736TIP3   OH2 2160   5.366   2.399   1.297 -0.1753  0.1902  0.5812
  736TIP3    H1 2161   5.421   2.456   1.242  0.5827  0.6395  1.7971
  736TIP3    H2 2162   5.278   2.408   1.259  0.4560 -0.0313 -0.9795
  737TIP3   OH2 2163   7.380   2.707   6.434  0.9256  0.6083 -0.1482
  737TIP3    H1 2164   7.433   2.640   6.389  1.2222  0.4220  0.4744
  737TIP3    H2 2165   7.351   2.664   6.514  0.3995  0.9442 -0.1608
  738TIP3   OH2 2166   0.375   4.034   0.173  0.1838  0.2694 -0.3065
  738TIP3    H1 2167   0.462   4.009   0.143  0.8144  0.0347  1.6075
  738TIP3    H2 2168   0.341   4.091   0.105  2.3717  1.4222 -0.4905
  739TIP3   OH2 2169   6.969   0.541   5.853  0.1450 -0.1437  0.3875
  739TIP3    H1 2170   7.028   0.615   5.861  0.2717 -0.2229  0.1929
  739TIP3    H2 2171   6.883   0.577   5.873  0.1333  0.1724 -0.2231
  740TIP3   OH2 2172   1.631   3.198   2.334  0.2218 -0.2174 -0.1260
  740TIP3    H1 2173   1.727   3.198   2.339  0.3019 -2.1833 -0.9145
  740TIP3    H2 2174   1.610   3.269   2.274  1.3532 -1.3603 -1.9496
  741TIP3   OH2 2175   6.662   0.109   5.442 -0.2175 -0.2538 -0.4668
  741TIP3    H1 2176   6.581   0.149   5.410  0.3027  1.2263  0.0604
  741TIP3    H2 2177   6.701   0.175   5.499  1.0363 -1.2162 -0.1840
  742TIP3   OH2 2178   1.562   0.023   6.402  0.1192 -0.1971 -0.0411
  742TIP3    H1 2179   1.649   0.055   6.380 -0.3310  0.4993 -0.8024
  742TIP3    H2 2180   1.504   0.096   6.383 -0.7403 -0.9725 -0.4092
  743TIP3   OH2 2181   2.819   5.962   6.437  0.3100 -0.3622 -0.9107
  743TIP3    H1 2182   2.907   5.969   6.398 -0.3590  1.8728 -2.1372
  743TIP3    H2 2183   2.764   6.016   6.381 -1.5285 -0.3821  0.8129
  744TIP3   OH2 2184   0.663   5.130   0.355  0.4125  0.8733 -0.2783
  744TIP3    H1 2185   0.654   5.221   0.329  0.7478  1.6656  2.2854
  744TIP3    H2 2186   0.694   5.133   0.445 -0.4085 -1.7717  0.1434
  745TIP3   OH2 2187   1.794   1.889   2.877 -0.3480 -0.3980  0.6876
  745TIP3    H1 2188   1.885   1.910   2.855 -0.4588 -0.7516 -0.1487
  745TIP3    H2 2189   1.745   1.966   2.848 -0.4754 -0.7979 -0.1862
  746TIP3   OH2 2190   0.051   3.133   1.473 -0.3386 -0.1578  0.0513
  746TIP3    H1 2191   0.112   3.206   1.469  0.2864 -0.7487 -2.1716
  746TIP3    H2 2192  -0.027   3.164   1.427 -0.6838 -0.3353  0.5108
  747TIP3   OH2 2193   6.177   2.209   0.576 -0.0207  0.1169  0.0005
  747TIP3    H1 2194   6.272   2.209   0.588 -0.0252  1.4420  0.2017
  747TIP3    H2 2195   6.164   2.184   0.485  0.5403  0.1403 -0.0918
  748TIP3   OH2 2196   0.269   5.712   2.314  0.2017 -0.2088 -0.0309
  748TIP3    H1 2197   0.352   5.705   2.360  1.0881 -1.3269 -1.7543
  748TIP3    H2 2198   0.208   5.659   2.366  0.4898  0.7400  1.3180
  749TIP3   OH2 2199   2.640   2.165   2.538  0.2855 -0.2737 -0.2217
  749TIP3    H1 2200   2.632   2.069   2.542 -1.1149 -0.1518  0.0271
  749TIP3    H2 2201   2.712   2.185   2.598  0.3907 -1.1565 -0.0448
  750TIP3   OH2 2202   3.357   6.355   5.685  0.1137  0.0856  0.0042
  750TIP3    H1 2203   3.403   6.299   5.748 -0.3164 -1.4249 -0.9826
  750TIP3    H2 2204   3.427   6.390   5.630  0.3517  0.1468  0.3431
  751TIP3   OH2 2205   0.219   3.450   0.805 -0.1170 -0.2896 -0.5326
  751TIP3    H1 2206   0.293   3.499   0.842  0.4115 -0.6343 -1.1080
  751TIP3    H2 2207   0.152   3.516   0.790  0.4867  0.2174 -1.0361
  752TIP3   OH2 2208   1.674   1.521   2.124 -0.3256 -0.0088 -0.2615
  752TIP3    H1 2209   1.684   1.455   2.056 -0.4147  0.8564 -1.1217
  752TIP3    H2 2210   1.637   1.597   2.079  1.2859  1.1928  0.3791
  753TIP3   OH2 2211   2.406   2.243   4.834  0.6313 -0.0797 -0.1151
  753TIP3    H1 2212   2.440   2.154   4.822 -1.1214 -0.9150  0.9881
  753TIP3    H2 2213   2.327   2.246   4.781  0.6647  0.8273 -0.1231
  754TIP3   OH2 2214   1.782   0.535   2.670  0.0815  0.0404 -0.4194
  754TIP3    H1 2215   1.713   0.468   2.670 -1.9175  2.0359  0.0084
  754TIP3    H2 2216   1.782   0.570   2.581  0.2393  0.3395 -0.3034
  755TIP3   OH2 2217   3.321   2.999   0.728  0.0148  0.1077  0.0219
  755TIP3    H1 2218   3.330   3.015   0.822 -0.1927 -0.1471  0.0854
  755TIP3    H2 2219   3.370   3.070   0.687  0.2534  0.1212  0.3265
  756TIP3   OH2 2220   1.765   2.792   0.775 -0.2882  0.2425 -0.8238
  756TIP3    H1 2221   1.786   2.781   0.868 -0.7834  1.6100 -0.5364
  756TIP3    H2 2222   1.833   2.744   0.729  1.2791  1.4139  0.2044
  757TIP3   OH2 2223   2.903   0.768   0.896 -0.3019  0.6049 -0.0532
  757TIP3    H1 2224   2.955   0.813   0.964 -0.9101  0.2943  0.6206
  757TIP3    H2 2225   2.945   0.683   0.886 -1.3120 -0.0618  1.2619
  758TIP3   OH2 2226   7.107   5.574   5.860  0.5113  0.4552 -0.4917
  758TIP3    H1 2227   7.060   5.544   5.782 -1.7648  1.0212  0.6328
  758TIP3    H2 2228   7.106   5.499   5.919 -0.3061  0.9544  0.1308
  759TIP3   OH2 2229   4.133   3.853   0.805 -0.2658  0.9594 -0.2946
  759TIP3    H1 2230   4.087   3.936   0.821  0.3738  1.3260 -0.3510
  759TIP3    H2 2231   4.214   3.879   0.762 -0.0633  0.2984 -0.3084
  760TIP3   OH2 2232   2.298   2.518   4.150 -0.0859  0.2066  0.5773
  760TIP3    H1 2233   2.309   2.430   4.187 -0.1332 -0.0383  0.0017
  760TIP3    H2 2234   2.213   2.548   4.183  1.1486  1.1606  3.0888
  761TIP3   OH2 2235   2.025   3.847   1.471  0.2777  0.4825  0.2243
  761TIP3    H1 2236   2.057   3.891   1.549 -0.6748 -1.2723  1.6639
  761TIP3    H2 2237   1.950   3.899   1.443  0.1840  0.7281  0.9151
  762TIP3   OH2 2238   1.364   6.975   6.259  0.1995 -0.0666  0.1984
  762TIP3    H1 2239   1.435   7.040   6.262 -1.0636  1.2861  1.5375
  762TIP3    H2 2240   1.409   6.891   6.249  1.8478  1.0187 -1.9708
  763TIP3   OH2 2241   3.420   3.245   1.429  0.0799 -0.3942  0.8502
  763TIP3    H1 2242   3.464   3.210   1.351  3.4717 -0.9878  2.9508
  763TIP3    H2 2243   3.354   3.180   1.450  1.1529 -1.7275  0.1874
  764TIP3   OH2 2244   3.605   3.588   2.378 -0.2184  0.0129 -0.0165
  764TIP3    H1 2245   3.586   3.600   2.471 -0.3580  0.3529 -0.0898
  764TIP3    H2 2246   3.577   3.498   2.359 -2.4676  0.7493 -0.2997
  765TIP3   OH2 2247   1.646   4.254   2.002  0.0455 -0.1684  0.2321
  765TIP3    H1 2248   1.731   4.274   1.965 -0.6626  0.9093 -0.8596
  765TIP3    H2 2249   1.641   4.159   2.003  0.5130 -0.2165 -1.4330
  766TIP3   OH2 2250   5.622   3.768   0.864  0.3619 -0.2749  0.0100
  766TIP3    H1 2251   5.664   3.837   0.914 -1.3949 -0.1785  1.3961
  766TIP3    H2 2252   5.532   3.798   0.851 -0.3785 -2.1824  0.4370
  767TIP3   OH2 2253   3.093   6.057   6.260 -0.8944 -0.1004 -0.0559
  767TIP3    H1 2254   3.107   6.151   6.272  0.2383 -0.4663  1.6651
  767TIP3    H2 2255   3.152   6.016   6.323 -1.4675 -1.9707 -0.7107
  768TIP3   OH2 2256   2.018   2.664   0.667 -0.3923 -0.9549  0.0665
  768TIP3    H1 2257   2.112   2.661   0.652 -0.3008 -1.4562  0.7385
  768TIP3    H2 2258   1.980   2.627   0.587 -0.0595  0.0614 -0.5659
  769TIP3   OH2 2259   5.360   0.718   6.465  0.1432 -0.2644  0.6636
  769TIP3    H1 2260   5.413   0.733   6.386 -1.8454  0.0722 -0.6531
  769TIP3    H2 2261   5.374   0.626   6.486 -0.1299 -0.6377 -0.7280
  770TIP3   OH2 2262   0.514   2.649   2.461  0.1689 -0.1537 -0.2058
  770TIP3    H1 2263   0.578   2.619   2.526  1.3458 -0.5411 -1.5225
  770TIP3    H2 2264   0.552   2.729   2.425  0.2148 -0.7149 -1.4208
  771TIP3   OH2 2265   0.904   2.698   0.587 -0.2943 -0.0121 -0.1692
  771TIP3    H1 2266   0.927   2.747   0.508 -0.7026 -0.6352 -0.6759
  771TIP3    H2 2267   0.950   2.744   0.658  2.5827 -1.2276 -1.1515
  772TIP3   OH2 2268   1.228   3.777   1.118  0.1292 -0.0114  0.2680
  772TIP3    H1 2269   1.144   3.737   1.141  0.0163  0.7733  1.2741
  772TIP3    H2 2270   1.228   3.782   1.023 -0.4420 -1.1383  0.2039
  773TIP3   OH2 2271   3.033   1.335   6.370 -0.0152 -0.5332 -0.0847
  773TIP3    H1 2272   3.050   1.394   6.444 -2.7505  2.6276 -1.8471
  773TIP3    H2 2273   3.116   1.332   6.322  0.6093  0.6642  0.8849
  774TIP3   OH2 2274   3.207   7.160   6.061 -0.2942  0.0042 -0.6265
  774TIP3    H1 2275   3.216   7.149   6.156 -2.9257  0.4983 -0.2664
  774TIP3    H2 2276   3.182   7.073   6.029  0.9241 -0.2410 -0.9196
  775TIP3   OH2 2277   3.414   7.035   6.258  0.2930 -0.1194 -0.4133
  775TIP3    H1 2278   3.451   6.973   6.196 -0.5346  0.0394 -1.0713
  775TIP3    H2 2279   3.441   7.001   6.344  2.0785  0.0846 -0.8772
  776TIP3   OH2 2280   3.789   2.527   0.619 -0.7140  0.6134 -0.3496
  776TIP3    H1 2281   3.759   2.607   0.661 -0.0190  0.8385 -0.2881
  776TIP3    H2 2282   3.711   2.471   0.617 -0.3744 -0.0285  2.6995
  777TIP3   OH2 2283   2.801   6.860   6.111 -0.1086  0.5723  0.2960
  777TIP3    H1 2284   2.709   6.832   6.102  0.2866 -0.1940 -1.8716
  777TIP3    H2 2285   2.796   6.955   6.119 -1.0510  0.6849 -1.2943
  778TIP3   OH2 2286   7.450   6.934   0.379 -0.0689 -0.2818  0.3820
  778TIP3    H1 2287   7.401   6.891   0.310  0.9712  0.7544 -1.0300
  778TIP3    H2 2288   7.439   7.028   0.362  3.3461 -0.0075 -0.6981
  779TIP3   OH2 2289   5.077   0.791   5.284  0.2668 -0.5470 -0.1764
  779TIP3    H1 2290   5.087   0.786   5.379 -2.0311 -1.2001  0.0548
  779TIP3    H2 2291   5.162   0.822   5.252  0.4457  1.6082  2.2508
  780TIP3   OH2 2292   4.384   7.390   6.323 -0.2096  0.1484  1.1437
  780TIP3    H1 2293   4.464   7.383   6.271 -0.3232  2.2117  0.6617
  780TIP3    H2 2294   4.382   7.309   6.374  0.8345 -1.1066 -0.7325
  781TIP3   OH2 2295   2.051   4.249   0.429 -0.0475  0.2599  0.0534
  781TIP3    H1 2296   2.099   4.330   0.447  1.2817 -0.3055 -0.8598
  781TIP3    H2 2297   2.014   4.262   0.342  0.9281 -0.4455 -0.4819
  782TIP3   OH2 2298   4.417   6.794   5.786  0.2789  0.3060  0.1858
  782TIP3    H1 2299   4.467   6.793   5.704 -0.8422 -2.0268 -0.5125
  782TIP3    H2 2300   4.440   6.712   5.829  1.2723  1.7459  2.5049
  783TIP3   OH2 2301   3.474   6.431   5.969  0.6309 -0.7154 -0.4392
  783TIP3    H1 2302   3.414   6.505   5.955  2.6542  1.3367  1.3291
  783TIP3    H2 2303   3.531   6.431   5.892  1.0969  0.0657 -0.1048
  784TIP3   OH2 2304   0.933   1.452   2.589  0.3035  0.0680  0.1898
  784TIP3    H1 2305   0.878   1.411   2.523 -0.1899  0.0930  0.5827
  784TIP3    H2 2306   0.999   1.386   2.609 -1.0735 -0.9359  1.5335
  785TIP3   OH2 2307   1.524   0.399   3.076  0.1308 -0.3449  0.6847
  785TIP3    H1 2308   1.531   0.304   3.068  2.1800 -0.3575  2.2412
  785TIP3    H2 2309   1.607   0.432   3.041 -0.5741  0.8835  0.1555
  786TIP3   OH2 2310   1.277   4.843   0.795  0.1761 -0.0045 -0.4500
  786TIP3    H1 2311   1.282   4.934   0.827 -0.8070  0.3383 -1.2604
  786TIP3    H2 2312   1.345   4.797   0.844  0.0554  0.9701  0.6574
  787TIP3   OH2 2313   1.727   3.323   1.478 -0.2872  0.2538 -0.0335
  787TIP3    H1 2314   1.709   3.407   1.435  0.9895  1.0389  0.9214
  787TIP3    H2 2315   1.756   3.266   1.407  0.5802  1.1579 -0.4152
  788TIP3   OH2 2316   7.733   3.034   1.289 -0.8962  0.0894  0.0170
  788TIP3    H1 2317   7.737   3.050   1.195 -0.5233  0.6681  0.1282
  788TIP3    H2 2318   7.674   2.959   1.298 -0.9767  0.0655 -0.6713
  789TIP3   OH2 2319   0.042   3.792   0.415 -0.5535  0.8022  0.1812
  789TIP3    H1 2320   0.093   3.860   0.459  1.0250  0.4535 -1.0708
  789TIP3    H2 2321   0.035   3.822   0.324  0.3124 -0.7771 -0.4221
  790TIP3   OH2 2322   2.705   3.354   3.316  0.1266  0.1823 -0.3593
  790TIP3    H1 2323   2.690   3.259   3.314  1.5441 -0.0611  0.0711
  790TIP3    H2 2324   2.743   3.370   3.402 -0.5693  1.2257 -0.2438
  791TIP3   OH2 2325   1.693   3.013   0.629  0.1860 -0.1833  0.5709
  791TIP3    H1 2326   1.759   3.023   0.560  0.3172 -0.0310  0.7179
  791TIP3    H2 2327   1.714   2.929   0.671 -1.4159 -1.5101 -1.1988
  792TIP3   OH2 2328   2.413   5.743   1.176 -0.5294  0.4992 -0.1851
  792TIP3    H1 2329   2.378   5.724   1.263 -1.8385  2.4337 -0.2721
  792TIP3    H2 2330   2.493   5.691   1.171 -0.7950 -0.1517  1.9216
  793TIP3   OH2 2331   1.889   3.592   0.901  0.7847 -0.3705 -0.0799
  793TIP3    H1 2332   1.939   3.511   0.908  0.8903 -0.3188 -0.2385
  793TIP3    H2 2333   1.933   3.643   0.833  0.4025 -0.4104 -0.3603
  794TIP3   OH2 2334   5.894   5.614   6.053 -0.2744  0.0500 -0.5302
  794TIP3    H1 2335   5.970   5.613   6.112 -0.3536  1.6132 -0.3621
  794TIP3    H2 2336   5.819   5.601   6.111 -0.1194 -1.9666 -0.7565
  795TIP3   OH2 2337   0.911   1.910   2.547  0.0739  0.1769  0.0442
  795TIP3    H1 2338   0.850   1.919   2.474  0.3685 -0.9074 -0.3526
  795TIP3    H2 2339   0.960   1.992   2.549 -0.3417  0.4425 -0.6046
  796TIP3   OH2 2340   1.893   0.868   1.880  0.0136  0.3138  0.0738
  796TIP3    H1 2341   1.906   0.783   1.839 -0.7840  0.2875 -0.1367
  796TIP3    H2 2342   1.895   0.851   1.974  0.6737  0.1945  0.0410
  797TIP3   OH2 2343   4.202   7.127   5.702 -1.0450  0.4176  0.2056
  797TIP3    H1 2344   4.249   7.080   5.633 -1.0005 -0.7525  1.0126
  797TIP3    H2 2345   4.257   7.203   5.721  0.6496 -1.0172  1.2364
  798TIP3   OH2 2346   3.424   3.627   1.724 -0.1711 -0.6164  0.2122
  798TIP3    H1 2347   3.509   3.619   1.681  0.3284 -2.8259  1.5023
  798TIP3    H2 2348   3.379   3.545   1.703 -1.0930 -0.4195  1.3480
  799TIP3   OH2 2349   1.553   1.490   1.233  0.2081 -0.1319 -0.1631
  799TIP3    H1 2350   1.472   1.540   1.227  0.3508  0.0579 -0.5567
  799TIP3    H2 2351   1.578   1.492   1.325  0.3589  0.7461 -0.2247
  800TIP3   OH2 2352   3.200   4.682   5.553  0.0317  0.3887  0.2963
  800TIP3    H1 2353   3.287   4.648   5.535 -0.1684  0.9006 -1.6645
  800TIP3    H2 2354   3.165   4.623   5.620  2.0335  0.4535  1.4153
  801TIP3   OH2 2355   0.072   6.332   5.865 -0.7390  0.1720 -0.5786
  801TIP3    H1 2356   0.024   6.290   5.937 -1.5970 -0.8976 -1.7508
  801TIP3    H2 2357   0.088   6.262   5.802  0.1374  1.0642 -1.3679
  802TIP3   OH2 2358   2.735   2.970   0.679 -0.1080 -0.3949  0.1516
  802TIP3    H1 2359   2.706   2.887   0.641 -1.7322 -0.1087  0.7387
  802TIP3    H2 2360   2.752   2.950   0.771  1.0185 -0.4311 -0.0629
  803TIP3   OH2 2361   1.789   0.123   2.222 -0.4194 -0.0893 -0.3048
  803TIP3    H1 2362   1.725   0.096   2.287 -1.4622  1.3236 -0.7241
  803TIP3    H2 2363   1.766   0.072   2.144 -0.2894 -0.4582 -0.1024
  804TIP3   OH2 2364   5.938   0.007   6.416 -0.1520 -0.4025 -0.0390
  804TIP3    H1 2365   5.897   0.092   6.399 -0.4252 -0.6209 -0.5044
  804TIP3    H2 2366   5.866  -0.056   6.409 -0.0460 -0.6234  0.8034
  805TIP3   OH2 2367   4.959   2.894   6.130  0.1828  0.2931 -0.1937
  805TIP3    H1 2368   4.972   2.970   6.073 -0.1003  1.2938  1.0384
  805TIP3    H2 2369   4.899   2.837   6.081  0.2239  0.9736 -1.0402
  806TIP3   OH2 2370   1.538   2.957   0.251  0.5582 -0.0784 -0.0217
  806TIP3    H1 2371   1.616   2.910   0.279  0.8308  0.1705 -0.3703
  806TIP3    H2 2372   1.542   3.040   0.297  1.4960  0.7203 -1.5126
  807TIP3   OH2 2373   1.708   3.210   0.841 -0.1546  0.2447  0.2493
  807TIP3    H1 2374   1.702   3.133   0.785 -1.9424  2.2421 -2.4032
  807TIP3    H2 2375   1.802   3.227   0.849  0.1246  0.4424 -2.9457
  808TIP3   OH2 2376   1.140   4.615   0.721  0.0728  0.1465  0.0857
  808TIP3    H1 2377   1.105   4.643   0.636 -1.5433 -0.8487  0.4156
  808TIP3    H2 2378   1.187   4.692   0.753 -0.9963  1.1919 -0.8039
  809TIP3   OH2 2379   1.739   2.818   0.369  0.0739 -0.4307 -0.6467
  809TIP3    H1 2380   1.815   2.875   0.382  0.3133 -0.4574 -1.8153
  809TIP3    H2 2381   1.758   2.740   0.421  0.3339  0.0246 -0.0518
  810TIP3   OH2 2382   2.990   2.962   1.392  0.1352 -0.0926 -0.2007
  810TIP3    H1 2383   2.959   3.007   1.471 -0.1824 -0.4935 -0.1016
  810TIP3    H2 2384   3.034   2.884   1.424  3.0017  1.4306 -0.1972
  811TIP3   OH2 2385   7.034   0.707   4.874  0.0165  0.5816  0.4377
  811TIP3    H1 2386   7.018   0.778   4.936  1.4146  1.3294 -0.0288
  811TIP3    H2 2387   6.987   0.734   4.795  0.8098  1.1761  0.1524
  812TIP3   OH2 2388   3.703   2.346   2.018  0.1292 -0.1051 -0.6085
  812TIP3    H1 2389   3.718   2.435   1.984  0.6011  0.8675  2.0716
  812TIP3    H2 2390   3.784   2.324   2.063 -0.7708 -1.0857  0.5421
  813TIP3   OH2 2391   1.645   6.289   5.984 -0.0168  0.5329  0.1021
  813TIP3    H1 2392   1.672   6.372   5.946  0.3410 -0.0319 -0.9069
  813TIP3    H2 2393   1.679   6.223   5.923 -1.7670 -0.2802 -0.0095
  814TIP3   OH2 2394   1.531   4.649   1.886  0.0006  0.1498  0.2464
  814TIP3    H1 2395   1.511   4.626   1.795  0.8472 -0.0310  0.0977
  814TIP3    H2 2396   1.465   4.603   1.938 -1.5200  1.5778 -0.3666
  815TIP3   OH2 2397   1.830   3.458   0.495 -0.5040 -0.2337 -0.5203
  815TIP3    H1 2398   1.868   3.438   0.409  1.0471  0.1069  0.0899
  815TIP3    H2 2399   1.840   3.552   0.504  2.8476 -0.7288  1.6833
  816TIP3   OH2 2400   4.155   4.184   1.409 -0.2437 -0.0128  0.6790
  816TIP3    H1 2401   4.194   4.191   1.496  0.7588 -0.6159  0.2867
  816TIP3    H2 2402   4.103   4.104   1.412  0.0042 -0.1776  0.6508
  817TIP3   OH2 2403   0.041   3.458   0.163 -0.0134  0.1223  0.5191
  817TIP3    H1 2404   0.028   3.369   0.130  0.6624 -0.2646  1.2493
  817TIP3    H2 2405   0.047   3.447   0.258  2.0066  0.6896  0.4864
  818TIP3   OH2 2406   0.712   2.284   0.712 -0.2512 -0.3058 -0.0806
  818TIP3    H1 2407   0.658   2.320   0.782  2.9550  0.3840  2.1241
  818TIP3    H2 2408   0.739   2.198   0.744 -0.4435 -0.8599 -1.3777
  819TIP3   OH2 2409   5.381   3.842   1.982 -0.5157 -0.3942  0.1272
  819TIP3    H1 2410   5.433   3.805   1.910 -1.9954 -2.2282 -0.0315
  819TIP3    H2 2411   5.362   3.768   2.039  0.4028  0.9984  2.2923
  820TIP3   OH2 2412   5.926   0.867   5.822  0.6763  0.2846 -0.1886
  820TIP3    H1 2413   5.930   0.843   5.729  1.9602  0.1038 -0.0920
  820TIP3    H2 2414   5.915   0.783   5.868  1.4330  0.2349 -0.0923
  821TIP3   OH2 2415   0.456   2.564   2.224  0.0768  0.5552  0.1540
  821TIP3    H1 2416   0.490   2.590   2.310  0.0576  0.6272  0.1396
  821TIP3    H2 2417   0.517   2.603   2.161  0.3591  0.1086  0.1468
  822TIP3   OH2 2418   2.482   3.567   0.321 -0.5415  0.0537 -0.1532
  822TIP3    H1 2419   2.457   3.626   0.249  0.6080  1.3050  0.4381
  822TIP3    H2 2420   2.516   3.626   0.389  2.0847 -1.3958 -0.1392
  823TIP3   OH2 2421   1.712   4.301   1.481 -0.0525 -0.5616 -0.5477
  823TIP3    H1 2422   1.754   4.226   1.524  0.5626  1.2530  2.1764
  823TIP3    H2 2423   1.783   4.342   1.432  0.0186 -0.7865 -0.6355
  824TIP3   OH2 2424   2.052   2.020   0.990  0.1991  0.3598 -0.1019
  824TIP3    H1 2425   2.015   2.099   1.029  0.1496  0.8708 -1.1608
  824TIP3    H2 2426   1.982   1.955   0.993 -0.1675  0.7449 -0.3777
  825TIP3   OH2 2427   1.360   1.096   1.854 -0.4138  0.2110 -0.5798
  825TIP3    H1 2428   1.453   1.119   1.855  0.0290 -1.0858 -4.2389
  825TIP3    H2 2429   1.358   1.004   1.882 -0.5058  0.0484 -1.1127
  826TIP3   OH2 2430   2.017   2.405   1.737  0.1058 -0.2848  0.0932
  826TIP3    H1 2431   2.010   2.489   1.784 -1.2561 -0.5844  0.4737
  826TIP3    H2 2432   2.105   2.374   1.756  1.0812  1.6809 -1.1184
  827TIP3   OH2 2433   1.933   3.708   1.158 -0.1518  0.9045 -0.2794
  827TIP3    H1 2434   1.865   3.773   1.176 -1.1905 -0.4744  0.8906
  827TIP3    H2 2435   1.907   3.670   1.074  1.2908  3.0265 -1.7188
  828TIP3   OH2 2436   6.165   7.005   1.466 -0.1780  0.5006  0.4542
  828TIP3    H1 2437   6.218   6.929   1.491 -0.4605  0.0483 -0.2959
  828TIP3    H2 2438   6.187   7.020   1.374  1.8134  2.9429  1.2848
  829TIP3   OH2 2439   1.797   2.743   1.462  0.0944  0.6534 -0.2617
  829TIP3    H1 2440   1.731   2.760   1.529  1.3527 -0.9348  1.4236
  829TIP3    H2 2441   1.879   2.774   1.501  1.2106 -2.3663 -0.1056
  830TIP3   OH2 2442   1.379   2.893   1.943 -0.2335 -0.7778 -0.3156
  830TIP3    H1 2443   1.357   2.900   1.850  0.8762  1.3482 -0.4576
  830TIP3    H2 2444   1.307   2.842   1.981 -0.8146 -1.4811 -2.2877
  831TIP3   OH2 2445   0.385   4.447   0.273 -0.2661 -0.3253  0.9588
  831TIP3    H1 2446   0.415   4.375   0.218  0.4480 -0.0114  0.9214
  831TIP3    H2 2447   0.295   4.425   0.296 -0.7974 -0.1367 -0.8888
  832TIP3   OH2 2448   3.091   3.414   1.651 -0.0880 -0.2180 -0.2520
  832TIP3    H1 2449   3.146   3.349   1.693 -1.3735  0.0870  1.9325
  832TIP3    H2 2450   3.004   3.401   1.688 -0.4134  2.5941  0.0973
  833TIP3   OH2 2451   7.021   2.876   1.017  0.0664  0.8561  0.3877
  833TIP3    H1 2452   7.091   2.816   0.992 -0.6526  0.4813 -0.8046
  833TIP3    H2 2453   7.030   2.950   0.957 -0.2557  1.0221  0.5407
  834TIP3   OH2 2454   0.874   3.959   0.701 -0.0489  0.7756 -0.7890
  834TIP3    H1 2455   0.799   3.933   0.755  2.6863 -0.5174  2.5514
  834TIP3    H2 2456   0.862   3.909   0.620 -1.5092 -1.3667  0.6688
  835TIP3   OH2 2457   4.615   1.207   5.229 -0.3338 -0.3973  0.1974
  835TIP3    H1 2458   4.623   1.282   5.170 -1.3785 -1.1868 -0.9714
  835TIP3    H2 2459   4.699   1.161   5.222 -0.8943 -1.2009 -1.6952
  836TIP3   OH2 2460   0.888   3.211   0.029 -0.3352  0.4175  0.3741
  836TIP3    H1 2461   0.803   3.216   0.071  0.0314 -0.5074  1.2613
  836TIP3    H2 2462   0.917   3.121   0.045  1.0283  0.8730  0.5377
  837TIP3   OH2 2463   6.302   0.076   6.380 -0.1485 -0.5018  0.0198
  837TIP3    H1 2464   6.371   0.034   6.327  0.9126 -1.3137  1.9921
  837TIP3    H2 2465   6.221   0.036   6.348  0.5132 -1.3476 -0.6627
  838TIP3   OH2 2466   5.976   0.588   5.833  0.2100 -0.2083  0.1604
  838TIP3    H1 2467   6.067   0.589   5.864  0.6170  0.9067 -1.0116
  838TIP3    H2 2468   5.983   0.564   5.740 -0.6549  0.2249 -0.0233
  839TIP3   OH2 2469   2.255   3.837   1.048  0.2564  0.3566 -0.3862
  839TIP3    H1 2470   2.191   3.766   1.037  0.8099 -0.0895 -0.8058
  839TIP3    H2 2471   2.260   3.850   1.142  0.1409 -0.1597 -0.3031
  840TIP3   OH2 2472   7.105   0.375   5.375 -0.0061 -0.3482 -0.0710
  840TIP3    H1 2473   7.094   0.461   5.334 -1.0554 -0.3236  0.2586
  840TIP3    H2 2474   7.025   0.362   5.425  0.7181 -0.9547  0.9298
  841TIP3   OH2 2475   0.853   2.965   2.230  0.2808  0.0297 -0.7518
  841TIP3    H1 2476   0.922   2.903   2.253  0.1824  0.5800  1.1389
  841TIP3    H2 2477   0.887   3.050   2.258 -1.3341  0.2454  0.6074
  842TIP3   OH2 2478   1.486   5.545   0.896 -0.2678  0.0663 -0.5239
  842TIP3    H1 2479   1.496   5.641   0.892 -0.8922  0.1077 -1.3994
  842TIP3    H2 2480   1.509   5.516   0.807 -0.2670 -0.5829 -0.3091
  843TIP3   OH2 2481   5.002   6.318   6.253 -0.4247 -0.1368 -0.1529
  843TIP3    H1 2482   4.917   6.304   6.213 -2.6087  1.0067  3.8319
  843TIP3    H2 2483   5.015   6.242   6.310  1.3107 -0.3635 -0.8042
  844TIP3   OH2 2484   2.223   4.507   1.764 -0.1142 -0.2769  0.7743
  844TIP3    H1 2485   2.213   4.586   1.817 -0.5385 -0.1288  0.4825
  844TIP3    H2 2486   2.220   4.538   1.674 -2.8928 -0.8687  0.5897
  845TIP3   OH2 2487   3.150   3.310   0.612 -0.4939  0.4884  0.9019
  845TIP3    H1 2488   3.221   3.255   0.579 -0.9469  0.0927  0.5816
  845TIP3    H2 2489   3.086   3.248   0.645 -0.2685  0.8774  2.0638
  846TIP3   OH2 2490   2.365   1.060   0.813  0.2629  0.3845 -0.6686
  846TIP3    H1 2491   2.411   1.143   0.822  1.5730 -0.3803 -0.0234
  846TIP3    H2 2492   2.411   1.015   0.742  0.1464 -0.1460 -0.4149
  847TIP3   OH2 2493   0.717   3.925   1.352 -0.4521  0.1832  0.1338
  847TIP3    H1 2494   0.808   3.902   1.372 -0.4999  1.1927  1.5550
  847TIP3    H2 2495   0.669   3.843   1.360 -0.3886  0.4534  3.7358
  848TIP3   OH2 2496   3.969   3.959   0.284  0.7392 -0.2292 -0.1104
  848TIP3    H1 2497   3.956   4.019   0.211  2.3909  0.6452  0.2767
  848TIP3    H2 2498   3.905   3.890   0.270  0.0285  0.6975 -1.5636
  849TIP3   OH2 2499   2.183   0.935   1.117  0.0300 -0.1557 -0.3530
  849TIP3    H1 2500   2.176   1.019   1.072 -0.4121 -0.1796 -0.3368
  849TIP3    H2 2501   2.273   0.931   1.147  0.4509 -0.3098 -1.5844
  850TIP3   OH2 2502   6.285   0.176   5.693 -0.1896 -0.6013 -0.4270
  850TIP3    H1 2503   6.332   0.094   5.708  1.8346  0.6091  0.0436
  850TIP3    H2 2504   6.275   0.214   5.780  2.0326  1.3201 -0.9787
  851TIP3   OH2 2505   1.891   4.452   1.661 -0.1276  0.5423  0.2068
  851TIP3    H1 2506   1.822   4.428   1.599 -0.3893  2.6366 -0.3588
  851TIP3    H2 2507   1.903   4.546   1.648  1.5405  0.5500  1.6171
  852TIP3   OH2 2508   1.337   0.868   0.424  0.3100  0.3288  0.0761
  852TIP3    H1 2509   1.313   0.777   0.407  0.8620  0.4116 -1.1990
  852TIP3    H2 2510   1.414   0.862   0.481  1.4438 -0.0501 -1.4661
  853TIP3   OH2 2511   1.032   4.454   1.759  0.9013 -0.5103 -0.0959
  853TIP3    H1 2512   1.040   4.363   1.730 -2.4464 -0.3438 -1.7893
  853TIP3    H2 2513   0.986   4.449   1.843 -2.1890 -0.2762 -1.7162
  854TIP3   OH2 2514   1.313   2.417   1.905  0.3403  0.4518  0.0529
  854TIP3    H1 2515   1.220   2.414   1.884  0.4214 -0.2667 -0.1902
  854TIP3    H2 2516   1.318   2.383   1.995  0.5058 -0.6518 -0.3701
  855TIP3   OH2 2517   1.632   1.945   2.477 -0.2307 -0.1910 -0.2359
  855TIP3    H1 2518   1.588   1.912   2.556  0.5857  2.3974  1.3619
  855TIP3    H2 2519   1.721   1.910   2.483 -0.1597  0.0262  0.0452
  856TIP3   OH2 2520   7.450   3.710   1.081 -0.4205 -0.3961 -0.3184
  856TIP3    H1 2521   7.362   3.746   1.072 -0.0245  0.8012  0.5452
  856TIP3    H2 2522   7.441   3.642   1.147 -0.2390  1.3339  1.5157
  857TIP3   OH2 2523   2.148   1.163   0.967  0.4358 -0.0123 -0.1361
  857TIP3    H1 2524   2.158   1.255   0.994 -2.5220  0.5060 -0.6496
  857TIP3    H2 2525   2.212   1.153   0.897  0.7141  1.6914 -0.1704
  858TIP3   OH2 2526   3.480   2.183   0.329  0.2320 -0.8167 -0.0927
  858TIP3    H1 2527   3.521   2.098   0.313  0.4156 -0.2594 -3.0427
  858TIP3    H2 2528   3.394   2.162   0.364  1.4383 -2.1051  2.2027
  859TIP3   OH2 2529   0.996   3.243   0.832 -0.3307 -0.3047  0.3237
  859TIP3    H1 2530   1.076   3.203   0.866 -1.1191 -0.6445  1.8349
  859TIP3    H2 2531   0.995   3.331   0.871  0.5481  0.6125 -1.6640
  860TIP3   OH2 2532   0.495   1.362   1.936  0.1784 -0.3055 -0.3563
  860TIP3    H1 2533   0.537   1.366   1.850  0.6082  3.4146 -0.0481
  860TIP3    H2 2534   0.401   1.370   1.918  0.2645  0.4254 -0.4886
  861TIP3   OH2 2535   1.585   2.849   1.649  0.1671 -0.3313 -0.0911
  861TIP3    H1 2536   1.511   2.793   1.674 -0.6456  0.3497 -0.9104
  861TIP3    H2 2537   1.544   2.932   1.625  1.3999  0.7823  1.6036
  862TIP3   OH2 2538   1.270   5.570   1.577  0.3679 -0.0181  0.0621
  862TIP3    H1 2539   1.212   5.560   1.652  0.1617 -0.2267 -0.1240
  862TIP3    H2 2540   1.308   5.483   1.563 -0.4907 -0.2655 -0.7938
  863TIP3   OH2 2541   0.162   4.206   1.592 -0.6656 -0.4308 -0.6276
  863TIP3    H1 2542   0.092   4.189   1.530 -0.4444 -1.4464 -0.6122
  863TIP3    H2 2543   0.163   4.129   1.649  0.6552 -0.5801 -0.8292
  864TIP3   OH2 2544   5.269   1.039   5.689 -0.9288  0.3535 -0.4417
  864TIP3    H1 2545   5.339   1.076   5.742 -1.1054 -0.0911  0.1201
  864TIP3    H2 2546   5.198   1.103   5.695 -0.6439  0.7115 -0.8521
  865TIP3   OH2 2547  -0.034   1.381   3.333  0.0985  0.3179  0.3876
  865TIP3    H1 2548   0.018   1.461   3.345 -0.8337  1.3458 -1.9950
  865TIP3    H2 2549   0.028   1.310   3.347  1.1984  1.4639  1.5303
  866TIP3   OH2 2550   6.639   0.177   5.883 -0.2900  0.0609 -0.1037
  866TIP3    H1 2551   6.624   0.125   5.804 -1.8754  0.3252  0.0070
  866TIP3    H2 2552   6.734   0.172   5.898 -0.1859 -1.2633 -1.1421
  867TIP3   OH2 2553   3.595   4.858   0.492  0.4452 -0.1575 -0.0821
  867TIP3    H1 2554   3.574   4.899   0.409 -1.0929 -0.4734  0.1479
  867TIP3    H2 2555   3.602   4.765   0.472 -0.3635 -0.2859  0.2194
  868TIP3   OH2 2556   1.951   0.298   6.010 -0.2374 -0.3871 -0.5327
  868TIP3    H1 2557   1.923   0.334   6.094  0.5955 -0.3565 -0.2655
  868TIP3    H2 2558   2.046   0.289   6.018 -0.4430 -2.7463 -0.5636
  869TIP3   OH2 2559   1.513   2.585   1.252 -0.3134 -0.3277 -0.4584
  869TIP3    H1 2560   1.532   2.669   1.209 -0.8543 -0.7511 -1.5483
  869TIP3    H2 2561   1.510   2.606   1.345  1.7895  0.4475 -0.5308
  870TIP3   OH2 2562   1.912   3.706   0.391 -0.2401 -0.0834  0.5909
  870TIP3    H1 2563   2.004   3.692   0.370 -0.1777 -0.9594  1.4206
  870TIP3    H2 2564   1.899   3.800   0.376  0.8190  0.0785  0.5896
  871TIP3   OH2 2565   0.500   4.732   1.468  0.6449  0.2199 -0.9915
  871TIP3    H1 2566   0.525   4.640   1.459  0.1353 -0.0549  0.3325
  871TIP3    H2 2567   0.551   4.763   1.543 -2.8584 -0.3138  1.7145
  872TIP3   OH2 2568   5.284   6.240   6.009  0.0280  0.4089 -0.6119
  872TIP3    H1 2569   5.316   6.160   5.967 -1.8801 -0.7245 -0.0171
  872TIP3    H2 2570   5.326   6.240   6.095 -1.3755 -1.0153  0.1260
  873TIP3   OH2 2571   3.269   0.958   0.549  0.5398 -0.8405  0.8505
  873TIP3    H1 2572   3.320   0.899   0.493 -1.2775 -1.6589  0.0099
  873TIP3    H2 2573   3.261   1.038   0.498 -0.2376 -1.2221  0.3662
  874TIP3   OH2 2574   6.893   0.808   5.672 -0.1748  0.2263  0.1835
  874TIP3    H1 2575   6.951   0.813   5.748  0.2218  0.7248 -0.1474
  874TIP3    H2 2576   6.806   0.797   5.709  0.0185  0.4488  0.7085
  875TIP3   OH2 2577   0.036   5.769   0.618  0.7359 -0.1272 -0.5129
  875TIP3    H1 2578   0.016   5.809   0.534 -0.0663 -0.0829 -0.2985
  875TIP3    H2 2579   0.085   5.690   0.597 -1.0633 -1.0968 -1.0874
  876TIP3   OH2 2580   2.270   2.023   0.311 -0.3077  0.3044  0.1639
  876TIP3    H1 2581   2.335   2.023   0.241 -1.2414 -1.6120 -0.7508
  876TIP3    H2 2582   2.230   2.110   0.307  0.9372  0.8553 -0.4544
  877TIP3   OH2 2583   3.479   2.971   1.891 -0.2623  0.7355 -0.4900
  877TIP3    H1 2584   3.413   2.919   1.845 -0.7578  1.0187 -0.1058
  877TIP3    H2 2585   3.558   2.963   1.838 -0.7709  0.8747 -1.2660
  878TIP3   OH2 2586   1.794   2.982   0.119 -0.2035 -0.3773  0.3204
  878TIP3    H1 2587   1.703   2.996   0.091 -0.1420 -0.9323 -0.1798
  878TIP3    H2 2588   1.801   3.027   0.203 -1.8509 -2.9832  1.9528
  879TIP3   OH2 2589   5.413   2.263   3.055  0.2842  0.1454 -0.3309
  879TIP3    H1 2590   5.450   2.175   3.064  0.0243 -0.0113 -0.7962
  879TIP3    H2 2591   5.326   2.249   3.019  0.5917  0.6518 -1.2870
  880TIP3   OH2 2592   3.216   2.477   1.260  0.1408 -0.5008  0.0520
  880TIP3    H1 2593   3.244   2.539   1.328  1.1254  0.9685 -1.6337
  880TIP3    H2 2594   3.122   2.490   1.253 -0.0541 -1.0632  1.5238
  881TIP3   OH2 2595   0.204   2.934   0.533  0.1372  0.0076 -0.3123
  881TIP3    H1 2596   0.234   2.913   0.621 -0.4025 -0.2342 -0.1842
  881TIP3    H2 2597   0.184   3.027   0.536  0.7072  0.1347 -0.3529
  882TIP3   OH2 2598   4.146   2.409   2.233  0.3657  0.6322 -0.6160
  882TIP3    H1 2599   4.202   2.395   2.157  0.9566  2.4613 -0.5455
  882TIP3    H2 2600   4.208   2.415   2.307 -0.2841 -2.6465  0.2825
  883TIP3   OH2 2601   4.784   2.061   0.393 -0.5470  0.6240 -0.1248
  883TIP3    H1 2602   4.775   2.128   0.461  0.8340 -0.8555  1.5558
  883TIP3    H2 2603   4.878   2.045   0.387 -0.8513 -1.1757 -0.4743
  884TIP3   OH2 2604   1.035   2.396   1.876  0.2404  0.2085  0.1501
  884TIP3    H1 2605   0.975   2.395   1.951  1.0558 -1.1706  0.7983
  884TIP3    H2 2606   0.977   2.398   1.800 -0.6294 -0.2361  0.7921
  885TIP3   OH2 2607   7.270   3.169   0.637  0.3625 -0.4898  0.0687
  885TIP3    H1 2608   7.313   3.240   0.684 -0.5875  0.3184 -0.2615
  885TIP3    H2 2609   7.220   3.122   0.705 -0.3455  0.1767  0.0173
  886TIP3   OH2 2610   3.579   2.678   1.615  0.4446 -0.3756 -0.1553
  886TIP3    H1 2611   3.501   2.717   1.655  0.0613 -1.2029 -0.0746
  886TIP3    H2 2612   3.652   2.720   1.659  0.0273 -1.2832  1.4720
  887TIP3   OH2 2613   2.266   4.252   0.208 -0.0229  0.0900 -0.2354
  887TIP3    H1 2614   2.172   4.251   0.189 -0.1645 -1.6438  0.5119
  887TIP3    H2 2615   2.279   4.180   0.270  2.0167 -0.5426 -1.3569
  888TIP3   OH2 2616   1.723   4.065   0.910  0.2750  0.1593 -0.3385
  888TIP3    H1 2617   1.656   4.125   0.879 -0.4247 -0.2199  0.4151
  888TIP3    H2 2618   1.748   4.013   0.833 -0.0620  0.5243 -0.6882
  889TIP3   OH2 2619   0.838   3.508   1.551  0.0395 -0.0183 -0.2270
  889TIP3    H1 2620   0.764   3.514   1.490 -0.1072  0.6426  0.0039
  889TIP3    H2 2621   0.807   3.451   1.621 -0.3791  0.5141  0.0306
  890TIP3   OH2 2622   0.133   2.946   2.995  0.0953 -0.8970  0.4279
  890TIP3    H1 2623   0.193   2.876   3.021  0.2539 -1.3398 -1.1328
  890TIP3    H2 2624   0.181   2.996   2.929 -1.4388 -1.5926 -1.2624
  891TIP3   OH2 2625   2.302   5.056   0.552 -0.2782  0.0753  0.6564
  891TIP3    H1 2626   2.251   5.132   0.581 -1.1292 -0.3836  0.3749
  891TIP3    H2 2627   2.312   5.069   0.458 -2.2655 -1.2295  0.2375
  892TIP3   OH2 2628   0.126   4.414   1.168  0.0145  0.2280  0.1884
  892TIP3    H1 2629   0.128   4.321   1.191  3.2252 -0.4234 -2.2014
  892TIP3    H2 2630   0.184   4.456   1.232  0.3689  0.1758 -0.0924
  893TIP3   OH2 2631   0.065   5.585   2.042  0.5159 -0.9685  0.1865
  893TIP3    H1 2632   0.155   5.603   2.017 -0.1217  0.9522 -0.8762
  893TIP3    H2 2633   0.045   5.500   2.002  1.3709 -0.6582 -0.9386
  894TIP3   OH2 2634   2.495   0.962   1.459 -0.3926  0.6220 -0.3182
  894TIP3    H1 2635   2.451   0.936   1.540 -0.1021  0.8831 -0.0735
  894TIP3    H2 2636   2.584   0.931   1.469 -0.5274  0.0724 -0.8265
  895TIP3   OH2 2637   1.616   1.328   2.910 -0.3442 -0.0400 -0.3004
  895TIP3    H1 2638   1.671   1.398   2.945  0.2194  0.3981 -2.0085
  895TIP3    H2 2639   1.674   1.252   2.907 -0.5853 -0.2564  0.3116
  896TIP3   OH2 2640   6.526   5.200   2.503  0.1907 -0.4505  0.3127
  896TIP3    H1 2641   6.438   5.203   2.539  0.7059 -0.8708  1.6657
  896TIP3    H2 2642   6.516   5.225   2.411 -1.1749  0.6589  0.7425
  897TIP3   OH2 2643   6.557   4.837   1.507  0.0257 -0.2913  0.2784
  897TIP3    H1 2644   6.642   4.878   1.522 -0.2557  0.0517  0.9519
  897TIP3    H2 2645   6.548   4.773   1.578 -0.3266 -0.2544  0.2668
  898TIP3   OH2 2646   0.462   5.479   2.723  0.1740  0.1406 -0.6291
  898TIP3    H1 2647   0.424   5.550   2.774 -0.1218  0.1534 -0.8654
  898TIP3    H2 2648   0.480   5.518   2.638 -0.0235 -0.0744 -0.7708
  899TIP3   OH2 2649   0.034   4.122   0.798 -0.0351  0.6438  0.3402
  899TIP3    H1 2650  -0.039   4.144   0.739  1.2887  1.7468 -0.9021
  899TIP3    H2 2651   0.068   4.206   0.827  1.3511  0.1545  0.1701
  900TIP3   OH2 2652   5.765   0.416   5.046 -0.6519  0.6567 -0.5487
  900TIP3    H1 2653   5.689   0.412   4.988 -1.5923  1.6566  0.6026
  900TIP3    H2 2654   5.824   0.348   5.012 -1.9275  0.0522 -1.6104
  901TIP3   OH2 2655   7.377   4.166   0.505  0.3300  0.9697 -0.0752
  901TIP3    H1 2656   7.286   4.138   0.497 -0.2863  2.6238  1.0594
  901TIP3    H2 2657   7.413   4.157   0.416 -0.1392 -2.3351  0.0160
  902TIP3   OH2 2658   6.317   0.871   6.301  0.7382  0.2777 -0.3462
  902TIP3    H1 2659   6.305   0.776   6.306  1.8936  0.1236 -0.4369
  902TIP3    H2 2660   6.241   0.902   6.250  0.6992 -0.6642 -0.8660
  903TIP3   OH2 2661   6.157   5.681   5.306  0.4919 -0.0763  0.1801
  903TIP3    H1 2662   6.062   5.680   5.310  0.5176 -2.5769  0.7825
  903TIP3    H2 2663   6.183   5.747   5.371 -0.7778 -0.5282  1.1535
  904TIP3   OH2 2664   2.664   2.887   2.714 -0.1683 -0.1157  0.0059
  904TIP3    H1 2665   2.613   2.908   2.792 -2.9086 -0.8414 -1.5073
  904TIP3    H2 2666   2.647   2.960   2.654 -0.6271 -1.0646 -1.0517
  905TIP3   OH2 2667   0.715   3.856   1.778 -0.1644  0.3184  0.5798
  905TIP3    H1 2668   0.651   3.926   1.772  0.1578  0.4964 -0.9609
  905TIP3    H2 2669   0.670   3.779   1.741  0.7636  0.6499 -1.3396
  906TIP3   OH2 2670   4.260   6.091   6.104 -0.1615  0.6834  0.4092
  906TIP3    H1 2671   4.176   6.133   6.084  0.0765  1.1563  0.3836
  906TIP3    H2 2672   4.246   6.047   6.187 -0.4065  0.8425  0.4533
  907TIP3   OH2 2673   2.452   3.006   1.363 -0.0741  0.4135  0.2539
  907TIP3    H1 2674   2.453   3.080   1.303 -1.7460 -0.2275 -0.6004
  907TIP3    H2 2675   2.439   3.045   1.449  3.6433  1.4457  0.4413
  908TIP3   OH2 2676   1.706   2.630   2.679 -0.0184 -0.0962  0.2313
  908TIP3    H1 2677   1.788   2.673   2.655  1.1889 -1.6303  1.5083
  908TIP3    H2 2678   1.676   2.677   2.757  1.0186 -1.2143  1.3090
  909TIP3   OH2 2679   4.370   7.304   5.238 -0.4110  0.1971  0.0938
  909TIP3    H1 2680   4.276   7.285   5.230 -0.4169 -0.2677  1.1107
  909TIP3    H2 2681   4.373   7.390   5.279 -0.3811  1.0687 -1.6877
  910TIP3   OH2 2682   7.384   5.494   0.591  0.6900 -0.0604  0.0594
  910TIP3    H1 2683   7.467   5.455   0.565  0.1994 -1.1175  0.0775
  910TIP3    H2 2684   7.369   5.461   0.680  0.9766  1.3036  0.6303
  911TIP3   OH2 2685   2.811   2.668   2.748 -0.2599 -0.3485  0.3316
  911TIP3    H1 2686   2.787   2.757   2.774 -0.7068  0.3332 -2.2869
  911TIP3    H2 2687   2.729   2.619   2.753 -0.1301 -0.4931  1.1951
  912TIP3   OH2 2688   0.147   3.180   0.409  0.0756  0.4573  0.0303
  912TIP3    H1 2689   0.160   3.258   0.464  1.0557 -0.6114  1.3461
  912TIP3    H2 2690   0.205   3.194   0.334  3.7563 -1.0311  2.4604
  913TIP3   OH2 2691   1.272   0.338   2.363 -0.3520 -0.2252  0.2464
  913TIP3    H1 2692   1.295   0.373   2.449 -1.0278 -0.6335  0.5985
  913TIP3    H2 2693   1.215   0.404   2.324 -1.2567 -0.7231  0.7238
  914TIP3   OH2 2694   3.098   3.220   3.705 -0.3948  0.0628 -0.5521
  914TIP3    H1 2695   3.056   3.142   3.741  1.7665 -0.6982  0.4336
  914TIP3    H2 2696   3.077   3.290   3.767 -2.0993  0.2285 -1.2892
  915TIP3   OH2 2697   2.578   0.993   6.263 -0.3078  0.1592 -0.1180
  915TIP3    H1 2698   2.582   1.051   6.187 -0.0655 -0.1311 -0.3285
  915TIP3    H2 2699   2.540   0.912   6.230 -2.5699  0.8997  0.6305
  916TIP3   OH2 2700   4.172   3.080   1.248 -0.6115  0.2335 -0.3597
  916TIP3    H1 2701   4.250   3.133   1.264  0.2779 -0.7632 -1.3288
  916TIP3    H2 2702   4.153   3.094   1.155 -0.2812 -1.2779 -0.6609
  917TIP3   OH2 2703   7.540   6.035   5.140 -0.5720 -0.5319 -0.0736
  917TIP3    H1 2704   7.565   6.007   5.052 -0.3168 -0.5489  0.0036
  917TIP3    H2 2705   7.586   6.118   5.152  0.5458 -1.2320  0.5890
  918TIP3   OH2 2706   0.287   7.402   6.190  0.4630  0.4851  0.3556
  918TIP3    H1 2707   0.247   7.488   6.196  0.0580  0.3256 -0.0429
  918TIP3    H2 2708   0.223   7.349   6.144  1.1126  0.2160 -0.2405
  919TIP3   OH2 2709   4.859   2.224   1.571  0.5119 -0.0439 -0.3748
  919TIP3    H1 2710   4.858   2.300   1.628  0.6982  0.1879 -0.6777
  919TIP3    H2 2711   4.817   2.155   1.622  0.2931  0.2762 -0.1218
  920TIP3   OH2 2712   2.170   4.284   1.903  0.1444  0.4622  0.0239
  920TIP3    H1 2713   2.187   4.360   1.846 -2.2540 -0.2192 -1.6586
  920TIP3    H2 2714   2.161   4.210   1.843 -0.7749 -0.5904  1.4277
  921TIP3   OH2 2715   3.510   1.260   0.626 -0.7344 -0.2251 -0.0717
  921TIP3    H1 2716   3.544   1.178   0.661 -1.5378 -0.6857 -0.3622
  921TIP3    H2 2717   3.420   1.263   0.657 -0.5876  0.7431  0.2671
  922TIP3   OH2 2718   1.120   2.548   1.450 -0.2875  0.3690  0.6969
  922TIP3    H1 2719   1.118   2.558   1.545 -0.9285  1.4307  0.5779
  922TIP3    H2 2720   1.133   2.454   1.436  1.8259  0.4477  1.8346
  923TIP3   OH2 2721   4.394   3.067   0.292  0.1914 -0.1669  0.1743
  923TIP3    H1 2722   4.378   3.028   0.378 -1.2943  1.6293  0.7582
  923TIP3    H2 2723   4.431   2.996   0.239  1.5794 -1.1711  2.4263
  924TIP3   OH2 2724   4.124   2.851   1.933 -0.2499 -0.2111 -0.5115
  924TIP3    H1 2725   4.033   2.852   1.904 -0.5006 -0.0075  0.2546
  924TIP3    H2 2726   4.174   2.879   1.857 -0.6673 -1.8992 -1.4389
  925TIP3   OH2 2727   4.849   2.353   0.882 -0.2843 -0.4978  0.6024
  925TIP3    H1 2728   4.923   2.325   0.936  0.2100 -0.4341 -0.0243
  925TIP3    H2 2729   4.772   2.323   0.928  0.1209 -0.1518  1.5134
  926TIP3   OH2 2730   5.668   4.975   6.417  0.2169 -0.2284  0.1686
  926TIP3    H1 2731   5.746   5.017   6.380 -0.1770  0.1145 -0.2820
  926TIP3    H2 2732   5.644   5.031   6.491  0.1619 -0.1039  0.0576
  927TIP3   OH2 2733   2.742   2.434   0.231  0.0165  0.2725 -0.0192
  927TIP3    H1 2734   2.699   2.458   0.148 -1.3352  0.7594  0.8037
  927TIP3    H2 2735   2.764   2.518   0.271 -1.3005  0.0958  1.1158
  928TIP3   OH2 2736   5.221   6.822   6.360  0.0379 -0.4081  0.0042
  928TIP3    H1 2737   5.137   6.787   6.330 -0.1105  1.2612 -1.6332
  928TIP3    H2 2738   5.278   6.816   6.284  0.5036  1.2666  0.2038
  929TIP3   OH2 2739   3.028   3.921   0.666  0.6329 -0.4227 -0.0040
  929TIP3    H1 2740   3.059   3.830   0.665 -1.6646 -1.2338 -0.5241
  929TIP3    H2 2741   2.951   3.919   0.724 -0.4757  0.8106 -1.3909
  930TIP3   OH2 2742   3.565   2.710   2.182 -0.3595 -0.1439  0.1197
  930TIP3    H1 2743   3.629   2.733   2.249 -1.3667 -1.9993  1.7614
  930TIP3    H2 2744   3.617   2.695   2.103  1.1767 -1.1570  1.3151
  931TIP3   OH2 2745   4.768   2.003   1.710  0.4983  0.1072  0.1488
  931TIP3    H1 2746   4.748   2.007   1.803 -0.1002  2.3465 -0.0401
  931TIP3    H2 2747   4.725   1.923   1.680 -0.6753  0.1993  1.4930
  932TIP3   OH2 2748   6.282   4.499   1.509 -0.3820 -0.2391  0.5294
  932TIP3    H1 2749   6.285   4.570   1.445  0.4665  0.6416  1.5089
  932TIP3    H2 2750   6.355   4.518   1.568 -1.9109 -0.3281  2.4912
  933TIP3   OH2 2751   0.709   2.295   1.739  0.0525  0.2015 -0.6405
  933TIP3    H1 2752   0.648   2.221   1.739  0.8155 -0.4319 -1.1568
  933TIP3    H2 2753   0.796   2.255   1.739  0.4719  1.1014 -0.0754
  934TIP3   OH2 2754   3.401   2.477   1.044 -0.0702 -0.2682 -0.4948
  934TIP3    H1 2755   3.401   2.534   0.968 -0.2064  0.9265  0.3857
  934TIP3    H2 2756   3.320   2.499   1.090  0.6844  0.0202  0.7231
  935TIP3   OH2 2757   1.292   2.732   0.825  0.0712 -0.4994 -0.3441
  935TIP3    H1 2758   1.299   2.769   0.913 -0.1893  1.7825 -1.2461
  935TIP3    H2 2759   1.228   2.661   0.835 -0.5967  0.2733  1.1344
  936TIP3   OH2 2760   5.339   4.168   0.744 -0.0468 -0.4822 -0.4898
  936TIP3    H1 2761   5.329   4.218   0.664 -0.6936 -0.4952 -0.4257
  936TIP3    H2 2762   5.431   4.143   0.747  0.8701  2.8119  0.7434
  937TIP3   OH2 2763   2.357   7.017   4.980 -0.3761  0.6999 -0.1153
  937TIP3    H1 2764   2.305   7.076   4.926 -1.0946  0.6661  0.5201
  937TIP3    H2 2765   2.293   6.977   5.040  0.5208  1.4075  1.3491
  938TIP3   OH2 2766   4.286   2.392   0.721  0.2509  0.3154  0.0799
  938TIP3    H1 2767   4.212   2.381   0.661 -0.3580  0.6513  0.7599
  938TIP3    H2 2768   4.298   2.305   0.760  0.8526  0.0154 -0.7475
  939TIP3   OH2 2769   5.052   2.271   0.224  0.0484 -0.4338 -0.4809
  939TIP3    H1 2770   4.987   2.319   0.173  2.0691  2.6476 -0.2435
  939TIP3    H2 2771   5.043   2.305   0.313  0.9605 -1.0872 -0.1272
  940TIP3   OH2 2772   6.531   7.124   6.423  0.3016 -0.2417  0.3883
  940TIP3    H1 2773   6.456   7.148   6.368 -0.1585  1.1718  1.6160
  940TIP3    H2 2774   6.541   7.029   6.410 -0.3375 -0.0787 -1.4450
  941TIP3   OH2 2775   6.549   6.505   5.209  0.1424  0.5201  0.0001
  941TIP3    H1 2776   6.539   6.518   5.115  0.2743 -1.3268 -0.2934
  941TIP3    H2 2777   6.528   6.412   5.222 -1.1841  1.0658  1.9715
  942TIP3   OH2 2778   7.211   6.065   5.638 -0.0256  0.2599  0.2300
  942TIP3    H1 2779   7.152   6.051   5.712  1.0431 -0.4481  0.9721
  942TIP3    H2 2780   7.211   6.160   5.625 -1.5498  0.2468  0.0152
  943TIP3   OH2 2781   5.321   4.867   2.761 -0.3214  0.5291 -0.0924
  943TIP3    H1 2782   5.294   4.958   2.772  2.0666  1.3217 -0.5471
  943TIP3    H2 2783   5.268   4.835   2.687  0.6203  2.3248 -1.5848
  944TIP3   OH2 2784   4.431   6.866   6.264 -0.0469 -0.4936  0.3585
  944TIP3    H1 2785   4.439   6.919   6.185  0.9976 -1.5041 -0.2240
  944TIP3    H2 2786   4.519   6.833   6.280 -0.6923 -2.1020  0.6868
  945TIP3   OH2 2787   6.062   6.936   5.915  0.1657  0.3921  0.0772
  945TIP3    H1 2788   6.001   6.874   5.875 -0.6871  1.0933  0.2656
  945TIP3    H2 2789   6.135   6.942   5.853 -0.2806  0.0705 -0.4796
  946TIP3   OH2 2790   1.530   0.962   4.055 -0.3861 -0.3061 -0.1107
  946TIP3    H1 2791   1.558   0.879   4.093  1.6037 -0.3448 -1.5429
  946TIP3    H2 2792   1.611   1.001   4.020 -1.5433  1.4391 -0.9443
  947TIP3   OH2 2793   5.273   7.343   5.378 -0.9267  0.0291 -0.4057
  947TIP3    H1 2794   5.247   7.273   5.318 -0.1778 -1.0973  0.5728
  947TIP3    H2 2795   5.361   7.318   5.408 -1.8256 -0.1494  2.2110
  948TIP3   OH2 2796   3.131   4.744   1.481 -0.0430 -0.2122 -0.2946
  948TIP3    H1 2797   3.049   4.786   1.453 -1.1775 -1.5617  0.9110
  948TIP3    H2 2798   3.188   4.749   1.404 -1.7856 -0.5705 -1.6537
  949TIP3   OH2 2799   0.275   0.621   5.970 -0.4512  0.7438  0.0930
  949TIP3    H1 2800   0.191   0.652   6.004 -0.5525  0.1125  0.4211
  949TIP3    H2 2801   0.252   0.547   5.914  0.0175 -0.5944  1.6115
  950TIP3   OH2 2802   1.830   2.497   0.210 -0.0286 -0.2030 -0.2409
  950TIP3    H1 2803   1.894   2.515   0.141  1.3938 -0.1000  1.0905
  950TIP3    H2 2804   1.792   2.412   0.186  1.3747 -0.7689 -0.4705
  951TIP3   OH2 2805   3.693   3.895   2.937 -0.6657  0.3069 -0.7242
  951TIP3    H1 2806   3.710   3.911   2.844  0.7430 -0.3950 -0.5977
  951TIP3    H2 2807   3.729   3.972   2.981 -0.0118 -0.0522 -0.6393
  952TIP3   OH2 2808   5.768   4.462   1.525 -0.1198  0.6949  0.1775
  952TIP3    H1 2809   5.721   4.506   1.595 -1.1592 -1.9917  1.2642
  952TIP3    H2 2810   5.729   4.374   1.522  1.6737 -0.0760 -2.0362
  953TIP3   OH2 2811   2.872   5.701   3.398 -0.5092 -0.3042  0.0474
  953TIP3    H1 2812   2.935   5.770   3.419  0.9420 -1.0826 -1.5894
  953TIP3    H2 2813   2.813   5.699   3.473 -0.2459  2.3148  0.3701
  954TIP3   OH2 2814   0.856   0.012   5.233  0.6813  0.8472  0.2059
  954TIP3    H1 2815   0.923   0.007   5.164 -0.2207 -1.2339 -0.5456
  954TIP3    H2 2816   0.797   0.081   5.203 -0.0279 -0.4449 -1.4054
  955TIP3   OH2 2817   5.223   2.797   1.346  0.3798  0.1958  0.6390
  955TIP3    H1 2818   5.227   2.710   1.307  0.5422  0.2257  0.5880
  955TIP3    H2 2819   5.281   2.793   1.421  0.8261  0.4235  0.3096
  956TIP3   OH2 2820   4.701   2.817   0.964 -0.1260  0.1287  0.4560
  956TIP3    H1 2821   4.759   2.755   0.919 -0.7481  0.1250 -0.3446
  956TIP3    H2 2822   4.683   2.776   1.049  1.2752  0.2628  0.8378
  957TIP3   OH2 2823   3.789   3.578   1.533 -0.0944 -0.1217  0.2200
  957TIP3    H1 2824   3.732   3.505   1.556  0.6908 -1.3641 -1.6391
  957TIP3    H2 2825   3.734   3.636   1.481 -0.2729 -0.2264  0.2916
  958TIP3   OH2 2826   0.589   5.298   4.980  0.0637  0.0354  0.0027
  958TIP3    H1 2827   0.531   5.369   4.951  0.0590  0.5061  1.1114
  958TIP3    H2 2828   0.677   5.331   4.962  0.0158 -0.2000 -0.6424
  959TIP3   OH2 2829   4.638   1.777   0.129 -0.1811  0.5838 -0.0979
  959TIP3    H1 2830   4.628   1.691   0.171 -1.2309 -0.1004 -1.6834
  959TIP3    H2 2831   4.592   1.837   0.188 -2.1195 -0.4439 -0.5156
  960TIP3   OH2 2832   4.032   6.043   5.694  0.3039 -0.1813  0.6376
  960TIP3    H1 2833   3.951   6.024   5.740  0.5123 -0.5051  0.8746
  960TIP3    H2 2834   4.011   6.031   5.601 -0.9884  3.5463  0.3597
  961TIP3   OH2 2835   1.480   3.463   1.089 -0.1570  0.7331 -0.0292
  961TIP3    H1 2836   1.392   3.475   1.125  0.4389  2.2145  0.9706
  961TIP3    H2 2837   1.539   3.474   1.164  0.9016  0.0458 -0.7430
  962TIP3   OH2 2838   5.904   4.041   2.011  0.2595 -0.1417 -0.0497
  962TIP3    H1 2839   5.882   4.046   1.918 -0.0401  0.7145  0.0622
  962TIP3    H2 2840   5.896   4.131   2.042 -1.7762 -0.7360  1.2679
  963TIP3   OH2 2841   4.942   3.470   0.895 -0.2268 -0.3580 -0.4758
  963TIP3    H1 2842   4.996   3.407   0.846  2.2982  0.9381  0.5414
  963TIP3    H2 2843   4.927   3.428   0.980  2.9085  0.9913  0.8514
  964TIP3   OH2 2844   7.098   1.837   3.874  0.7236 -0.5858 -0.1325
  964TIP3    H1 2845   7.187   1.855   3.903  0.8259 -1.0025 -0.1757
  964TIP3    H2 2846   7.079   1.749   3.908 -0.5757  0.4934  1.9848
  965TIP3   OH2 2847   5.064   0.830   4.767 -0.1327 -0.2352  0.2482
  965TIP3    H1 2848   5.018   0.914   4.766  0.0616 -0.1003  1.3847
  965TIP3    H2 2849   5.002   0.768   4.730  0.3726  0.7204 -2.3108
  966TIP3   OH2 2850   3.557   3.564   0.330  0.1125 -0.4532  0.5393
  966TIP3    H1 2851   3.648   3.545   0.307 -0.3778 -1.6862 -0.4399
  966TIP3    H2 2852   3.541   3.651   0.294  0.4589 -0.8624 -0.6410
  967TIP3   OH2 2853   5.225   2.066   0.561  0.4675  0.1104 -0.0858
  967TIP3    H1 2854   5.188   2.078   0.649  0.8099 -0.8556  0.1898
  967TIP3    H2 2855   5.148   2.052   0.505  0.3098 -0.2291  0.2147
  968TIP3   OH2 2856   1.425   4.387   0.513  0.2443 -0.1131  0.5627
  968TIP3    H1 2857   1.349   4.328   0.512 -1.1565  1.6174  2.6861
  968TIP3    H2 2858   1.415   4.439   0.433  0.7304 -1.7773 -0.6032
  969TIP3   OH2 2859   3.047   1.916   1.077 -0.3972 -0.6688  0.0926
  969TIP3    H1 2860   3.118   1.978   1.064 -1.6809  0.7255 -0.4679
  969TIP3    H2 2861   3.067   1.843   1.019  1.2169 -0.8623  0.8800
  970TIP3   OH2 2862   5.386   7.395   5.694  0.0407  0.0322 -0.4346
  970TIP3    H1 2863   5.303   7.376   5.737  0.6190 -0.1497  0.6143
  970TIP3    H2 2864   5.416   7.311   5.660  1.0748 -0.4312  1.5022
  971TIP3   OH2 2865   6.759   6.675   5.151 -0.2229  0.2411 -0.5078
  971TIP3    H1 2866   6.824   6.624   5.103 -0.2349 -0.1218 -0.1436
  971TIP3    H2 2867   6.682   6.617   5.155 -0.4219  0.5009 -0.5657
  972TIP3   OH2 2868   7.587   5.750   5.380  0.0173  0.5780 -0.5994
  972TIP3    H1 2869   7.610   5.835   5.417  1.3567  1.0924 -2.5486
  972TIP3    H2 2870   7.502   5.729   5.418  1.3584  1.0296  2.8532
  973TIP3   OH2 2871   3.794   2.765   0.396 -0.3165 -1.1657  0.9808
  973TIP3    H1 2872   3.726   2.815   0.440  0.8925 -0.0366  1.6075
  973TIP3    H2 2873   3.835   2.712   0.465  0.3482 -0.8007  0.8737
  974TIP3   OH2 2874   3.735   6.195   5.982  0.2398  0.3611 -0.2264
  974TIP3    H1 2875   3.695   6.203   6.068  0.0443  0.4456 -0.3227
  974TIP3    H2 2876   3.695   6.265   5.930  0.4563  0.3978 -0.3463
  975TIP3   OH2 2877   3.658   1.611   0.373  0.4649 -0.1345 -0.3241
  975TIP3    H1 2878   3.748   1.624   0.343  0.7583 -2.0317 -0.3814
  975TIP3    H2 2879   3.621   1.548   0.311 -0.3821 -0.5783  0.6166
  976TIP3   OH2 2880   3.557   3.803   0.736 -0.0694 -0.4839  1.0603
  976TIP3    H1 2881   3.571   3.809   0.831 -1.5467  0.6092  1.2299
  976TIP3    H2 2882   3.462   3.806   0.726  0.1296  1.2092 -0.5590
  977TIP3   OH2 2883   3.166   1.769   0.866  0.5106 -0.2958  0.4471
  977TIP3    H1 2884   3.259   1.789   0.868  0.5605 -0.5073  0.2504
  977TIP3    H2 2885   3.141   1.781   0.774  0.6357 -1.5700  0.2364
  978TIP3   OH2 2886   3.574   4.627   0.343 -0.3674 -0.6134  0.4122
  978TIP3    H1 2887   3.571   4.658   0.253 -1.9260 -0.5555  0.4726
  978TIP3    H2 2888   3.601   4.535   0.336  1.8550  0.0391  0.0688
  979TIP3   OH2 2889   5.122   5.858   4.796  0.2661 -0.2439  0.0040
  979TIP3    H1 2890   5.052   5.907   4.840  1.5275  0.3602  1.3873
  979TIP3    H2 2891   5.085   5.771   4.784 -0.9147  0.2008  0.2385
  980TIP3   OH2 2892   7.592   0.410   5.807  0.1099  0.1561 -0.1801
  980TIP3    H1 2893   7.524   0.373   5.750 -0.4036 -0.1245  0.5997
  980TIP3    H2 2894   7.670   0.415   5.751 -0.3087 -0.3645 -0.8268
  981TIP3   OH2 2895   3.616   3.028   0.094  0.6764 -0.3664  0.5364
  981TIP3    H1 2896   3.532   2.988   0.072 -0.4342  0.6866  2.5994
  981TIP3    H2 2897   3.610   3.116   0.057  1.9669 -1.1496 -1.5837
  982TIP3   OH2 2898   6.779   0.741   6.413  0.1004 -0.3687 -0.5759
  982TIP3    H1 2899   6.753   0.649   6.408  0.2851 -0.3749 -1.4674
  982TIP3    H2 2900   6.868   0.740   6.448 -0.5493 -0.4252  1.1254
  983TIP3   OH2 2901   4.216   2.814   1.329  0.0774 -0.8560  0.0679
  983TIP3    H1 2902   4.219   2.770   1.244  0.7338 -2.3964  0.8768
  983TIP3    H2 2903   4.201   2.907   1.308 -1.8533 -1.5168 -1.6336
  984TIP3   OH2 2904   3.660   2.975   1.654 -0.0256  0.0169  0.1644
  984TIP3    H1 2905   3.596   2.970   1.583 -1.1494 -0.1283  1.1811
  984TIP3    H2 2906   3.696   3.064   1.647 -1.1329  0.4830  0.2704
  985TIP3   OH2 2907   3.318   1.226   0.122 -0.3255 -0.0110 -0.3487
  985TIP3    H1 2908   3.386   1.160   0.130 -0.2960  0.0456 -0.1453
  985TIP3    H2 2909   3.317   1.248   0.029 -0.1122 -0.0591 -0.3616
  986TIP3   OH2 2910   4.515   2.513   1.863 -0.3076  0.9427 -0.4619
  986TIP3    H1 2911   4.443   2.542   1.918 -0.6908  1.7899 -1.3790
  986TIP3    H2 2912   4.561   2.447   1.915 -1.1041  1.1763  0.5503
  987TIP3   OH2 2913   4.496   6.832   0.781 -0.0653  0.0954 -0.5027
  987TIP3    H1 2914   4.471   6.837   0.873 -3.1788 -1.2227 -1.1939
  987TIP3    H2 2915   4.431   6.772   0.742  1.9585 -0.3794 -3.2813
  988TIP3   OH2 2916   3.969   2.041   0.414  0.5487 -0.3703  0.2955
  988TIP3    H1 2917   3.906   2.087   0.469  0.2297 -0.6630  0.1783
  988TIP3    H2 2918   3.988   1.961   0.462  0.0936 -0.7376 -0.1198
  989TIP3   OH2 2919   4.217   3.058   2.270  0.1532  0.9350 -0.3367
  989TIP3    H1 2920   4.138   3.091   2.313  0.0722 -0.6990  0.8166
  989TIP3    H2 2921   4.286   3.066   2.336  0.4335  0.1215 -0.5316
  990TIP3   OH2 2922   4.322   1.639   0.205 -0.1042 -0.8211  0.0431
  990TIP3    H1 2923   4.275   1.643   0.122  1.0985  2.9975 -0.5108
  990TIP3    H2 2924   4.410   1.608   0.182 -0.4094 -1.8861  0.2465
  991TIP3   OH2 2925   4.837   5.916   6.211  0.0807 -0.0262  0.3031
  991TIP3    H1 2926   4.784   5.885   6.138 -1.2670  0.5580  1.0237
  991TIP3    H2 2927   4.774   5.951   6.274  1.5358  4.2221 -0.4891
  992TIP3   OH2 2928   3.932   0.973   1.015 -0.4901  0.0562  0.4629
  992TIP3    H1 2929   3.869   0.983   1.086  0.0910  1.3489  0.8073
  992TIP3    H2 2930   4.018   0.980   1.057 -0.1162 -1.2206 -0.0679
  993TIP3   OH2 2931   3.935   4.396   1.548 -0.4366  0.4296 -0.2658
  993TIP3    H1 2932   3.944   4.477   1.497 -0.0626 -0.3019 -1.3756
  993TIP3    H2 2933   3.983   4.414   1.628  0.5134  0.9495 -0.9379
  994TIP3   OH2 2934   5.486   3.086   0.247 -0.2146  0.0976 -0.6575
  994TIP3    H1 2935   5.505   3.001   0.207 -1.6647  0.2836 -1.8266
  994TIP3    H2 2936   5.484   3.147   0.173 -0.8879  0.8330 -0.0435
  995TIP3   OH2 2937   4.658   2.972   0.478  0.1650  0.3947  0.6022
  995TIP3    H1 2938   4.674   3.044   0.539 -1.7225  1.5152 -0.2058
  995TIP3    H2 2939   4.579   2.929   0.511  1.1750 -1.2359  0.9843
  996TIP3   OH2 2940   5.761   3.001   1.960 -0.0469 -0.2395 -0.0430
  996TIP3    H1 2941   5.793   2.977   2.047 -0.9301  0.0952  0.3785
  996TIP3    H2 2942   5.832   3.053   1.923 -0.3152  1.0109  1.1231
  997TIP3   OH2 2943   4.064   2.690   0.021  0.2521 -0.0722  0.8141
  997TIP3    H1 2944   4.083   2.598   0.003  1.4829  0.0370  1.4980
  997TIP3    H2 2945   4.081   2.700   0.114 -1.0533  0.5745  0.9911
  998TIP3   OH2 2946   4.429   1.620   1.001  0.2474  0.2886  0.8970
  998TIP3    H1 2947   4.356   1.674   0.973  0.8412  0.3722 -0.5578
  998TIP3    H2 2948   4.431   1.547   0.938  1.3109  0.2085  1.0065
  999TIP3   OH2 2949   0.199   2.281   5.288  0.6299 -0.6915 -0.1422
  999TIP3    H1 2950   0.269   2.346   5.276 -1.0722  1.3704  0.8981
  999TIP3    H2 2951   0.130   2.310   5.228 -0.0919 -1.6128  0.2490
 1000TIP3   OH2 2952   1.792   2.858   1.187 -0.2777 -0.4638  0.2829
 1000TIP3    H1 2953   1.811   2.788   1.126  2.1294  1.0975 -0.8332
 1000TIP3    H2 2954   1.796   2.817   1.274  0.4830 -1.8174 -0.3852
 1001TIP3   OH2 2955   3.373   3.304   2.450 -0.2476 -1.0056  0.0064
 1001TIP3    H1 2956   3.346   3.216   2.426  1.2624 -1.0419 -1.6062
 1001TIP3    H2 2957   3.440   3.328   2.386 -0.1133  1.0346  0.8535
 1002TIP3   OH2 2958   4.670   2.942   2.925  0.5823  0.3662  0.2505
 1002TIP3    H1 2959   4.761   2.930   2.954  1.1135  0.8538 -1.1629
 1002TIP3    H2 2960   4.659   3.037   2.919 -0.1019  0.3137  0.6464
 1003TIP3   OH2 2961   5.784   6.649   5.461  0.1980  0.3511  0.3303
 1003TIP3    H1 2962   5.830   6.729   5.485 -1.6824  1.7948 -0.7291
 1003TIP3    H2 2963   5.691   6.672   5.468 -0.3728 -1.7972  0.1662
 1004TIP3   OH2 2964   2.047   0.079   6.411  0.0678  0.0634 -0.0643
 1004TIP3    H1 2965   2.046   0.162   6.459  1.5788  0.1734 -0.2053
 1004TIP3    H2 2966   2.087   0.016   6.471  0.2067 -0.2429 -0.4781
 1005TIP3   OH2 2967   1.044   0.852   5.451  0.4813 -0.0106 -0.0288
 1005TIP3    H1 2968   1.094   0.780   5.412  1.0807 -0.6260  1.8106
 1005TIP3    H2 2969   0.960   0.813   5.474  0.6050  0.0245  0.4741
 1006TIP3   OH2 2970   1.703   3.805   1.388 -0.2212  0.0999  0.3148
 1006TIP3    H1 2971   1.737   3.877   1.334 -2.6542  1.6655  0.7985
 1006TIP3    H2 2972   1.642   3.847   1.448 -1.4299 -2.3464  0.8599
 1007TIP3   OH2 2973   3.406   1.329   1.441 -0.2805 -0.2187 -0.4777
 1007TIP3    H1 2974   3.379   1.238   1.430  0.9140 -0.4701 -1.4525
 1007TIP3    H2 2975   3.357   1.377   1.374 -0.9189 -0.1403  0.0438
 1008TIP3   OH2 2976   5.252   3.185   1.318 -0.1639 -0.1521 -0.2145
 1008TIP3    H1 2977   5.231   3.221   1.232  2.5253 -0.9514 -1.2737
 1008TIP3    H2 2978   5.343   3.212   1.333 -0.7942  0.5314  2.6815
 1009TIP3   OH2 2979   5.254   1.956   1.015  0.6040  0.2766 -0.0596
 1009TIP3    H1 2980   5.337   2.002   1.032  0.5266  0.2709  0.3505
 1009TIP3    H2 2981   5.205   2.015   0.957  0.7105  0.4875  0.0611
 1010TIP3   OH2 2982   5.166   4.816   6.141  0.0132 -0.2430 -0.1305
 1010TIP3    H1 2983   5.168   4.886   6.075 -0.5736 -0.3073 -0.2189
 1010TIP3    H2 2984   5.147   4.861   6.223  0.2101 -0.2283 -0.0931
 1011TIP3   OH2 2985   5.605   4.089   0.703 -0.5322  0.5394 -0.3711
 1011TIP3    H1 2986   5.653   4.124   0.778 -0.1630  0.3350 -0.5069
 1011TIP3    H2 2987   5.644   4.002   0.689  0.0328  0.9409 -1.3632
 1012TIP3   OH2 2988   5.685   6.040   3.707  0.6601 -0.2816  0.2143
 1012TIP3    H1 2989   5.764   6.039   3.652 -0.1314 -1.7475 -0.9188
 1012TIP3    H2 2990   5.650   6.128   3.697  1.6491  0.0984  0.0140
 1013TIP3   OH2 2991   4.726   2.392   2.048  0.1621  0.2014  0.3345
 1013TIP3    H1 2992   4.786   2.466   2.059 -0.5507  0.8774 -0.2536
 1013TIP3    H2 2993   4.782   2.318   2.027  0.5357  1.6546 -4.1331
 1014TIP3   OH2 2994   6.069   3.019   2.825  0.4787 -0.0886  0.5683
 1014TIP3    H1 2995   6.064   3.113   2.839 -0.9252  0.1782 -1.4529
 1014TIP3    H2 2996   5.998   2.983   2.879 -0.9320  0.3247 -0.9730
 1015TIP3   OH2 2997   1.815   3.792   1.970 -0.5280 -0.6034 -0.2649
 1015TIP3    H1 2998   1.762   3.713   1.985 -1.7542  0.5464  1.6438
 1015TIP3    H2 2999   1.892   3.779   2.025 -1.6764  0.3986  1.6351
 1016TIP3   OH2 3000   4.977   3.859   0.707  0.1826 -0.7434  0.1943
 1016TIP3    H1 3001   4.955   3.864   0.614 -2.0023 -0.6204  0.6879
 1016TIP3    H2 3002   4.990   3.950   0.733 -0.1545 -0.6977  0.2112
 1017TIP3   OH2 3003   3.770   7.277   6.262  0.4934 -1.1634 -0.1553
 1017TIP3    H1 3004   3.780   7.182   6.265 -0.3557 -1.3232 -1.6968
 1017TIP3    H2 3005   3.684   7.293   6.302 -0.1709 -1.2092 -1.5544
 1018TIP3   OH2 3006   0.387   6.082   5.635  0.1584  0.6316  0.0299
 1018TIP3    H1 3007   0.291   6.075   5.633  0.2701 -0.7094 -1.1910
 1018TIP3    H2 3008   0.408   6.141   5.563  0.4669 -2.0659 -2.1637
 1019TIP3   OH2 3009   5.443   3.574   0.411 -0.3575  0.6321 -0.1694
 1019TIP3    H1 3010   5.444   3.572   0.315 -0.4187  0.5878 -0.1695
 1019TIP3    H2 3011   5.509   3.511   0.438 -0.9576 -0.0048 -0.1786
 1020TIP3   OH2 3012   1.964   7.278   0.043  0.1752  0.2665 -0.7166
 1020TIP3    H1 3013   1.989   7.233   0.123  2.1135  0.5637 -1.1191
 1020TIP3    H2 3014   1.894   7.337   0.069  0.6100  0.1627  0.7120
 1021TIP3   OH2 3015   6.200   1.723   5.451 -0.0160 -0.7562  0.0768
 1021TIP3    H1 3016   6.227   1.635   5.424  1.1481 -0.4137  0.0762
 1021TIP3    H2 3017   6.264   1.781   5.410 -0.9902  0.1219 -0.2203
 1022TIP3   OH2 3018   3.061   2.796   1.073 -0.4430  0.1628 -0.4651
 1022TIP3    H1 3019   3.041   2.734   1.144  1.1767 -0.7600 -0.8033
 1022TIP3    H2 3020   3.134   2.848   1.107 -1.4953  1.6033 -0.3664
 1023TIP3   OH2 3021   1.804   0.104   6.310  0.2752 -0.4639  0.1055
 1023TIP3    H1 3022   1.821   0.088   6.218 -0.3204 -0.9962  0.0816
 1023TIP3    H2 3023   1.883   0.074   6.355  0.1344 -1.2149 -0.1459
 1024TIP3   OH2 3024   2.430   3.512   1.959 -0.4214 -0.1581 -0.5903
 1024TIP3    H1 3025   2.464   3.440   1.906  0.1505 -1.9233  2.0413
 1024TIP3    H2 3026   2.507   3.545   2.005 -1.2932 -0.3342  1.0173
 1025TIP3   OH2 3027   2.697   3.630   0.153 -0.2488 -0.0647 -0.2574
 1025TIP3    H1 3028   2.762   3.607   0.219 -0.7405  1.9605  0.9471
 1025TIP3    H2 3029   2.638   3.555   0.150  1.8262 -1.7159 -1.0147
 1026TIP3   OH2 3030   2.888   0.689   4.981  0.3350  0.6141 -0.1577
 1026TIP3    H1 3031   2.887   0.720   5.072  2.3874  0.5142 -0.0643
 1026TIP3    H2 3032   2.825   0.617   4.979 -0.4416  1.2523  0.9526
 1027TIP3   OH2 3033   7.122   7.029   6.346 -0.2568  0.0544  0.0269
 1027TIP3    H1 3034   7.082   7.073   6.421 -1.0297 -0.3970 -0.1113
 1027TIP3    H2 3035   7.082   6.941   6.346 -0.2634  0.0564 -0.9079
 1028TIP3   OH2 3036   2.024   0.078   5.166 -0.5369  0.2164 -0.3259
 1028TIP3    H1 3037   2.102   0.056   5.114 -0.0628 -0.4284  0.6517
 1028TIP3    H2 3038   1.979   0.144   5.113  1.6435  2.0037 -0.0395
 1029TIP3   OH2 3039   0.839   1.120   4.843  0.2010  0.0182 -0.2835
 1029TIP3    H1 3040   0.899   1.167   4.785 -0.7775  1.7582  0.0600
 1029TIP3    H2 3041   0.777   1.187   4.871 -0.6937 -1.3137  0.9592
 1030TIP3   OH2 3042   4.207   0.096   5.103  0.7790 -0.2066  0.2776
 1030TIP3    H1 3043   4.278   0.113   5.166 -0.0477  0.0241  1.1604
 1030TIP3    H2 3044   4.203   0.001   5.096  0.6267 -0.2430  0.8611
 1031TIP3   OH2 3045   0.570   2.003   5.770  0.0574  0.1027  0.2509
 1031TIP3    H1 3046   0.648   2.054   5.749  0.5415 -1.2183 -1.2575
 1031TIP3    H2 3047   0.601   1.913   5.774 -1.3388 -0.4051 -0.0990
 1032TIP3   OH2 3048   2.196   4.790   1.837 -0.3046 -0.4133  0.6339
 1032TIP3    H1 3049   2.167   4.882   1.842  0.5997 -0.0291 -0.7775
 1032TIP3    H2 3050   2.117   4.742   1.813 -0.8383 -0.0317  1.6019
 1033TIP3   OH2 3051   1.172   4.022   0.544 -0.1475 -0.6129  0.4144
 1033TIP3    H1 3052   1.156   4.116   0.532  1.3333 -0.2710  0.9844
 1033TIP3    H2 3053   1.089   3.987   0.578  0.1658  1.0031  2.9698
 1034TIP3   OH2 3054   3.664   4.606   0.776 -0.3527  0.1116 -0.1368
 1034TIP3    H1 3055   3.631   4.539   0.836 -2.0763  0.3086 -0.8500
 1034TIP3    H2 3056   3.593   4.668   0.767  1.2833  2.1370  0.5927
 1035TIP3   OH2 3057   3.526   4.576   2.261  0.6758  0.2215  0.6184
 1035TIP3    H1 3058   3.433   4.599   2.261  0.2837 -1.2079  3.3314
 1035TIP3    H2 3059   3.547   4.558   2.352  3.4803 -0.1516 -0.0352
 1036TIP3   OH2 3060   2.876   5.101   2.058 -0.0250 -0.3106  0.4288
 1036TIP3    H1 3061   2.874   5.008   2.037 -0.0298 -0.8859  2.8716
 1036TIP3    H2 3062   2.969   5.122   2.063 -0.0224 -0.1069 -0.4013
 1037TIP3   OH2 3063   3.529   3.736   2.155  0.4952 -0.0434 -0.5818
 1037TIP3    H1 3064   3.556   3.691   2.235 -0.7592  0.3908  0.1086
 1037TIP3    H2 3065   3.444   3.698   2.133  1.8420 -1.8056 -3.0400
 1038TIP3   OH2 3066   6.741   7.226   5.593 -0.1530  0.1623  0.2259
 1038TIP3    H1 3067   6.733   7.130   5.591  2.2932 -0.1111  2.2062
 1038TIP3    H2 3068   6.737   7.252   5.501  2.4793 -2.1665 -0.6145
 1039TIP3   OH2 3069   3.797   4.180   2.995  0.3663  0.2653  0.1902
 1039TIP3    H1 3070   3.871   4.238   2.976 -0.3403  0.9368 -0.5612
 1039TIP3    H2 3071   3.728   4.209   2.935  0.1643 -1.6840 -0.5559
 1040TIP3   OH2 3072   3.548   2.870   0.543  0.3058  0.0637  0.2568
 1040TIP3    H1 3073   3.588   2.939   0.490  0.8009 -0.3555  0.0800
 1040TIP3    H2 3074   3.458   2.899   0.556  0.2433  0.2927 -0.6153
 1041TIP3   OH2 3075   2.806   3.315   1.158 -0.1890  0.0716  0.4971
 1041TIP3    H1 3076   2.766   3.297   1.243 -0.6763  0.1213  0.2838
 1041TIP3    H2 3077   2.888   3.265   1.158  1.2581  2.3959  2.1302
 1042TIP3   OH2 3078   7.661   5.841   6.123  0.9009  0.5366  0.4182
 1042TIP3    H1 3079   7.750   5.875   6.123 -0.0939  3.3160 -1.2114
 1042TIP3    H2 3080   7.649   5.804   6.036  1.1133 -1.7980  1.3348
 1043TIP3   OH2 3081   3.471   2.248   0.042 -0.8149  0.0865  0.3569
 1043TIP3    H1 3082   3.533   2.185   0.076  1.2718  0.9957 -1.6201
 1043TIP3    H2 3083   3.385   2.209   0.057  0.4189 -3.0261 -0.4488
 1044TIP3   OH2 3084   4.194   4.897   0.164 -0.3033 -0.1741 -0.5209
 1044TIP3    H1 3085   4.216   4.973   0.217 -1.1715  0.2675 -0.7894
 1044TIP3    H2 3086   4.227   4.918   0.077 -0.4243 -0.1684 -0.5648
 1045TIP3   OH2 3087   2.850   2.125   1.024  0.0004  0.1244  0.1384
 1045TIP3    H1 3088   2.936   2.092   1.053 -1.1520 -1.1572  2.2508
 1045TIP3    H2 3089   2.864   2.219   1.012  1.5709  0.0360  1.0192
 1046TIP3   OH2 3090   5.130   3.282   2.831 -0.2490  0.0671  0.2738
 1046TIP3    H1 3091   5.195   3.288   2.761  0.2139  1.2099  0.7883
 1046TIP3    H2 3092   5.105   3.190   2.833  0.7266 -0.2180 -0.5031
 1047TIP3   OH2 3093   4.710   3.476   1.862  0.2126  0.3852 -0.0522
 1047TIP3    H1 3094   4.616   3.479   1.878  0.2643 -0.9670  0.5658
 1047TIP3    H2 3095   4.723   3.530   1.784 -1.1043  0.3859 -0.2788
 1048TIP3   OH2 3096   4.036   3.747   2.804 -0.0033  0.0358 -0.3603
 1048TIP3    H1 3097   4.080   3.785   2.727 -0.2924 -0.6387 -0.8677
 1048TIP3    H2 3098   3.943   3.760   2.787 -0.0771 -0.3155 -0.2254
 1049TIP3   OH2 3099   3.127   3.929   2.686  0.0174 -0.5798 -0.2440
 1049TIP3    H1 3100   3.208   3.914   2.637  0.1782 -2.1375  0.4514
 1049TIP3    H2 3101   3.068   3.860   2.656 -0.8700  0.2053 -0.3294
 1050TIP3   OH2 3102   5.005   2.394   0.450  0.2352  0.2736 -0.3524
 1050TIP3    H1 3103   5.087   2.374   0.495 -0.1338  0.3090  0.3336
 1050TIP3    H2 3104   5.014   2.486   0.423  1.1221 -0.2184 -1.7870
 1051TIP3   OH2 3105   2.150   2.797   3.156  0.3195 -0.5278  0.0368
 1051TIP3    H1 3106   2.130   2.758   3.070 -1.6144 -0.0965  0.2633
 1051TIP3    H2 3107   2.135   2.891   3.143 -0.8440 -0.5628  1.0670
 1052TIP3   OH2 3108   5.067   2.752   0.738 -0.3705  0.5536 -0.2972
 1052TIP3    H1 3109   5.042   2.780   0.650  1.3948  1.4411 -0.5350
 1052TIP3    H2 3110   5.086   2.834   0.785  0.4643  0.0018  0.3467
 1053TIP3   OH2 3111   2.546   2.454   2.030 -0.2010 -0.7801  0.1866
 1053TIP3    H1 3112   2.584   2.392   2.092  0.0292  3.2707  4.3585
 1053TIP3    H2 3113   2.618   2.478   1.972  0.5244 -1.9013  0.6192
 1054TIP3   OH2 3114   3.734   1.813   2.082 -0.2244 -0.0541  0.1079
 1054TIP3    H1 3115   3.686   1.887   2.046 -0.7819 -0.3552  0.2249
 1054TIP3    H2 3116   3.687   1.791   2.162 -2.3135 -2.8751 -1.7817
 1055TIP3   OH2 3117   2.684   4.288   0.930 -0.0124  0.3467 -0.1335
 1055TIP3    H1 3118   2.656   4.268   0.841 -2.4655 -0.4873  0.7799
 1055TIP3    H2 3119   2.694   4.383   0.932 -0.9744  0.4678 -1.0194
 1056TIP3   OH2 3120   1.113   3.242   2.060 -0.3373 -0.3644 -0.5144
 1056TIP3    H1 3121   1.127   3.337   2.068 -1.4571 -0.2630  0.4762
 1056TIP3    H2 3122   1.201   3.205   2.061  0.0638  0.5784  0.4922
 1057TIP3   OH2 3123   3.651   2.716   0.738 -0.8814  0.4525  0.4864
 1057TIP3    H1 3124   3.680   2.786   0.796 -0.3480  0.5751  0.0786
 1057TIP3    H2 3125   3.606   2.761   0.667  0.3201  0.4584 -0.2811
 1058TIP3   OH2 3126   4.449   1.813   4.230  0.3893  0.1750  0.0277
 1058TIP3    H1 3127   4.476   1.866   4.305 -0.2572  0.5139  0.0191
 1058TIP3    H2 3128   4.440   1.876   4.158  1.4899 -0.2127 -0.4653
 1059TIP3   OH2 3129   7.425   6.947   5.819  0.4147 -0.2985 -0.3743
 1059TIP3    H1 3130   7.342   6.899   5.819  0.3282 -0.1854  1.4092
 1059TIP3    H2 3131   7.417   7.007   5.893  2.7523 -1.4502  0.8723
 1060TIP3   OH2 3132   0.616   4.421   1.478 -0.0287 -0.1209 -0.5425
 1060TIP3    H1 3133   0.548   4.356   1.465 -2.9893  2.5976  0.5988
 1060TIP3    H2 3134   0.605   4.450   1.569  3.2435 -0.1871 -0.0399
 1061TIP3   OH2 3135   5.538   2.908   0.599 -0.1955 -0.8764 -0.3509
 1061TIP3    H1 3136   5.514   2.943   0.685 -0.8259 -0.2685 -0.7604
 1061TIP3    H2 3137   5.601   2.970   0.564  0.2032 -1.2245 -0.2466
 1062TIP3   OH2 3138   3.518   5.569   1.757 -0.1359  0.3947 -0.2167
 1062TIP3    H1 3139   3.578   5.580   1.831  0.5273 -0.9927 -0.5214
 1062TIP3    H2 3140   3.431   5.575   1.796  0.1509  3.0967  0.1338
 1063TIP3   OH2 3141   4.671   4.034   1.334 -0.7514  0.4484  0.2835
 1063TIP3    H1 3142   4.696   4.127   1.338 -0.6042  0.3897  0.7836
 1063TIP3    H2 3143   4.687   4.002   1.422 -2.2724  0.3202  0.5114
 1064TIP3   OH2 3144   2.382   2.945   1.956 -0.4727 -0.5338 -0.7258
 1064TIP3    H1 3145   2.290   2.920   1.946 -0.2315 -2.7878  1.9850
 1064TIP3    H2 3146   2.429   2.862   1.966  1.5110  0.6673  0.2671
 1065TIP3   OH2 3147   5.961   6.557   2.723  0.0038  0.0358  0.0800
 1065TIP3    H1 3148   5.882   6.599   2.688  0.7874  2.1323  0.7401
 1065TIP3    H2 3149   5.939   6.534   2.813 -0.6740 -1.7013 -0.5088
 1066TIP3   OH2 3150   5.882   2.933   3.209 -0.0763 -0.1599 -0.2178
 1066TIP3    H1 3151   5.972   2.964   3.209  0.0958 -0.5849  2.1874
 1066TIP3    H2 3152   5.855   2.939   3.117  1.9078  1.3408 -0.7463
 1067TIP3   OH2 3153   5.781   7.171   6.254  0.1726 -0.0822  0.9470
 1067TIP3    H1 3154   5.709   7.184   6.315  0.6626 -0.4783  1.6067
 1067TIP3    H2 3155   5.817   7.259   6.240 -0.2965  0.0863  0.7793
 1068TIP3   OH2 3156   0.802   0.291   5.114 -0.0738 -0.3940  0.8216
 1068TIP3    H1 3157   0.791   0.354   5.185 -2.9094  2.5360 -2.0311
 1068TIP3    H2 3158   0.867   0.330   5.056 -0.5845 -0.9009 -0.1187
 1069TIP3   OH2 3159   2.211   1.239   5.347  0.1610  0.4526 -0.6997
 1069TIP3    H1 3160   2.192   1.217   5.256  0.1828 -0.5725 -0.4643
 1069TIP3    H2 3161   2.307   1.236   5.352  0.2143  1.7244 -0.9377
 1070TIP3   OH2 3162   0.279   5.454   1.051  0.0307  0.5287 -0.1377
 1070TIP3    H1 3163   0.209   5.517   1.068  0.2607  0.3231  1.6285
 1070TIP3    H2 3164   0.244   5.371   1.082 -0.0199 -0.1194 -1.8772
 1071TIP3   OH2 3165   4.226   1.738   2.473  0.4670 -0.2341 -0.1963
 1071TIP3    H1 3166   4.152   1.759   2.529  0.3577  0.2266 -0.5139
 1071TIP3    H2 3167   4.188   1.694   2.397  0.3219  1.5674 -1.1974
 1072TIP3   OH2 3168   6.480   2.598   3.831 -0.3519  0.0153 -0.4256
 1072TIP3    H1 3169   6.558   2.650   3.849 -0.0133 -0.8400  0.6481
 1072TIP3    H2 3170   6.421   2.659   3.786 -0.3990  1.6655  1.7479
 1073TIP3   OH2 3171   5.951   6.114   5.311 -0.1427  0.7504  0.6161
 1073TIP3    H1 3172   5.935   6.099   5.217  3.0774 -0.7243  0.2143
 1073TIP3    H2 3173   5.963   6.026   5.347  1.5951  1.4243  1.7874
 1074TIP3   OH2 3174   6.708   5.774   3.929 -1.0224  0.0734 -0.1990
 1074TIP3    H1 3175   6.754   5.851   3.961 -0.1555 -0.4488 -0.1929
 1074TIP3    H2 3176   6.653   5.807   3.858  0.0526  0.5376 -0.8250
 1075TIP3   OH2 3177   6.273   4.452   0.278 -0.6378  0.2514 -0.1412
 1075TIP3    H1 3178   6.183   4.441   0.249 -0.8229 -0.3247  0.6440
 1075TIP3    H2 3179   6.295   4.542   0.252 -1.3905  0.3531 -0.4487
 1076TIP3   OH2 3180   5.238   3.123   3.096  0.5155  0.2640 -0.3042
 1076TIP3    H1 3181   5.214   3.080   3.014 -1.2589  0.2941  0.1763
 1076TIP3    H2 3182   5.316   3.174   3.074 -0.3058  0.7844 -2.1430
 1077TIP3   OH2 3183   2.904   4.242   0.315  0.3491 -0.2333  0.4592
 1077TIP3    H1 3184   2.832   4.207   0.263  0.3119 -0.9727  0.9955
 1077TIP3    H2 3185   2.866   4.318   0.360  0.2503  0.1153 -0.2106
 1078TIP3   OH2 3186   3.936   1.369   0.793 -0.2451 -0.1670  0.1552
 1078TIP3    H1 3187   3.980   1.287   0.818  0.0828 -0.1038 -0.2115
 1078TIP3    H2 3188   3.878   1.345   0.721  1.0835  0.2250 -1.0855
 1079TIP3   OH2 3189   6.480   5.416   6.354 -0.0884 -0.1075  0.2155
 1079TIP3    H1 3190   6.543   5.454   6.415  0.0006  2.6225 -1.4612
 1079TIP3    H2 3191   6.525   5.340   6.317  0.2346 -1.1864  2.7632
 1080TIP3   OH2 3192   4.141   0.319   1.193 -0.5653 -0.0447 -0.6149
 1080TIP3    H1 3193   4.213   0.322   1.130  2.0323  0.7363  2.2835
 1080TIP3    H2 3194   4.115   0.410   1.204  0.3747  0.0521  0.9320
 1081TIP3   OH2 3195   2.074   3.966   0.474 -0.6543 -0.3610 -0.5359
 1081TIP3    H1 3196   2.081   4.013   0.557 -0.2628  1.4048 -1.5382
 1081TIP3    H2 3197   2.062   4.035   0.408 -0.3885 -1.6881 -2.0079
 1082TIP3   OH2 3198   2.971   3.054   2.328 -0.1244  0.5525  0.3501
 1082TIP3    H1 3199   3.021   3.002   2.266 -1.1622  0.2177 -0.2276
 1082TIP3    H2 3200   2.964   3.140   2.288  0.8883  0.9127  0.9257
 1083TIP3   OH2 3201   0.317   5.765   5.698 -0.3737 -0.2831  0.2105
 1083TIP3    H1 3202   0.303   5.841   5.642 -0.7620 -0.9017 -0.5532
 1083TIP3    H2 3203   0.325   5.801   5.786  0.8604  0.7510 -0.3134
 1084TIP3   OH2 3204   2.133   2.893   0.806  0.0309 -0.2060 -0.1006
 1084TIP3    H1 3205   2.090   2.947   0.740  1.2986 -0.2840 -0.9848
 1084TIP3    H2 3206   2.130   2.805   0.770 -0.9211 -0.5514  0.7881
 1085TIP3   OH2 3207   3.018   0.449   6.349 -0.3789 -0.4679  0.2995
 1085TIP3    H1 3208   3.110   0.428   6.366 -0.3395 -0.6912 -0.1699
 1085TIP3    H2 3209   2.978   0.453   6.436  0.6893  2.6279  0.7123
 1086TIP3   OH2 3210   3.293   1.548   0.658 -0.4795  0.2203  0.1781
 1086TIP3    H1 3211   3.272   1.457   0.680 -0.5461  0.6172  1.7649
 1086TIP3    H2 3212   3.212   1.597   0.675  0.4850  1.0854  2.3718
 1087TIP3   OH2 3213   3.029   4.775   0.932  0.0665  0.3123 -0.3926
 1087TIP3    H1 3214   3.076   4.731   1.003 -0.5763 -1.1166 -0.8300
 1087TIP3    H2 3215   3.008   4.705   0.871 -1.2835  1.1813 -0.9424
 1088TIP3   OH2 3216   1.295   2.001   3.795  0.4153 -0.2146  0.4702
 1088TIP3    H1 3217   1.205   1.985   3.823  0.8514 -0.3301  1.8631
 1088TIP3    H2 3218   1.334   1.913   3.790  1.2707 -0.0098  2.7879
 1089TIP3   OH2 3219   6.809   3.294   2.159  0.0445 -0.1671 -0.3074
 1089TIP3    H1 3220   6.843   3.338   2.081 -0.8328 -0.3693 -0.8164
 1089TIP3    H2 3221   6.730   3.250   2.128 -2.1008  2.3655  1.3972
 1090TIP3   OH2 3222   4.753   3.998   1.596 -0.4661  0.1778 -0.1210
 1090TIP3    H1 3223   4.711   4.059   1.657 -2.1938 -1.2416  0.1508
 1090TIP3    H2 3224   4.836   3.975   1.638  0.0232  2.0216 -0.0519
 1091TIP3   OH2 3225   1.233   5.367   6.256  0.0564 -0.4664  0.4179
 1091TIP3    H1 3226   1.161   5.422   6.223 -0.0731 -1.2933 -0.7189
 1091TIP3    H2 3227   1.238   5.387   6.349  0.2347  1.7245 -0.0375
 1092TIP3   OH2 3228   2.618   3.890   0.085  0.3273 -0.1496 -0.0280
 1092TIP3    H1 3229   2.639   3.798   0.102  1.4701 -0.1950 -1.5712
 1092TIP3    H2 3230   2.668   3.939   0.151  0.0335 -0.6067  0.5332
 1093TIP3   OH2 3231   3.839   4.144   2.103 -0.1878 -0.3952 -0.3020
 1093TIP3    H1 3232   3.756   4.108   2.135 -2.1017  2.0471 -2.2649
 1093TIP3    H2 3233   3.861   4.213   2.166 -0.3092 -0.2395 -0.4276
 1094TIP3   OH2 3234   7.528   1.938   6.414  0.2540 -0.1608  0.2894
 1094TIP3    H1 3235   7.546   1.848   6.387 -1.5233 -0.4842  0.0771
 1094TIP3    H2 3236   7.432   1.942   6.421  0.3800  1.3637  1.5000
 1095TIP3   OH2 3237   7.589   0.362   5.055 -0.5590  0.2929  0.1506
 1095TIP3    H1 3238   7.537   0.390   5.130 -0.3175 -1.1157  0.8653
 1095TIP3    H2 3239   7.656   0.305   5.092 -0.6335 -0.6825 -1.1723
 1096TIP3   OH2 3240   5.414   7.107   5.870 -0.1938  0.2656 -0.1616
 1096TIP3    H1 3241   5.500   7.143   5.846 -0.7032  0.8652 -1.1016
 1096TIP3    H2 3242   5.427   7.072   5.958  1.5547 -1.4337 -1.0458
 1097TIP3   OH2 3243   7.184   5.520   4.811  0.3647 -0.2183 -0.1277
 1097TIP3    H1 3244   7.206   5.540   4.720  0.9005 -0.3003 -0.0202
 1097TIP3    H2 3245   7.145   5.601   4.844  2.9412  0.8436  0.4319
 1098TIP3   OH2 3246   1.321   2.894   0.067  0.1781  0.0328 -0.3242
 1098TIP3    H1 3247   1.323   2.798   0.065  1.6635  0.0678 -1.0879
 1098TIP3    H2 3248   1.388   2.919   0.130  2.1810  0.6176 -2.5969
 1099TIP3   OH2 3249   2.843   2.238   0.389  0.0358 -0.3430 -0.0615
 1099TIP3    H1 3250   2.772   2.283   0.344 -1.3205 -1.2790  1.0803
 1099TIP3    H2 3251   2.867   2.297   0.461 -0.9539 -0.8882  0.7375
 1100TIP3   OH2 3252   5.137   6.831   5.065  0.1528 -0.7011  0.0497
 1100TIP3    H1 3253   5.179   6.903   5.111 -1.9605  0.4304  0.2275
 1100TIP3    H2 3254   5.047   6.831   5.095 -0.3097 -2.3767 -1.2011
 1101TIP3   OH2 3255   4.903   4.469   0.200 -0.1897  0.2927  0.2090
 1101TIP3    H1 3256   4.873   4.379   0.186  0.2118  0.0675  0.7657
 1101TIP3    H2 3257   4.823   4.518   0.218 -0.3690 -0.0274  0.2882
 1102TIP3   OH2 3258   0.253   0.947   5.237 -0.0172  0.1952 -0.2323
 1102TIP3    H1 3259   0.287   0.859   5.253  0.2661  0.3999  0.2894
 1102TIP3    H2 3260   0.311   1.005   5.287  1.5053  0.9215 -2.7409
 1103TIP3   OH2 3261   2.423   1.671   0.316 -1.0173  0.4197  0.0150
 1103TIP3    H1 3262   2.469   1.754   0.301 -0.8026  0.4324  0.7494
 1103TIP3    H2 3263   2.348   1.674   0.256 -1.2994  1.3738  0.4074
 1104TIP3   OH2 3264   7.005   0.923   5.464  0.4476 -0.2017  0.3900
 1104TIP3    H1 3265   7.075   0.865   5.434  0.5088 -1.6390  3.1550
 1104TIP3    H2 3266   6.972   0.881   5.543  0.5172  3.5658  2.5057
 1105TIP3   OH2 3267   1.118   0.360   5.906 -0.0222  0.0650 -0.1813
 1105TIP3    H1 3268   1.186   0.299   5.877 -1.7228 -2.0391  0.1777
 1105TIP3    H2 3269   1.157   0.404   5.982  1.3013 -0.4149 -0.5632
 1106TIP3   OH2 3270   5.384   1.940   0.061 -0.0067 -0.0888 -0.6805
 1106TIP3    H1 3271   5.473   1.977   0.066 -0.3732  1.3400 -3.4295
 1106TIP3    H2 3272   5.327   2.017   0.058 -1.2255 -0.9852 -0.5358
 1107TIP3   OH2 3273   6.335   4.670   6.078  0.7392 -0.0998 -0.0448
 1107TIP3    H1 3274   6.368   4.741   6.022  2.5781 -0.0971  1.0076
 1107TIP3    H2 3275   6.402   4.660   6.145 -1.4271 -0.0888  2.1913
 1108TIP3   OH2 3276   5.284   5.803   6.305 -0.2930 -0.7771 -0.1342
 1108TIP3    H1 3277   5.351   5.841   6.248  0.3495 -1.9243 -0.1437
 1108TIP3    H2 3278   5.316   5.819   6.394  0.4118 -2.0538 -0.1471
 1109TIP3   OH2 3279   2.447   3.061   1.640  0.3734 -0.2667  0.0129
 1109TIP3    H1 3280   2.389   3.015   1.700  0.7511 -0.7549  0.0088
 1109TIP3    H2 3281   2.475   3.139   1.688  0.6075 -0.6102  0.4344
 1110TIP3   OH2 3282   5.042   2.958   0.547 -0.1530 -0.6367  0.2232
 1110TIP3    H1 3283   4.994   3.013   0.608 -0.7826  0.1034 -0.9102
 1110TIP3    H2 3284   5.121   3.008   0.526  0.4374 -1.2349  1.0277
 1111TIP3   OH2 3285   2.998   4.145   2.557  0.0122 -0.7976  0.3202
 1111TIP3    H1 3286   2.945   4.193   2.620 -1.0564 -3.0430  1.1796
 1111TIP3    H2 3287   3.060   4.095   2.610  1.1573 -0.3189 -0.5564
 1112TIP3   OH2 3288   4.107   7.180   6.284 -0.3371 -0.2754 -0.5090
 1112TIP3    H1 3289   4.074   7.264   6.251  1.2670  0.1397 -1.1166
 1112TIP3    H2 3290   4.097   7.120   6.210  2.1586  0.3700 -1.4514
 1113TIP3   OH2 3291   1.461   3.141   1.312 -0.5928  0.0506 -0.0493
 1113TIP3    H1 3292   1.402   3.088   1.366  1.1107 -0.9227  0.9007
 1113TIP3    H2 3293   1.440   3.231   1.335 -0.3335 -0.3459  1.7836
 1114TIP3   OH2 3294   5.179   5.710   6.017  0.1350  0.5439  0.3122
 1114TIP3    H1 3295   5.244   5.690   5.949 -0.6654  1.9275 -0.9163
 1114TIP3    H2 3296   5.226   5.764   6.080  0.5366  0.4044  0.1350
 1115TIP3   OH2 3297   0.756   0.810   5.399 -0.4314  0.3851  0.0160
 1115TIP3    H1 3298   0.749   0.776   5.310 -0.6315 -0.7720  0.4660
 1115TIP3    H2 3299   0.724   0.900   5.393  0.3763  0.5882 -1.2431
 1116TIP3   OH2 3300   2.936   2.778   4.163  0.4308  0.4979 -0.2453
 1116TIP3    H1 3301   2.851   2.799   4.124 -1.2458 -2.5927  1.5330
 1116TIP3    H2 3302   2.958   2.853   4.217  0.1133  2.4439 -2.7401
 1117TIP3   OH2 3303   7.414   3.003   1.977 -0.3831 -0.3524  0.1724
 1117TIP3    H1 3304   7.474   3.064   1.934  1.1269 -2.0606 -0.2198
 1117TIP3    H2 3305   7.439   3.006   2.069  0.3291 -1.0489  0.0119
 1118TIP3   OH2 3306   6.452   3.740   1.815  0.1331  0.4199  0.2650
 1118TIP3    H1 3307   6.486   3.799   1.747  0.5152  1.7041  1.5404
 1118TIP3    H2 3308   6.380   3.694   1.773  0.9572  0.5238 -1.2947
 1119TIP3   OH2 3309   7.141   5.657   5.179 -0.1230 -0.3055 -0.6532
 1119TIP3    H1 3310   7.225   5.657   5.134  0.1853 -1.0559 -0.0928
 1119TIP3    H2 3311   7.077   5.675   5.110  0.6631  2.5675 -0.6977
 1120TIP3   OH2 3312   2.414   0.251   4.998  0.1794 -0.1085 -0.1277
 1120TIP3    H1 3313   2.451   0.304   5.068 -1.7621  0.7120  0.3030
 1120TIP3    H2 3314   2.453   0.287   4.918  2.6268 -1.2364  0.4886
 1121TIP3   OH2 3315   7.041   3.107   0.807 -0.4838  0.3004 -0.0139
 1121TIP3    H1 3316   7.045   3.178   0.870 -0.6385 -0.4235  0.8131
 1121TIP3    H2 3317   6.958   3.122   0.760 -1.3129 -0.2547  1.2558
 1122TIP3   OH2 3318   5.237   3.439   0.527 -0.3681 -0.0649  0.1014
 1122TIP3    H1 3319   5.199   3.506   0.584  0.6311  1.8496 -1.4153
 1122TIP3    H2 3320   5.320   3.477   0.498  0.3544 -2.0946 -0.5965
 1123TIP3   OH2 3321   6.750   4.040   0.076 -0.2476  0.2559 -0.1954
 1123TIP3    H1 3322   6.838   4.053   0.113 -0.5218 -0.3811  0.6809
 1123TIP3    H2 3323   6.691   4.075   0.141 -0.6945 -0.1459 -0.3803
 1124TIP3   OH2 3324   6.251   3.971   0.826 -0.1681 -1.0896 -0.3685
 1124TIP3    H1 3325   6.264   3.927   0.742 -1.3949 -1.9622 -0.1169
 1124TIP3    H2 3326   6.260   4.064   0.806 -0.0499 -1.3133 -1.3865
 1125TIP3   OH2 3327   4.711   3.089   0.968 -0.7069  0.0655 -0.0270
 1125TIP3    H1 3328   4.770   3.077   0.894  1.3430 -1.4930  1.7720
 1125TIP3    H2 3329   4.710   3.004   1.012 -4.0355  0.1555  0.2307
 1126TIP3   OH2 3330   0.131   5.883   6.286 -0.0320 -0.0326 -0.4266
 1126TIP3    H1 3331   0.080   5.911   6.210  0.9770  2.5995 -0.1907
 1126TIP3    H2 3332   0.067   5.874   6.357 -0.4669  1.1959 -0.6579
 1127TIP3   OH2 3333   7.888   5.989   6.059 -0.1797  0.9530  0.0568
 1127TIP3    H1 3334   7.912   6.004   5.967 -2.3368  2.0610 -0.3512
 1127TIP3    H2 3335   7.859   6.075   6.090  1.7530  0.8771  2.1738
 1128TIP3   OH2 3336   3.234   0.308   5.574  0.2759 -0.4141 -0.0611
 1128TIP3    H1 3337   3.228   0.214   5.559 -0.9069 -0.2913 -0.3506
 1128TIP3    H2 3338   3.203   0.348   5.493 -0.0367  0.2329  0.3728
 1129TIP3   OH2 3339   4.409   2.452   0.964 -0.4303  0.5539 -0.0278
 1129TIP3    H1 3340   4.323   2.444   1.005 -0.4500  1.6433  0.1558
 1129TIP3    H2 3341   4.390   2.463   0.871 -0.5266  1.6656  0.1209
 1130TIP3   OH2 3342   0.513   6.081   5.908  0.0518 -0.2437  0.6549
 1130TIP3    H1 3343   0.445   6.099   5.973  0.2851  0.1730  0.7888
 1130TIP3    H2 3344   0.474   6.109   5.825 -0.1815 -0.6118  0.6423
 1131TIP3   OH2 3345   0.420   5.134   5.177  0.0962  0.3110 -0.9368
 1131TIP3    H1 3346   0.448   5.221   5.148 -2.3742  0.5593 -2.6823
 1131TIP3    H2 3347   0.467   5.074   5.118  0.4147  0.5230 -0.9046
 1132TIP3   OH2 3348   0.584   6.829   4.796  0.2516 -0.4458 -0.2139
 1132TIP3    H1 3349   0.591   6.733   4.798  0.4106 -0.4317 -0.1152
 1132TIP3    H2 3350   0.509   6.849   4.853 -0.7894 -0.6152 -1.4926
 1133TIP3   OH2 3351   2.720   1.013   5.789 -0.1082  0.5556 -0.7293
 1133TIP3    H1 3352   2.654   0.994   5.723  0.7566  0.6211 -1.6363
 1133TIP3    H2 3353   2.803   0.988   5.747  0.3375 -0.5346  0.7695
 1134TIP3   OH2 3354   5.211   4.225   1.282 -0.2131  0.1221  0.5554
 1134TIP3    H1 3355   5.245   4.156   1.339  1.0364 -0.1505 -0.4947
 1134TIP3    H2 3356   5.198   4.182   1.197 -1.2480  0.7174  0.4077
 1135TIP3   OH2 3357   5.678   4.590   1.975 -0.3186 -0.0782  0.2051
 1135TIP3    H1 3358   5.591   4.553   1.987  0.3874 -1.8392  0.1280
 1135TIP3    H2 3359   5.727   4.561   2.052  0.6529 -0.5518 -0.5749
 1136TIP3   OH2 3360   3.215   1.154   0.372  0.2317 -0.5620  0.1023
 1136TIP3    H1 3361   3.123   1.128   0.366  0.8797 -2.6429 -1.6387
 1136TIP3    H2 3362   3.249   1.143   0.283  1.9358  1.1273  0.5097
 1137TIP3   OH2 3363   4.287   6.156   0.851  0.2527  0.1836 -0.2100
 1137TIP3    H1 3364   4.340   6.077   0.854  0.2098  0.1746  0.4162
 1137TIP3    H2 3365   4.336   6.220   0.903 -0.6194  0.0075  0.8301
 1138TIP3   OH2 3366   0.605   1.307   6.207 -0.6653  0.8978 -0.1230
 1138TIP3    H1 3367   0.520   1.295   6.250  0.1200  2.3427  1.9011
 1138TIP3    H2 3368   0.605   1.242   6.137 -1.7775 -1.9892  2.4050
 1139TIP3   OH2 3369   2.424   0.846   5.881 -0.2676 -0.7383 -0.0328
 1139TIP3    H1 3370   2.408   0.915   5.818 -3.6595 -1.2277  0.1959
 1139TIP3    H2 3371   2.445   0.769   5.828  0.7997 -0.2239 -0.3741
 1140TIP3   OH2 3372   6.027   3.653   1.113 -0.2944  0.3014 -0.2801
 1140TIP3    H1 3373   6.074   3.650   1.197  0.6037  0.8689 -0.7584
 1140TIP3    H2 3374   5.965   3.580   1.118  0.1266 -0.0029  0.6625
 1141TIP3   OH2 3375   2.196   5.519   4.377  0.3081 -0.7980  0.4160
 1141TIP3    H1 3376   2.177   5.439   4.329 -0.6422 -0.4258  0.1596
 1141TIP3    H2 3377   2.172   5.590   4.317  0.0184 -0.3297  1.0687
 1142TIP3   OH2 3378   5.039   2.022   0.336  0.1766 -0.3094  0.1926
 1142TIP3    H1 3379   5.034   2.104   0.286  0.8708 -1.0409 -1.1183
 1142TIP3    H2 3380   5.017   1.954   0.272  2.3186 -1.3764  0.5341
 1143TIP3   OH2 3381   6.740   5.334   5.560 -0.1232 -0.2012 -0.3432
 1143TIP3    H1 3382   6.755   5.253   5.512 -2.4496 -1.0420  0.2875
 1143TIP3    H2 3383   6.685   5.387   5.502  1.1322  0.8245 -0.6273
 1144TIP3   OH2 3384   7.036   2.989   3.096 -0.0019 -0.0463 -0.5905
 1144TIP3    H1 3385   6.962   3.050   3.096  0.3761  0.4258  0.5405
 1144TIP3    H2 3386   7.061   2.983   3.188  0.2282 -1.5949 -0.7553
 1145TIP3   OH2 3387   6.416   3.113   0.757 -0.5163 -0.0299  0.1209
 1145TIP3    H1 3388   6.342   3.123   0.817 -0.3239  1.3231  0.1498
 1145TIP3    H2 3389   6.440   3.203   0.733 -1.0366 -0.5316 -2.5015
 1146TIP3   OH2 3390   0.801   5.141   5.347  0.6015  0.4420 -0.2274
 1146TIP3    H1 3391   0.775   5.226   5.312 -1.2241  0.3997  0.9491
 1146TIP3    H2 3392   0.776   5.144   5.440  2.3018 -0.6565  0.2840
 1147TIP3   OH2 3393   2.663   1.961   6.064 -0.3000 -0.2943 -0.4911
 1147TIP3    H1 3394   2.721   1.893   6.097  0.5754  0.7240  0.1052
 1147TIP3    H2 3395   2.577   1.938   6.098  0.3152 -0.1043  1.2588
 1148TIP3   OH2 3396   0.022   6.650   6.287 -0.4911 -1.0785  0.2486
 1148TIP3    H1 3397   0.069   6.567   6.297 -0.0817 -0.7681  0.8977
 1148TIP3    H2 3398  -0.068   6.624   6.265 -0.4634 -1.6982  0.8649
 1149TIP3   OH2 3399   6.018   4.434   1.613  0.3074  0.2688  0.3014
 1149TIP3    H1 3400   6.077   4.490   1.563  0.3420 -0.4235 -0.4408
 1149TIP3    H2 3401   5.953   4.495   1.650  2.0947  1.1600  2.0343
 1150TIP3   OH2 3402   3.399   3.452   0.979  0.0767  0.1017  0.1726
 1150TIP3    H1 3403   3.368   3.477   0.892  0.3392 -0.4638 -0.0867
 1150TIP3    H2 3404   3.493   3.437   0.968 -0.0688 -0.9429  0.3303
 1151TIP3   OH2 3405   4.510   5.002   0.707 -0.1802  0.4527 -0.2537
 1151TIP3    H1 3406   4.509   4.916   0.666 -0.4408  0.3528 -0.0392
 1151TIP3    H2 3407   4.420   5.015   0.738 -0.0694  0.6737 -0.0205
 1152TIP3   OH2 3408   0.235   6.847   5.484  0.1655  0.2948  0.6208
 1152TIP3    H1 3409   0.156   6.899   5.465 -0.5622 -0.4812  1.4801
 1152TIP3    H2 3410   0.266   6.882   5.567  1.1410  1.0766 -0.0642
 1153TIP3   OH2 3411   7.709   6.232   5.749 -0.2321 -0.1377 -0.4692
 1153TIP3    H1 3412   7.628   6.189   5.723  0.6886  0.4213 -4.7438
 1153TIP3    H2 3413   7.776   6.165   5.740  0.1653  0.1352  0.3788
 1154TIP3   OH2 3414   5.646   2.545   1.906 -0.0213  0.5174  0.1396
 1154TIP3    H1 3415   5.669   2.468   1.958  1.9327  2.1637  1.7945
 1154TIP3    H2 3416   5.716   2.554   1.843 -0.9445  0.1731 -0.9486
 1155TIP3   OH2 3417   7.082   2.311   2.245  0.0789 -0.1333 -0.4048
 1155TIP3    H1 3418   7.172   2.324   2.215  0.1371  0.2053 -0.0843
 1155TIP3    H2 3419   7.059   2.393   2.288  0.8228 -1.4425  2.6104
 1156TIP3   OH2 3420   7.918   7.040   5.656 -0.7788 -0.0794 -0.0309
 1156TIP3    H1 3421   7.836   7.084   5.678 -0.3317  1.1145 -0.7535
 1156TIP3    H2 3422   7.894   6.977   5.588 -1.2462 -0.3293  0.3611
 1157TIP3   OH2 3423   4.430   3.253   1.582 -0.0317 -0.2766 -0.3391
 1157TIP3    H1 3424   4.411   3.342   1.610  1.4057 -0.0009 -0.2014
 1157TIP3    H2 3425   4.377   3.197   1.639 -1.4746  0.4980 -0.8907
 1158TIP3   OH2 3426   0.864   5.774   6.415  0.8135  0.5467  0.5541
 1158TIP3    H1 3427   0.836   5.866   6.413 -0.6939  0.1196  1.1877
 1158TIP3    H2 3428   0.911   5.761   6.333 -0.1698  1.5317 -0.1804
 1159TIP3   OH2 3429   1.776   6.664   6.403  0.3223 -0.5489  0.2682
 1159TIP3    H1 3430   1.752   6.603   6.333 -2.0605 -0.8752  1.3065
 1159TIP3    H2 3431   1.856   6.626   6.441 -0.3048 -2.2525 -0.0482
 1160TIP3   OH2 3432   7.925   5.138   5.223  0.0262  1.0483  0.1276
 1160TIP3    H1 3433   7.834   5.118   5.203 -0.3504  0.1711  2.5143
 1160TIP3    H2 3434   7.937   5.107   5.313  2.8841  0.4708 -0.4058
 1161TIP3   OH2 3435   3.772   1.206   6.222  0.6674  0.2835  0.6497
 1161TIP3    H1 3436   3.809   1.154   6.294  0.4367 -0.2449  0.3898
 1161TIP3    H2 3437   3.718   1.272   6.266  0.1164 -0.3601  0.9436
 1162TIP3   OH2 3438   7.447   3.689   1.510 -0.2456 -0.4576  0.1235
 1162TIP3    H1 3439   7.529   3.738   1.503  0.0925 -1.0119  0.1503
 1162TIP3    H2 3440   7.425   3.694   1.603 -1.2571  1.3139 -0.2000
 1163TIP3   OH2 3441   4.128   3.887   1.155  0.7244 -0.4372 -0.0252
 1163TIP3    H1 3442   4.192   3.817   1.142  0.9646 -0.3611  0.7010
 1163TIP3    H2 3443   4.106   3.882   1.248  0.0726 -0.1206 -0.1612
 1164TIP3   OH2 3444   6.354   7.252   6.226  0.0324 -0.8155  0.0035
 1164TIP3    H1 3445   6.307   7.178   6.188  2.0003 -1.3977 -1.3581
 1164TIP3    H2 3446   6.285   7.315   6.249 -1.4743 -2.0252 -1.0912
 1165TIP3   OH2 3447   1.233   6.848   5.595  0.5134  0.0980  0.1501
 1165TIP3    H1 3448   1.272   6.931   5.621  1.6058 -0.4819  0.4016
 1165TIP3    H2 3449   1.145   6.871   5.564  1.3013  1.5025 -1.1077
 1166TIP3   OH2 3450   7.415   5.729   5.085  0.0970  0.6965  0.0524
 1166TIP3    H1 3451   7.484   5.794   5.096  3.4538 -2.5497 -1.0770
 1166TIP3    H2 3452   7.444   5.675   5.012 -2.1095 -2.6563  1.5243
 1167TIP3   OH2 3453   5.552   7.306   5.378  0.2566  0.2728 -0.4225
 1167TIP3    H1 3454   5.596   7.256   5.447 -1.2790 -0.8236 -0.1950
 1167TIP3    H2 3455   5.619   7.322   5.313  1.1399 -0.8163  0.2007
 1168TIP3   OH2 3456   4.797   3.129   0.144 -0.2596  0.2638  0.4472
 1168TIP3    H1 3457   4.833   3.048   0.180  0.1395  0.5054  0.6025
 1168TIP3    H2 3458   4.769   3.106   0.056  2.2588  0.5651 -0.4790
 1169TIP3   OH2 3459   5.810   2.262   0.113  0.2626 -0.0060 -0.0862
 1169TIP3    H1 3460   5.788   2.292   0.025  0.0777  0.3150  0.0703
 1169TIP3    H2 3461   5.897   2.298   0.130 -1.0613  2.7277  1.1577
 1170TIP3   OH2 3462   4.948   2.787   1.445  0.1837 -0.7684 -0.7724
 1170TIP3    H1 3463   5.030   2.765   1.490  0.6302 -1.3354 -1.8237
 1170TIP3    H2 3464   4.885   2.722   1.475 -0.0510  0.0365  0.5005
 1171TIP3   OH2 3465   0.167   4.123   6.308  0.3700 -0.1650  0.9391
 1171TIP3    H1 3466   0.106   4.096   6.239  0.2619  0.3243  0.8397
 1171TIP3    H2 3467   0.215   4.043   6.330  0.4454 -0.3129  0.2512
 1172TIP3   OH2 3468   4.761   5.413   0.111  0.5258 -0.6767  0.0099
 1172TIP3    H1 3469   4.721   5.499   0.113  0.7400 -0.6053  1.5196
 1172TIP3    H2 3470   4.689   5.353   0.091  0.1252 -0.3077  0.3620
 1173TIP3   OH2 3471   1.658   0.758   6.364  0.3046  0.3518  0.1383
 1173TIP3    H1 3472   1.648   0.699   6.290  2.8030  0.7131 -0.5171
 1173TIP3    H2 3473   1.581   0.815   6.360 -0.7855 -1.1522 -0.7390
 1174TIP3   OH2 3474   0.273   6.963   5.744 -0.3986 -0.4458  0.3715
 1174TIP3    H1 3475   0.180   6.986   5.742 -1.0541 -3.0865 -1.2791
 1174TIP3    H2 3476   0.279   6.897   5.813 -0.0079 -1.2579 -0.4296
 1175TIP3   OH2 3477   2.785   3.534   4.055  0.3451  0.1640 -0.6488
 1175TIP3    H1 3478   2.841   3.591   4.106 -0.6657  1.3478 -0.8260
 1175TIP3    H2 3479   2.715   3.508   4.115 -0.3399  0.8195 -1.1423
 1176TIP3   OH2 3480   1.565   0.445   6.395  0.1610 -0.1843  0.0736
 1176TIP3    H1 3481   1.471   0.447   6.381  0.3868 -0.0662 -1.5397
 1176TIP3    H2 3482   1.576   0.456   6.490 -1.4160  0.3371  0.2038
 1177TIP3   OH2 3483   5.924   1.071   4.531  0.0875 -0.1187 -0.2531
 1177TIP3    H1 3484   5.946   0.985   4.569 -2.8177 -1.3774 -1.2727
 1177TIP3    H2 3485   5.842   1.056   4.483 -0.4814  3.2424 -0.4621
 1178TIP3   OH2 3486   4.008   2.899   0.271  0.5064 -0.4174  0.0558
 1178TIP3    H1 3487   4.085   2.844   0.286  0.5562 -0.7671 -1.4009
 1178TIP3    H2 3488   3.935   2.849   0.309  0.6498 -1.2222 -0.6886
 1179TIP3   OH2 3489   5.057   3.137   2.524 -0.4775  0.2311  0.4280
 1179TIP3    H1 3490   5.009   3.096   2.452 -0.5282  0.6653  0.2156
 1179TIP3    H2 3491   5.025   3.092   2.602  1.2143 -1.8157 -0.0124
 1180TIP3   OH2 3492   6.501   4.090   2.872  0.1695  0.0362  0.1328
 1180TIP3    H1 3493   6.428   4.028   2.883  0.5540 -0.8909 -2.1465
 1180TIP3    H2 3494   6.579   4.037   2.884  0.4874  0.6471  0.7688
 1181TIP3   OH2 3495   3.546   3.198   2.049 -0.0614 -0.0258  0.4628
 1181TIP3    H1 3496   3.637   3.179   2.024  0.4683  1.7991  0.9644
 1181TIP3    H2 3497   3.499   3.118   2.027  1.8831 -1.4694  1.3648
 1182TIP3   OH2 3498   6.761   2.786   1.116  0.0010 -0.6148  0.2045
 1182TIP3    H1 3499   6.752   2.692   1.098  0.8289 -0.8736  1.0938
 1182TIP3    H2 3500   6.854   2.804   1.101  0.3194 -0.4282  2.2666
 1183TIP3   OH2 3501   3.797   1.530   6.206 -0.1667  0.7061  0.0319
 1183TIP3    H1 3502   3.777   1.495   6.120 -0.1054 -1.0628  0.7106
 1183TIP3    H2 3503   3.744   1.609   6.213 -0.0728  0.9327 -1.6691
 1184TIP3   OH2 3504   2.860   0.126   5.810 -0.4365 -0.1423 -0.3234
 1184TIP3    H1 3505   2.932   0.083   5.856 -0.5570 -0.0275 -0.0279
 1184TIP3    H2 3506   2.784   0.070   5.825 -0.8211  0.6930  0.9041
 1185TIP3   OH2 3507   0.824   6.812   5.957 -0.7360 -0.0891 -0.4871
 1185TIP3    H1 3508   0.911   6.840   5.929 -0.9298  0.5696 -0.4450
 1185TIP3    H2 3509   0.804   6.736   5.902  0.8243 -1.6996  1.1134
 1186TIP3   OH2 3510   4.214   1.767   0.934 -0.0714 -0.7412 -0.3309
 1186TIP3    H1 3511   4.197   1.849   0.888 -1.3818 -0.6937  0.2311
 1186TIP3    H2 3512   4.160   1.771   1.013 -0.7491 -2.4702 -0.6782
 1187TIP3   OH2 3513   6.443   2.427   0.339  0.3976  0.4974 -0.3796
 1187TIP3    H1 3514   6.408   2.509   0.371  0.9763  0.8049 -0.5201
 1187TIP3    H2 3515   6.471   2.446   0.249 -1.3523 -0.3898 -1.1287
 1188TIP3   OH2 3516   7.845   6.254   6.131 -0.0215  1.1505 -0.2035
 1188TIP3    H1 3517   7.902   6.274   6.206 -1.7733  1.1745  1.1412
 1188TIP3    H2 3518   7.776   6.320   6.135 -1.1991 -0.0418 -0.7111
 1189TIP3   OH2 3519   4.376   5.239   0.574  0.1269  0.3111 -0.2187
 1189TIP3    H1 3520   4.328   5.193   0.642 -0.3352  1.9295  0.5651
 1189TIP3    H2 3521   4.468   5.226   0.595  0.0151 -1.2431 -0.6788
 1190TIP3   OH2 3522   6.543   3.021   1.252  0.1752 -0.4643  0.2291
 1190TIP3    H1 3523   6.601   3.088   1.287  0.9724 -0.9755 -0.0883
 1190TIP3    H2 3524   6.470   3.017   1.314 -0.4111  1.4304 -0.3227
 1191TIP3   OH2 3525   6.255   2.729   1.024  0.3498 -0.4541 -0.1319
 1191TIP3    H1 3526   6.309   2.729   0.945  1.1316  0.9227  0.3886
 1191TIP3    H2 3527   6.170   2.762   0.994  0.8562  0.7547 -0.2693
 1192TIP3   OH2 3528   2.677   0.446   6.076  0.2404  0.1478  0.2716
 1192TIP3    H1 3529   2.714   0.435   5.989 -0.2146 -1.7850  0.2882
 1192TIP3    H2 3530   2.584   0.465   6.062  0.4026  0.9618  0.3085
 1193TIP3   OH2 3531   4.760   2.242   1.315  0.1308  0.4404 -1.0266
 1193TIP3    H1 3532   4.771   2.328   1.277  0.4868  1.1036  0.5345
 1193TIP3    H2 3533   4.761   2.257   1.410 -2.3423 -0.9303 -0.7166
 1194TIP3   OH2 3534   1.520   1.968   5.087  0.5542  0.1201  0.2484
 1194TIP3    H1 3535   1.539   2.047   5.137  1.6220  0.0970 -0.1133
 1194TIP3    H2 3536   1.460   1.918   5.143  1.1005  0.4713  1.1564
 1195TIP3   OH2 3537   6.371   1.829   0.690  0.3096  0.2103  0.0141
 1195TIP3    H1 3538   6.394   1.830   0.783 -2.2519  2.2172  0.6869
 1195TIP3    H2 3539   6.429   1.894   0.650  1.4279 -0.6691  0.1777
 1196TIP3   OH2 3540   5.948   7.234   5.219 -0.2667 -0.7543 -0.7639
 1196TIP3    H1 3541   6.015   7.302   5.226 -1.2906  0.0648  1.3642
 1196TIP3    H2 3542   5.993   7.153   5.246 -0.4413  0.0106  1.9516
 1197TIP3   OH2 3543   6.384   4.986   0.108 -0.6316 -1.0160 -0.6091
 1197TIP3    H1 3544   6.327   5.038   0.052 -1.2451 -1.6172 -0.5473
 1197TIP3    H2 3545   6.431   5.051   0.161 -1.0476 -0.5057 -0.8627
 1198TIP3   OH2 3546   7.871   1.878   0.469  0.2566 -0.2278  0.5076
 1198TIP3    H1 3547   7.887   1.828   0.389 -0.7222 -1.3993  1.0320
 1198TIP3    H2 3548   7.804   1.828   0.516  2.0653 -0.5281  2.9015
 1199TIP3   OH2 3549   0.767   6.993   4.572 -0.3559 -0.0462 -0.1210
 1199TIP3    H1 3550   0.785   6.923   4.509  1.2751 -0.3172  0.6278
 1199TIP3    H2 3551   0.697   6.957   4.628 -0.1426 -0.7341 -0.2842
 1200TIP3   OH2 3552   3.868   2.281   2.220  0.0030  0.5127  0.2723
 1200TIP3    H1 3553   3.862   2.187   2.232 -2.5282  0.0758 -3.6929
 1200TIP3    H2 3554   3.961   2.297   2.203  0.0968 -1.6436 -1.4618
 1201TIP3   OH2 3555   5.660   2.811   1.092 -0.5543 -0.1246  0.0485
 1201TIP3    H1 3556   5.581   2.767   1.122 -0.8180  0.8467  0.7914
 1201TIP3    H2 3557   5.692   2.858   1.169  1.4510 -1.5176  0.1114
 1202TIP3   OH2 3558   4.836   1.265   1.629 -0.0195  0.4442  0.3324
 1202TIP3    H1 3559   4.918   1.256   1.581 -0.1745 -1.7389  0.4166
 1202TIP3    H2 3560   4.772   1.217   1.577 -1.0413  1.3103  0.7663
 1203TIP3   OH2 3561   5.840   2.025   1.563 -0.6109 -0.2314  0.2259
 1203TIP3    H1 3562   5.801   2.062   1.642  0.5773  0.6389  0.4224
 1203TIP3    H2 3563   5.852   1.933   1.584 -0.8755 -0.1359  0.8305
 1204TIP3   OH2 3564   4.606   1.098   0.617  0.0251  0.5668  0.0118
 1204TIP3    H1 3565   4.687   1.073   0.572 -0.6570 -1.3379 -0.2268
 1204TIP3    H2 3566   4.631   1.105   0.709  0.6295  0.7664 -0.1637
 1205TIP3   OH2 3567   7.441   6.183   6.203 -0.3941  0.0358  0.0031
 1205TIP3    H1 3568   7.458   6.171   6.296 -1.3848  0.0436  0.1885
 1205TIP3    H2 3569   7.518   6.231   6.170  0.1965 -0.4206  0.7033
 1206TIP3   OH2 3570   7.182   2.279   1.174  0.5694 -0.1897 -0.6768
 1206TIP3    H1 3571   7.195   2.190   1.144  1.1269 -0.5120  0.5205
 1206TIP3    H2 3572   7.088   2.296   1.159  0.2637 -1.2960 -0.0351
 1207TIP3   OH2 3573   0.925   0.543   6.338 -0.5637  0.2993  0.7142
 1207TIP3    H1 3574   0.981   0.582   6.271  1.4971 -2.0569  0.9731
 1207TIP3    H2 3575   0.873   0.616   6.371 -0.0396  1.9328 -1.8758
 1208TIP3   OH2 3576   0.838   5.696   5.177 -0.3722 -0.1477  0.2314
 1208TIP3    H1 3577   0.912   5.690   5.237  0.7212  2.5031 -0.7986
 1208TIP3    H2 3578   0.765   5.726   5.231  0.3083  1.0669  0.4786
 1209TIP3   OH2 3579   6.974   1.369   2.601  0.1089 -0.4749 -0.1141
 1209TIP3    H1 3580   6.946   1.368   2.693 -0.3642 -0.1445 -0.2526
 1209TIP3    H2 3581   7.043   1.303   2.596 -0.3027 -0.9446  0.3466
 1210TIP3   OH2 3582   4.424   1.168   5.628  0.1994 -0.3981 -0.1001
 1210TIP3    H1 3583   4.496   1.222   5.662 -0.1783  0.5497 -0.7849
 1210TIP3    H2 3584   4.461   1.123   5.552  0.0782  0.0866 -0.4502
 1211TIP3   OH2 3585   7.738   2.676   0.049  0.3143  0.0550 -0.0351
 1211TIP3    H1 3586   7.714   2.743   0.113  0.6289  0.6567 -0.5471
 1211TIP3    H2 3587   7.833   2.674   0.051  0.3472  0.4643 -0.8756
 1212TIP3   OH2 3588   6.563   2.945   0.939  0.3471 -0.0566 -0.4727
 1212TIP3    H1 3589   6.568   3.039   0.920 -0.6838  0.2469  0.6892
 1212TIP3    H2 3590   6.512   2.909   0.867 -0.1547  0.4410 -0.3663
 1213TIP3   OH2 3591   3.476   2.959   0.993 -0.5121 -0.1023  0.3292
 1213TIP3    H1 3592   3.417   2.905   1.045  0.1173  0.8263  2.0506
 1213TIP3    H2 3593   3.434   3.045   0.989 -0.0012  0.1509  0.3000
 1214TIP3   OH2 3594   0.217   0.154   5.525 -0.8863 -0.4788  0.5383
 1214TIP3    H1 3595   0.296   0.117   5.485  0.1205  1.4843  0.6506
 1214TIP3    H2 3596   0.188   0.087   5.587 -0.0577 -1.7657 -0.4337
 1215TIP3   OH2 3597   1.157   4.749   6.401  0.7331  0.2895  0.5618
 1215TIP3    H1 3598   1.209   4.701   6.465  2.7179  0.8450 -0.5650
 1215TIP3    H2 3599   1.156   4.839   6.433  0.5815  0.3068  0.5103
 1216TIP3   OH2 3600   3.717   2.469   0.891 -0.1948  0.4016 -0.3777
 1216TIP3    H1 3601   3.636   2.518   0.878  0.0324  0.9141  0.1203
 1216TIP3    H2 3602   3.766   2.483   0.810 -0.2524  0.7760 -0.3503
 1217TIP3   OH2 3603   6.373   3.779   1.037  0.1671  0.4477 -0.1966
 1217TIP3    H1 3604   6.289   3.778   1.083 -0.7280  0.1285 -1.8077
 1217TIP3    H2 3605   6.379   3.867   1.000  0.7178  0.5872  0.2168
 1218TIP3   OH2 3606   0.349   6.903   3.852 -0.1302 -0.0967 -0.4301
 1218TIP3    H1 3607   0.435   6.893   3.811  0.5429  0.8039  0.7269
 1218TIP3    H2 3608   0.287   6.894   3.779  0.8673 -1.9062 -1.1022
 1219TIP3   OH2 3609   7.307   7.301   5.830  0.2547 -0.4636 -0.0378
 1219TIP3    H1 3610   7.384   7.266   5.784  0.9693  0.1411  0.6866
 1219TIP3    H2 3611   7.293   7.241   5.903 -0.4338 -1.0066 -0.6109
 1220TIP3   OH2 3612   5.687   2.557   0.058 -0.3010 -0.2132 -0.5829
 1220TIP3    H1 3613   5.697   2.466   0.087 -1.0095 -0.5797 -1.4837
 1220TIP3    H2 3614   5.656   2.550  -0.032 -0.0969  0.9285 -0.7450
 1221TIP3   OH2 3615   3.636   1.902   0.597 -0.4524 -0.0850 -0.3216
 1221TIP3    H1 3616   3.600   1.813   0.599  1.3652 -0.9230 -1.9967
 1221TIP3    H2 3617   3.587   1.950   0.663 -1.5088 -2.3335  0.5860
 1222TIP3   OH2 3618   3.720   3.942   1.417  0.5262 -0.2782 -0.3380
 1222TIP3    H1 3619   3.674   3.943   1.501 -0.5521  2.0571 -0.9321
 1222TIP3    H2 3620   3.696   3.858   1.378  1.6915 -1.7685  2.0182
 1223TIP3   OH2 3621   7.736   7.399   5.453 -0.3457  0.7884 -0.4075
 1223TIP3    H1 3622   7.716   7.317   5.407  2.2054  0.3271 -0.7777
 1223TIP3    H2 3623   7.696   7.467   5.398 -0.4513 -0.0323 -1.3724
 1224TIP3   OH2 3624   2.374   0.646   5.322 -0.1487  0.1503  0.1696
 1224TIP3    H1 3625   2.442   0.668   5.386 -0.7415  1.2433  0.4308
 1224TIP3    H2 3626   2.370   0.721   5.263 -0.3331 -0.4052 -0.5323
 1225TIP3   OH2 3627   6.451   4.327   0.431 -0.3358 -0.1482  0.5520
 1225TIP3    H1 3628   6.395   4.392   0.388 -1.1874 -0.6735  0.8591
 1225TIP3    H2 3629   6.390   4.262   0.465  0.6207 -2.5612 -2.0954
 1226TIP3   OH2 3630   7.499   1.967   0.219 -0.4648 -0.1438  0.3956
 1226TIP3    H1 3631   7.575   1.990   0.165 -0.5740  0.6655  0.5812
 1226TIP3    H2 3632   7.515   1.877   0.246 -0.0545 -0.3120 -0.3968
 1227TIP3   OH2 3633   0.308   5.580   0.002 -0.1014 -0.3966 -0.0572
 1227TIP3    H1 3634   0.315   5.608   0.093 -0.9125 -0.7441  0.1105
 1227TIP3    H2 3635   0.316   5.485   0.004  0.0567 -0.3923 -0.3676
 1228TIP3   OH2 3636   7.327   1.821   2.250 -0.3154 -0.4294 -0.2115
 1228TIP3    H1 3637   7.259   1.758   2.273 -1.2631  0.6343 -0.0870
 1228TIP3    H2 3638   7.289   1.874   2.180  1.3653 -1.5444 -2.0385
 1229TIP3   OH2 3639   7.049   3.454   0.957 -0.4471  0.5908  0.7695
 1229TIP3    H1 3640   7.118   3.480   0.896 -0.6784 -2.5436 -0.9024
 1229TIP3    H2 3641   6.967   3.473   0.911 -0.6200 -2.4744 -0.2675
 1230TIP3   OH2 3642   5.437   3.801   2.441  0.3100 -0.5780  0.1012
 1230TIP3    H1 3643   5.376   3.856   2.391  0.1952 -2.4167 -1.8240
 1230TIP3    H2 3644   5.381   3.736   2.483  0.5739  0.0393  1.4298
 1231TIP3   OH2 3645   0.720   6.396   6.123 -0.0543  0.3784  0.0979
 1231TIP3    H1 3646   0.630   6.391   6.090  0.1709  0.3419 -0.5091
 1231TIP3    H2 3647   0.769   6.439   6.054  0.5173 -0.1428  0.1717
 1232TIP3   OH2 3648   1.005   2.994   1.958 -0.4632 -0.4145  0.1469
 1232TIP3    H1 3649   1.034   3.080   1.987  1.3560 -0.6022 -1.0477
 1232TIP3    H2 3650   0.911   2.993   1.979 -0.6160  2.0093 -0.1881
 1233TIP3   OH2 3651   0.050   2.034   1.083 -0.3409  0.5269  0.2001
 1233TIP3    H1 3652  -0.026   2.030   1.140 -1.9350  1.1873 -1.8225
 1233TIP3    H2 3653   0.015   2.020   0.995  2.0083 -0.1760 -0.6726
 1234TIP3   OH2 3654   0.559   4.549   2.032  0.2806 -0.2878 -0.1259
 1234TIP3    H1 3655   0.591   4.635   2.004  0.9516 -0.2113  0.8314
 1234TIP3    H2 3656   0.637   4.505   2.066  0.2286 -1.8134 -1.8754
 1235TIP3   OH2 3657   1.127   6.117   0.990  0.8149 -0.1344 -0.7009
 1235TIP3    H1 3658   1.173   6.189   1.034  0.7584 -0.6209  0.1696
 1235TIP3    H2 3659   1.197   6.056   0.967  0.5871 -1.0480  0.9509
 1236TIP3   OH2 3660   3.749   7.010   6.338  0.4910 -0.3130  0.2316
 1236TIP3    H1 3661   3.817   6.945   6.355  1.2005  0.9908  2.6912
 1236TIP3    H2 3662   3.680   6.988   6.400 -0.9291 -0.9942 -1.5465
 1237TIP3   OH2 3663   2.805   2.853   2.016 -0.2079 -0.2057 -0.5461
 1237TIP3    H1 3664   2.796   2.777   1.959 -1.1968 -0.1954 -0.4041
 1237TIP3    H2 3665   2.877   2.903   1.977  1.2371 -1.7729  0.0043
 1238TIP3   OH2 3666   3.503   7.047   5.529  0.1712  0.2752 -0.7523
 1238TIP3    H1 3667   3.599   7.049   5.532  0.1973 -0.5577 -0.8467
 1238TIP3    H2 3668   3.475   7.104   5.601  0.7371 -0.6196  0.1889
 1239TIP3   OH2 3669   7.075   6.981   4.313  0.1372 -0.1850  0.2318
 1239TIP3    H1 3670   7.041   7.043   4.377 -1.4388 -0.3917 -0.3822
 1239TIP3    H2 3671   7.165   7.010   4.296 -0.0149  0.8947  1.2267
 1240TIP3   OH2 3672   0.148   4.083   0.539 -0.0040 -0.0948 -0.2446
 1240TIP3    H1 3673   0.179   4.168   0.506  2.4152 -0.8435 -0.0318
 1240TIP3    H2 3674   0.094   4.105   0.615  0.2272  1.2795 -0.4678
 1241TIP3   OH2 3675   1.082   3.068   2.782 -0.0512 -0.2184 -0.2298
 1241TIP3    H1 3676   1.002   3.022   2.756 -1.2725 -0.1059  3.1133
 1241TIP3    H2 3677   1.072   3.156   2.746 -1.6913 -0.0546  0.6103
 1242TIP3   OH2 3678   0.723   3.785   2.043 -0.0936  0.3823  0.1853
 1242TIP3    H1 3679   0.800   3.730   2.055 -0.6170 -0.1376  1.1863
 1242TIP3    H2 3680   0.726   3.810   1.950 -0.2173 -1.9287 -0.4873
 1243TIP3   OH2 3681   7.040   2.555   2.349  0.4431 -0.3840  0.5493
 1243TIP3    H1 3682   6.977   2.614   2.390  1.0994  0.7573 -0.0695
 1243TIP3    H2 3683   7.034   2.574   2.256  2.3131  0.3698  0.5611
 1244TIP3   OH2 3684   5.337   2.011   5.544 -0.1640  0.2466 -0.0455
 1244TIP3    H1 3685   5.369   2.100   5.556 -0.1391  0.5085 -1.8470
 1244TIP3    H2 3686   5.254   2.021   5.496  0.4773 -0.7215 -1.4141
 1245TIP3   OH2 3687   2.139   7.084   5.711 -0.3408  0.3439  0.2638
 1245TIP3    H1 3688   2.201   7.077   5.638 -0.7833  1.8712 -0.2936
 1245TIP3    H2 3689   2.132   6.995   5.745  0.5504 -0.2348 -0.9946
 1246TIP3   OH2 3690   7.423   4.677   2.220  0.1265  0.1309  0.1965
 1246TIP3    H1 3691   7.495   4.675   2.158 -0.7276  1.0931 -0.8462
 1246TIP3    H2 3692   7.444   4.749   2.279  0.0966  0.3059 -0.0072
 1247TIP3   OH2 3693   7.855   4.786   1.511 -0.4353 -0.3243  0.2621
 1247TIP3    H1 3694   7.948   4.775   1.490 -1.0072 -1.5552 -1.8456
 1247TIP3    H2 3695   7.830   4.867   1.467 -0.8470 -1.1409 -1.0442
 1248TIP3   OH2 3696   7.473   5.716   2.493 -1.0267  0.2137 -0.1063
 1248TIP3    H1 3697   7.435   5.667   2.565 -1.3039 -0.2207 -0.5420
 1248TIP3    H2 3698   7.529   5.781   2.534  1.6287 -2.3052  0.4352
 1249TIP3   OH2 3699   0.909   6.864   5.569 -0.4312 -0.3673  0.3691
 1249TIP3    H1 3700   0.814   6.876   5.579 -0.1163  2.2385  0.3906
 1249TIP3    H2 3701   0.946   6.895   5.652  0.4279 -2.0946  0.6649
 1250TIP3   OH2 3702   5.603   5.798   2.173  0.3059  0.0294 -0.6799
 1250TIP3    H1 3703   5.555   5.881   2.179 -0.4619 -0.4484 -0.1240
 1250TIP3    H2 3704   5.682   5.812   2.226 -0.2700  0.1001  0.1695
 1251TIP3   OH2 3705   6.562   4.813   0.271  0.1273 -0.0105 -0.1963
 1251TIP3    H1 3706   6.505   4.885   0.299 -1.1188 -1.3546  0.7407
 1251TIP3    H2 3707   6.592   4.839   0.183 -1.2522  1.0894 -0.3509
 1252TIP3   OH2 3708   6.975   4.002   0.737  0.0517  0.1228  0.3720
 1252TIP3    H1 3709   6.894   4.038   0.773  0.4958 -0.0167  1.5404
 1252TIP3    H2 3710   7.026   3.976   0.814  1.4691  0.7724 -0.3156
 1253TIP3   OH2 3711   0.526   3.718   1.385 -0.4927 -0.3024 -0.3807
 1253TIP3    H1 3712   0.467   3.726   1.309  2.7451  1.3336 -2.8099
 1253TIP3    H2 3713   0.585   3.647   1.361  0.0132 -0.3548  1.0250
 1254TIP3   OH2 3714   1.569   2.202   2.527  0.0218 -0.6403  0.2945
 1254TIP3    H1 3715   1.487   2.201   2.576  0.3069 -0.0272  0.7959
 1254TIP3    H2 3716   1.582   2.112   2.499 -1.4760 -0.5195 -0.8769
 1255TIP3   OH2 3717   5.958   0.457   5.577  0.0191  0.3296 -0.4794
 1255TIP3    H1 3718   5.878   0.456   5.525 -1.9850  0.6565  2.5000
 1255TIP3    H2 3719   5.959   0.372   5.621  0.8318  0.7122  0.2536
 1256TIP3   OH2 3720   5.371   2.852   6.375 -0.0783  0.1687 -0.2342
 1256TIP3    H1 3721   5.449   2.903   6.354  0.4507 -0.3681  0.4496
 1256TIP3    H2 3722   5.317   2.859   6.296  0.6403  0.5602 -0.6974
 1257TIP3   OH2 3723   0.916   5.561   1.048  0.0475 -0.2372  0.5296
 1257TIP3    H1 3724   0.829   5.564   1.087  0.4456 -0.6985  1.4798
 1257TIP3    H2 3725   0.974   5.535   1.121  1.1625  1.3431  0.2279
 1258TIP3   OH2 3726   0.059   5.139   5.841 -0.1411 -0.6576  0.4279
 1258TIP3    H1 3727   0.010   5.065   5.876 -0.2098 -0.4786  0.7185
 1258TIP3    H2 3728   0.005   5.215   5.865  0.0405 -0.5005  0.3294
 1259TIP3   OH2 3729   4.294   0.376   1.996 -0.6888 -0.1543 -0.3455
 1259TIP3    H1 3730   4.230   0.305   1.993  0.6701 -1.4551  0.9331
 1259TIP3    H2 3731   4.355   0.356   1.925 -0.0094 -0.5462  0.3514
 1260TIP3   OH2 3732   6.456   3.448   0.426  0.4412 -0.8025 -0.1142
 1260TIP3    H1 3733   6.396   3.501   0.373  2.0960 -0.9276 -2.1541
 1260TIP3    H2 3734   6.542   3.464   0.389  1.5854 -1.2882  2.2659
 1261TIP3   OH2 3735   7.832   4.517   4.186 -0.4493  0.1052  0.3731
 1261TIP3    H1 3736   7.822   4.510   4.091 -0.4644 -1.3357  0.4703
 1261TIP3    H2 3737   7.778   4.593   4.210  1.6144  2.1071 -1.0713
 1262TIP3   OH2 3738   2.014   5.012   0.704 -0.4118  0.3017  0.3598
 1262TIP3    H1 3739   2.038   4.981   0.617  0.1241 -0.3207  0.7199
 1262TIP3    H2 3740   1.920   4.992   0.711 -0.9789  2.4215 -0.9201
 1263TIP3   OH2 3741   7.343   7.151   1.139  0.0250 -0.1267  0.3389
 1263TIP3    H1 3742   7.276   7.205   1.180  0.4157  1.4249 -1.0265
 1263TIP3    H2 3743   7.311   7.137   1.050  1.8385  1.1889 -0.5311
 1264TIP3   OH2 3744   0.061   6.785   2.341  0.0975 -0.4109 -0.4653
 1264TIP3    H1 3745   0.038   6.695   2.319 -1.7768 -0.0324 -0.1329
 1264TIP3    H2 3746  -0.008   6.813   2.401  1.3055  0.8692  0.3454
 1265TIP3   OH2 3747   1.372   3.525   1.659  0.5036 -0.5020 -0.0682
 1265TIP3    H1 3748   1.400   3.519   1.751  0.9523  0.5032 -0.1284
 1265TIP3    H2 3749   1.445   3.569   1.615 -0.3985  0.5024 -0.5880
 1266TIP3   OH2 3750   1.465   3.905   1.510 -0.1615 -0.2239 -0.0904
 1266TIP3    H1 3751   1.442   3.996   1.492 -0.2949 -0.7296 -2.6953
 1266TIP3    H2 3752   1.457   3.896   1.605 -0.9742  2.2410  0.1008
 1267TIP3   OH2 3753   0.057   5.569   0.432  0.2671  0.2155  0.3014
 1267TIP3    H1 3754   0.030   5.606   0.348  0.2048  1.8496  1.0156
 1267TIP3    H2 3755  -0.017   5.515   0.459 -0.2537  0.7254 -0.0904
 1268TIP3   OH2 3756   1.146   6.542   2.552 -0.3420 -0.0146  0.4405
 1268TIP3    H1 3757   1.199   6.471   2.517 -0.1528  0.1806  0.3239
 1268TIP3    H2 3758   1.159   6.538   2.647  2.4827  2.0272  0.2075
 1269TIP3   OH2 3759   6.739   3.871   2.509  0.0305  0.2051 -0.1408
 1269TIP3    H1 3760   6.754   3.816   2.433  1.2537 -1.7389  1.4678
 1269TIP3    H2 3761   6.693   3.815   2.571  0.9212  1.1046  1.3799
 1270TIP3   OH2 3762   0.817   4.459   1.968 -0.0367  0.4692 -0.0058
 1270TIP3    H1 3763   0.847   4.431   2.055 -1.9792 -1.2024  0.1678
 1270TIP3    H2 3764   0.762   4.387   1.938  1.4673  0.5348 -3.1055
 1271TIP3   OH2 3765   6.311   0.988   5.579  0.0172  0.4651 -0.0901
 1271TIP3    H1 3766   6.399   1.003   5.544 -0.3823  0.1885 -1.2280
 1271TIP3    H2 3767   6.309   1.038   5.661  1.8421 -0.9784  0.8753
 1272TIP3   OH2 3768   7.427   6.092   0.912  0.5523  0.2264  0.2684
 1272TIP3    H1 3769   7.403   6.028   0.979 -0.1980  0.4836  0.2603
 1272TIP3    H2 3770   7.356   6.086   0.847  1.2528  0.0077 -0.4777
 1273TIP3   OH2 3771   5.127   0.290   6.465 -0.0642 -0.2915 -0.4090
 1273TIP3    H1 3772   5.037   0.316   6.449  0.7545  2.3729 -0.8555
 1273TIP3    H2 3773   5.157   0.256   6.381  0.4243  2.1662 -1.2615
 1274TIP3   OH2 3774   0.742   6.780   0.606 -0.5044  0.2951  0.5463
 1274TIP3    H1 3775   0.788   6.772   0.523  0.0532  2.3816  0.6265
 1274TIP3    H2 3776   0.650   6.776   0.583 -0.3505 -2.4848  0.2281
 1275TIP3   OH2 3777   0.238   4.612   3.279  0.1198 -0.1595  0.1374
 1275TIP3    H1 3778   0.275   4.677   3.339 -2.8884  1.3091  0.5231
 1275TIP3    H2 3779   0.235   4.658   3.195 -0.2134 -0.4987 -0.0320
 1276TIP3   OH2 3780   3.401   4.159   2.526 -0.1166  0.0326 -0.0489
 1276TIP3    H1 3781   3.446   4.078   2.550 -0.3616 -0.3217 -0.7592
 1276TIP3    H2 3782   3.425   4.173   2.434 -0.8858  0.2260 -0.2228
 1277TIP3   OH2 3783   7.373   4.295   1.359  0.0391 -0.1639 -0.2042
 1277TIP3    H1 3784   7.442   4.352   1.324  2.0842 -1.3750  1.7143
 1277TIP3    H2 3785   7.371   4.221   1.299  0.3799 -0.0928 -0.3078
 1278TIP3   OH2 3786   2.937   5.475   1.124  0.0205 -0.1797 -0.1568
 1278TIP3    H1 3787   2.956   5.386   1.155  0.1453 -0.3631 -0.7534
 1278TIP3    H2 3788   2.853   5.496   1.164 -0.2983 -0.8011 -0.4836
 1279TIP3   OH2 3789   1.541   5.988   1.581 -0.3429 -0.5049 -0.0006
 1279TIP3    H1 3790   1.558   5.898   1.608  0.7793  0.0132  1.0744
 1279TIP3    H2 3791   1.486   5.980   1.503  1.5823 -2.1739 -1.2254
 1280TIP3   OH2 3792   0.161   5.286   1.390 -0.3371  0.2420  0.0939
 1280TIP3    H1 3793   0.183   5.376   1.416 -0.0675  0.3833 -0.6004
 1280TIP3    H2 3794   0.067   5.279   1.404 -0.3973  0.7076 -0.0826
 1281TIP3   OH2 3795   5.789   2.871   5.739  0.3970  0.1340  0.1419
 1281TIP3    H1 3796   5.864   2.930   5.744  0.7650 -0.2453 -0.7889
 1281TIP3    H2 3797   5.814   2.796   5.793  0.3371  0.3862  0.5215
 1282TIP3   OH2 3798   1.168   6.322   0.720  0.0494 -0.1525 -0.1211
 1282TIP3    H1 3799   1.117   6.395   0.684  1.4260  0.1020 -1.6266
 1282TIP3    H2 3800   1.138   6.245   0.672  1.1024  0.0047 -1.0412
 1283TIP3   OH2 3801   4.363   4.731   2.556 -0.1544  0.4459 -0.6125
 1283TIP3    H1 3802   4.301   4.659   2.543  2.0407 -1.4120 -0.9527
 1283TIP3    H2 3803   4.315   4.794   2.610 -2.0221 -1.3567 -0.1057
 1284TIP3   OH2 3804   6.582   1.925   5.466  0.0684  0.1031 -0.2155
 1284TIP3    H1 3805   6.576   1.837   5.428 -0.1377 -0.2501  0.6033
 1284TIP3    H2 3806   6.539   1.916   5.551 -1.4048  1.4164 -0.8140
 1285TIP3   OH2 3807   5.997   0.208   6.088  0.1656  0.3319  0.1101
 1285TIP3    H1 3808   5.906   0.207   6.115 -0.2056  0.6567 -1.0744
 1285TIP3    H2 3809   6.014   0.121   6.053  0.2678  0.3148  0.2004
 1286TIP3   OH2 3810   7.652   6.749   0.418  0.3248  0.9674  0.1227
 1286TIP3    H1 3811   7.599   6.681   0.459  1.4153  0.8110  1.3207
 1286TIP3    H2 3812   7.589   6.816   0.390 -0.4259  1.2744  2.4696
 1287TIP3   OH2 3813   7.475   6.384   4.566  0.0873 -0.2499  0.0793
 1287TIP3    H1 3814   7.413   6.405   4.496  1.3161 -0.4637 -1.0952
 1287TIP3    H2 3815   7.557   6.426   4.539  0.4795 -0.0332  1.5700
 1288TIP3   OH2 3816   3.638   0.228   1.453 -0.1261  0.3568 -1.1485
 1288TIP3    H1 3817   3.665   0.140   1.479  0.5454  0.6058 -1.0038
 1288TIP3    H2 3818   3.716   0.282   1.467 -0.8711  1.1891 -0.1546
 1289TIP3   OH2 3819   0.369   6.010   0.070  0.0947  0.4612  0.4905
 1289TIP3    H1 3820   0.336   5.963   0.146  2.4280 -1.8442  0.1131
 1289TIP3    H2 3821   0.461   6.027   0.090  1.5051 -2.6202 -2.8824
 1290TIP3   OH2 3822   1.888   5.233   1.150  0.0313  0.3773  0.3897
 1290TIP3    H1 3823   1.979   5.230   1.180  0.4213 -1.0226 -0.8457
 1290TIP3    H2 3824   1.893   5.207   1.058 -1.3999  2.1852 -0.2316
 1291TIP3   OH2 3825   0.684   5.188   2.726 -0.2926 -0.2491 -0.1616
 1291TIP3    H1 3826   0.590   5.187   2.747  0.0207  0.6830  1.3316
 1291TIP3    H2 3827   0.690   5.246   2.649 -1.0399 -1.0748 -0.8677
 1292TIP3   OH2 3828   7.015   1.166   5.590 -0.2248 -0.6159  0.3712
 1292TIP3    H1 3829   6.963   1.226   5.536 -0.9851 -1.0355  0.6145
 1292TIP3    H2 3830   7.009   1.082   5.544 -0.6294 -0.9074  0.9395
 1293TIP3   OH2 3831   7.454   6.544   1.142 -0.0266  0.1255 -0.1490
 1293TIP3    H1 3832   7.433   6.480   1.074 -1.0469  0.8564 -0.5409
 1293TIP3    H2 3833   7.475   6.624   1.094 -0.9550  0.7027  0.3773
 1294TIP3   OH2 3834   1.286   5.102   0.939 -0.8280  0.4413 -0.2679
 1294TIP3    H1 3835   1.236   5.159   0.997 -2.6054  0.8906 -2.1659
 1294TIP3    H2 3836   1.362   5.154   0.914 -0.9530  0.8985  0.2961
 1295TIP3   OH2 3837   0.312   5.556   1.923 -0.0734  0.8151  0.2694
 1295TIP3    H1 3838   0.345   5.481   1.873  0.1918  0.9396  0.2534
 1295TIP3    H2 3839   0.388   5.614   1.931 -0.7594  1.9606 -1.3256
 1296TIP3   OH2 3840   1.166   6.632   1.258  0.3989  0.4361  0.7315
 1296TIP3    H1 3841   1.142   6.702   1.318 -0.9090  0.4793  0.1811
 1296TIP3    H2 3842   1.259   6.616   1.274  0.5715  1.9320  1.2340
 1297TIP3   OH2 3843   0.037   6.801   1.661 -0.4863  0.2067  0.6749
 1297TIP3    H1 3844   0.097   6.731   1.637  0.2492  0.4615  1.7414
 1297TIP3    H2 3845   0.088   6.881   1.653 -1.6697  0.7957 -1.7573
 1298TIP3   OH2 3846   7.173   6.048   3.998 -0.2894 -0.0609 -0.3179
 1298TIP3    H1 3847   7.194   5.958   3.975 -0.6816 -0.0538 -0.7142
 1298TIP3    H2 3848   7.227   6.101   3.940 -1.0544 -0.0435 -1.0369
 1299TIP3   OH2 3849   1.021   7.118   0.960  0.2533 -0.2101  0.3790
 1299TIP3    H1 3850   0.966   7.119   1.039  2.1450 -0.4445  1.7376
 1299TIP3    H2 3851   1.101   7.074   0.987  0.9488 -0.2606 -1.6874
 1300TIP3   OH2 3852   2.524   3.260   1.841 -0.3295  0.0149  0.0098
 1300TIP3    H1 3853   2.602   3.303   1.806  0.2253 -2.3761 -1.8100
 1300TIP3    H2 3854   2.558   3.195   1.902 -0.9918  0.0037  0.3725
 1301TIP3   OH2 3855   0.258   5.843   0.257  0.2401  0.4279  0.3474
 1301TIP3    H1 3856   0.272   5.765   0.311 -0.1312  0.3528  0.3409
 1301TIP3    H2 3857   0.174   5.827   0.214  1.3225 -0.2590 -1.5741
 1302TIP3   OH2 3858   0.719   4.773   1.666  0.2433 -0.5290  0.2676
 1302TIP3    H1 3859   0.797   4.723   1.640  0.9101  1.1452 -1.0299
 1302TIP3    H2 3860   0.746   4.821   1.744 -0.0787 -1.3766  0.9088
 1303TIP3   OH2 3861   7.495   7.160   0.851 -0.1766 -0.1401  0.0479
 1303TIP3    H1 3862   7.522   7.109   0.928 -0.9181  2.0052  1.7991
 1303TIP3    H2 3863   7.402   7.180   0.868 -0.1659  0.9196 -1.0725
 1304TIP3   OH2 3864   0.745   5.518   1.585  0.7316 -0.6051  0.1307
 1304TIP3    H1 3865   0.730   5.429   1.553  1.5452  0.3113 -2.9702
 1304TIP3    H2 3866   0.836   5.537   1.561  0.2099  1.4537 -0.2949
 1305TIP3   OH2 3867   0.477   5.741   0.898  0.1615 -0.2411  0.2653
 1305TIP3    H1 3868   0.391   5.716   0.931  0.0600 -0.0043  0.1788
 1305TIP3    H2 3869   0.459   5.791   0.819  0.4662 -2.4910 -1.2824
 1306TIP3   OH2 3870   1.222   5.744   1.895 -0.3359 -0.3387 -0.0072
 1306TIP3    H1 3871   1.130   5.721   1.882 -0.2770 -0.0234 -1.0393
 1306TIP3    H2 3872   1.266   5.660   1.907 -0.8723 -0.4464  1.3114
 1307TIP3   OH2 3873   5.463   0.022   4.722  0.3528  0.2755 -0.9207
 1307TIP3    H1 3874   5.538   0.048   4.669  0.4274  1.8230 -0.0777
 1307TIP3    H2 3875   5.417   0.104   4.741 -1.1638 -0.5624 -0.8209
 1308TIP3   OH2 3876   0.295   4.158   2.335 -0.2811  0.2398  0.6090
 1308TIP3    H1 3877   0.309   4.223   2.266  0.7808 -0.2595  0.3440
 1308TIP3    H2 3878   0.203   4.168   2.359 -1.4315 -1.4826 -2.8028
 1309TIP3   OH2 3879   1.699   4.706   3.055 -0.0789 -0.8550 -0.0867
 1309TIP3    H1 3880   1.685   4.690   2.961 -2.5691 -1.9292  0.4361
 1309TIP3    H2 3881   1.621   4.754   3.083  0.1669 -1.4397  1.6423
 1310TIP3   OH2 3882   5.755   0.679   4.522 -0.3356 -0.0206  0.5593
 1310TIP3    H1 3883   5.669   0.646   4.495  0.1391 -1.1704  0.4309
 1310TIP3    H2 3884   5.738   0.723   4.605 -1.2112  0.5818  0.0775
 1311TIP3   OH2 3885   1.188   6.830   2.233  0.1038 -0.0345  0.5111
 1311TIP3    H1 3886   1.103   6.860   2.266  0.4179  0.4970  0.8470
 1311TIP3    H2 3887   1.225   6.907   2.189  0.0812 -0.4842 -0.2958
 1312TIP3   OH2 3888   6.071   3.827   1.426  0.2930  0.2041  0.1230
 1312TIP3    H1 3889   6.026   3.774   1.492  2.8150 -1.3465  0.6662
 1312TIP3    H2 3890   6.002   3.851   1.363 -1.7549  0.0607  2.2605
 1313TIP3   OH2 3891   7.591   4.778   1.197 -0.0099 -0.0841 -0.4928
 1313TIP3    H1 3892   7.611   4.694   1.239 -2.2922 -0.8583 -0.9024
 1313TIP3    H2 3893   7.662   4.791   1.134  1.4045 -0.7436  0.9067
 1314TIP3   OH2 3894   7.122   3.877   2.221  0.1064 -0.6784  0.0130
 1314TIP3    H1 3895   7.199   3.826   2.194 -1.2947 -2.0602 -1.4746
 1314TIP3    H2 3896   7.073   3.891   2.140 -1.5596 -0.4251  1.0531
 1315TIP3   OH2 3897   0.306   5.239   0.081 -0.1627  0.6769 -0.0268
 1315TIP3    H1 3898   0.315   5.147   0.103  2.1397  0.9383  0.1856
 1315TIP3    H2 3899   0.289   5.283   0.164 -3.5631  0.2019 -0.4112
 1316TIP3   OH2 3900   7.263   4.436   0.752 -0.1650  0.0610 -0.2329
 1316TIP3    H1 3901   7.269   4.342   0.733 -0.3016  0.3106 -1.5491
 1316TIP3    H2 3902   7.236   4.440   0.844 -1.9679 -1.1995 -0.6714
 1317TIP3   OH2 3903   5.657   2.417   5.485 -0.1820  0.2456 -0.2950
 1317TIP3    H1 3904   5.676   2.454   5.399 -0.7138  0.9952 -0.0896
 1317TIP3    H2 3905   5.690   2.327   5.480 -0.7201  0.1078 -1.4674
 1318TIP3   OH2 3906   7.652   4.369   4.335 -0.4914 -0.1724 -0.7698
 1318TIP3    H1 3907   7.601   4.445   4.362  2.1312  1.3849 -0.1100
 1318TIP3    H2 3908   7.732   4.405   4.297  2.6227 -2.5374  3.1635
 1319TIP3   OH2 3909   0.824   7.408   2.135 -0.3113  0.3100 -0.4620
 1319TIP3    H1 3910   0.826   7.502   2.148  0.6032  0.3291 -0.6953
 1319TIP3    H2 3911   0.732   7.388   2.119 -0.5646  1.1047 -0.0162
 1320TIP3   OH2 3912   0.105   2.599   6.347  0.6275 -0.3103  0.2711
 1320TIP3    H1 3913   0.070   2.533   6.407  1.0054 -0.6873  0.0799
 1320TIP3    H2 3914   0.038   2.606   6.279 -0.0906  0.5708  1.0548
 1321TIP3   OH2 3915   0.339   3.710   1.145  0.3603  0.4896 -0.1742
 1321TIP3    H1 3916   0.266   3.660   1.108 -1.1734  0.5363  2.6472
 1321TIP3    H2 3917   0.346   3.787   1.089 -0.5287 -0.4542 -1.6108
 1322TIP3   OH2 3918   2.176   3.652   0.326  0.3997 -0.0992 -0.0828
 1322TIP3    H1 3919   2.224   3.623   0.404  0.4699 -2.7542 -1.0788
 1322TIP3    H2 3920   2.245   3.674   0.263  0.3419 -0.8483 -0.4140
 1323TIP3   OH2 3921   0.353   6.755   2.242  0.4054 -0.2947 -0.1088
 1323TIP3    H1 3922   0.258   6.745   2.238  0.4201  0.0733 -2.8581
 1323TIP3    H2 3923   0.368   6.848   2.223  1.3412 -0.4897 -0.3440
 1324TIP3   OH2 3924   1.565   6.602   2.731 -0.1052 -0.6173 -0.2550
 1324TIP3    H1 3925   1.491   6.662   2.737  1.2647  0.9742  1.2175
 1324TIP3    H2 3926   1.547   6.535   2.797 -0.7070 -0.8087 -0.6037
 1325TIP3   OH2 3927   6.773   6.948   0.032  0.7662 -0.1906  0.7155
 1325TIP3    H1 3928   6.807   6.955  -0.057 -1.2251 -1.5283 -0.1890
 1325TIP3    H2 3929   6.751   7.038   0.057 -1.3312 -0.1145 -1.2650
 1326TIP3   OH2 3930   0.888   4.737   1.928  0.4789 -0.0027 -0.1494
 1326TIP3    H1 3931   0.890   4.643   1.913  1.0585  0.0313 -0.3056
 1326TIP3    H2 3932   0.799   4.755   1.956  0.5402 -0.6951  0.5138
 1327TIP3   OH2 3933   7.388   2.193   5.453 -0.1686  0.4258 -0.2932
 1327TIP3    H1 3934   7.455   2.235   5.506 -0.8531  0.6367  0.4279
 1327TIP3    H2 3935   7.415   2.208   5.363  1.4268 -0.6129 -0.0046
 1328TIP3   OH2 3936   1.120   5.751   2.180 -0.6772 -0.2415 -0.5322
 1328TIP3    H1 3937   1.040   5.803   2.176 -0.0485  0.8470  0.8591
 1328TIP3    H2 3938   1.164   5.770   2.096 -0.5905  1.2651 -0.1681
 1329TIP3   OH2 3939   7.336   7.193   1.548  0.4372 -0.4096  0.7547
 1329TIP3    H1 3940   7.408   7.146   1.505  1.5900  2.8623 -1.0585
 1329TIP3    H2 3941   7.258   7.161   1.504  1.1052 -1.2321  0.1378
 1330TIP3   OH2 3942   7.388   4.182   0.904 -0.8471 -0.1411 -0.3770
 1330TIP3    H1 3943   7.420   4.094   0.924  0.6233  0.4838  0.0841
 1330TIP3    H2 3944   7.466   4.237   0.908 -1.9495  1.3753  0.5025
 1331TIP3   OH2 3945   3.032   4.980   0.173  0.5510 -0.3820  0.4461
 1331TIP3    H1 3946   3.068   4.962   0.086 -0.9541  1.5254 -0.5974
 1331TIP3    H2 3947   3.106   5.016   0.222  1.1216 -0.4051 -0.3884
 1332TIP3   OH2 3948   0.732   5.773   1.352  0.2114  0.4804  0.2534
 1332TIP3    H1 3949   0.757   5.683   1.329 -2.9001 -0.7438  1.3999
 1332TIP3    H2 3950   0.663   5.795   1.289  0.3627  1.7636  0.5217
 1333TIP3   OH2 3951   6.749   4.415   1.117 -0.1177  0.2125 -0.0632
 1333TIP3    H1 3952   6.779   4.502   1.142 -1.1193  0.1815  1.3266
 1333TIP3    H2 3953   6.653   4.423   1.111 -0.3322 -1.0901  1.3539
 1334TIP3   OH2 3954   3.297   1.256   6.377  0.1964  0.4765 -0.1829
 1334TIP3    H1 3955   3.343   1.196   6.436  1.0352 -0.2263 -1.5414
 1334TIP3    H2 3956   3.308   1.342   6.418 -0.4327 -0.1749  1.4174
 1335TIP3   OH2 3957   4.347   0.407   1.522  0.1418  0.1686  0.3394
 1335TIP3    H1 3958   4.361   0.313   1.515  0.0664  0.0677  1.5955
 1335TIP3    H2 3959   4.254   0.420   1.502 -0.3045 -0.2344  2.1070
 1336TIP3   OH2 3960   0.486   5.419   2.222  0.3592  0.1009  0.9775
 1336TIP3    H1 3961   0.477   5.497   2.166 -0.0565 -1.0874 -0.6626
 1336TIP3    H2 3962   0.512   5.454   2.307  0.5802  2.0107  0.1710
 1337TIP3   OH2 3963   1.626   2.294   1.307 -0.4379 -0.3064 -0.0394
 1337TIP3    H1 3964   1.719   2.272   1.295 -0.7266 -0.8738 -1.2755
 1337TIP3    H2 3965   1.626   2.389   1.318  0.5130 -0.5427  2.3220
 1338TIP3   OH2 3966   2.427   6.052   1.846  0.4534 -0.1241 -0.4632
 1338TIP3    H1 3967   2.510   6.088   1.814 -1.0300  1.5501 -2.5943
 1338TIP3    H2 3968   2.369   6.055   1.770 -1.9044 -0.1671  1.2911
 1339TIP3   OH2 3969   0.940   4.629   1.556  0.4620 -0.0315 -0.2114
 1339TIP3    H1 3970   0.902   4.575   1.486  0.9252  0.2707 -0.6970
 1339TIP3    H2 3971   0.977   4.566   1.618  0.6285 -0.2812 -0.5646
 1340TIP3   OH2 3972   3.056   2.913   1.889 -0.5653 -0.1292 -0.2365
 1340TIP3    H1 3973   3.054   2.877   1.978 -1.4487 -0.1866 -0.2787
 1340TIP3    H2 3974   3.129   2.867   1.846 -1.0531 -1.1526  0.0163
 1341TIP3   OH2 3975   0.402   5.128   1.629  0.8387  0.6829 -0.4276
 1341TIP3    H1 3976   0.359   5.165   1.706  1.0554 -2.3549  1.2338
 1341TIP3    H2 3977   0.345   5.153   1.556 -1.9197 -0.3066  1.2980
 1342TIP3   OH2 3978   0.539   4.775   0.532  0.3786  0.1536 -0.2101
 1342TIP3    H1 3979   0.536   4.691   0.486 -0.3175 -1.0893  1.9920
 1342TIP3    H2 3980   0.631   4.801   0.529  0.3305  0.1379 -2.3146
 1343TIP3   OH2 3981   0.859   4.993   0.731 -0.2605  0.5139 -0.1871
 1343TIP3    H1 3982   0.833   5.074   0.775  1.1917  0.2402  1.2161
 1343TIP3    H2 3983   0.784   4.934   0.744 -0.5495  1.0025  0.4110
 1344TIP3   OH2 3984   3.017   5.493   0.264  0.0619  0.1263  0.2646
 1344TIP3    H1 3985   3.083   5.556   0.234 -0.4537  0.3691 -0.3661
 1344TIP3    H2 3986   2.950   5.494   0.196 -0.5403 -0.2091  0.8475
 1345TIP3   OH2 3987   1.145   5.247   1.468  0.1400  0.1526 -0.0538
 1345TIP3    H1 3988   1.097   5.253   1.551 -0.2486 -0.3692 -0.2414
 1345TIP3    H2 3989   1.237   5.244   1.494  0.0068 -0.2712  0.3733
 1346TIP3   OH2 3990   1.322   3.907   0.313  0.2031 -0.0106  0.1876
 1346TIP3    H1 3991   1.394   3.865   0.266 -0.6627  0.5065 -1.6243
 1346TIP3    H2 3992   1.243   3.869   0.275 -0.5062 -0.6275  2.2186
 1347TIP3   OH2 3993   0.276   5.877   2.117 -0.6534 -0.0702  0.2289
 1347TIP3    H1 3994   0.284   5.827   2.198 -0.2620  1.2316  1.0176
 1347TIP3    H2 3995   0.285   5.812   2.047  0.9215 -0.9533  1.2153
 1348TIP3   OH2 3996   7.040   5.925   1.163  0.1147  0.1817  0.2410
 1348TIP3    H1 3997   6.946   5.912   1.173  0.0753  0.3027  0.0224
 1348TIP3    H2 3998   7.079   5.856   1.217 -0.1015 -0.5798 -0.5536
 1349TIP3   OH2 3999   1.914   7.371   2.035  0.6984  0.4176 -0.2088
 1349TIP3    H1 4000   1.890   7.445   2.091  1.0721  0.5409 -0.2062
 1349TIP3    H2 4001   1.983   7.326   2.084  0.0878 -0.2461  0.0333
 1350TIP3   OH2 4002   3.554   4.982   0.208 -0.0180 -0.1772  0.1890
 1350TIP3    H1 4003   3.540   5.045   0.279 -1.1317 -0.4936  0.2680
 1350TIP3    H2 4004   3.512   5.021   0.132  1.9529  0.5742 -0.5460
 1351TIP3   OH2 4005   6.770   5.775   1.150  0.3245  0.2398  0.2536
 1351TIP3    H1 4006   6.700   5.746   1.209  1.4913 -0.4335  1.3287
 1351TIP3    H2 4007   6.741   5.747   1.063 -1.2889  1.0021  0.5228
 1352TIP3   OH2 4008   0.279   4.475   2.667  0.1826  0.5639  0.1627
 1352TIP3    H1 4009   0.315   4.555   2.627  0.6934  0.5114  0.5163
 1352TIP3    H2 4010   0.221   4.507   2.736  0.8451  0.6331  0.7027
 1353TIP3   OH2 4011   2.965   4.551   0.778 -0.7889  0.0629 -0.5727
 1353TIP3    H1 4012   3.033   4.505   0.728 -0.0182  0.7797 -0.1889
 1353TIP3    H2 4013   2.883   4.520   0.740 -0.2525 -0.8675 -0.9966
 1354TIP3   OH2 4014   5.876   4.391   3.385 -0.3094  0.2017 -0.1222
 1354TIP3    H1 4015   5.881   4.479   3.348  0.3286 -0.5782 -1.9989
 1354TIP3    H2 4016   5.965   4.372   3.415 -0.7790  0.7488  1.6906
 1355TIP3   OH2 4017   2.303   3.852   0.790 -0.3101 -0.3402  0.1224
 1355TIP3    H1 4018   2.385   3.884   0.752 -1.1253  1.0175 -0.5320
 1355TIP3    H2 4019   2.314   3.867   0.884 -0.5613  1.6359 -0.1451
 1356TIP3   OH2 4020   7.582   5.384   3.007 -0.0661  0.0277 -0.8815
 1356TIP3    H1 4021   7.493   5.375   3.041  0.2486  0.0709 -0.0274
 1356TIP3    H2 4022   7.624   5.301   3.027  0.8830  0.9548  1.1570
 1357TIP3   OH2 4023   1.747   5.534   1.786  0.0151 -0.5685  0.2329
 1357TIP3    H1 4024   1.820   5.594   1.800 -1.3681  0.7324  2.2127
 1357TIP3    H2 4025   1.756   5.468   1.855 -0.3312 -0.7551  0.1071
 1358TIP3   OH2 4026   3.148   0.827   5.441 -0.6581 -0.2300  0.3769
 1358TIP3    H1 4027   3.206   0.756   5.467  0.4847  0.0035 -1.4570
 1358TIP3    H2 4028   3.206   0.894   5.405 -1.8421  1.0928  0.8772
 1359TIP3   OH2 4029   1.839   6.288   0.902 -0.1175 -0.2543 -0.6223
 1359TIP3    H1 4030   1.935   6.280   0.894  0.0297 -0.1540  0.9829
 1359TIP3    H2 4031   1.807   6.200   0.885  0.3504 -0.5549  0.0133
 1360TIP3   OH2 4032   6.182   5.066   4.683  0.2843 -0.5394  0.2009
 1360TIP3    H1 4033   6.133   5.085   4.603 -0.7589 -0.1339  0.9310
 1360TIP3    H2 4034   6.171   4.972   4.696  1.3115 -0.7835 -0.6958
 1361TIP3   OH2 4035   1.281   4.310   4.390  0.1905 -0.0565 -0.3453
 1361TIP3    H1 4036   1.333   4.241   4.431  0.7708 -0.5391 -1.8785
 1361TIP3    H2 4037   1.241   4.269   4.314 -0.2176  1.0522 -0.7459
 1362TIP3   OH2 4038   6.637   5.286   0.410 -0.1347  0.3468  0.8900
 1362TIP3    H1 4039   6.715   5.244   0.373  0.3906  0.5635  1.7480
 1362TIP3    H2 4040   6.653   5.380   0.397 -2.6554  0.2760 -3.8117
 1363TIP3   OH2 4041   7.541   1.346   6.347 -0.2269 -0.5120 -0.4905
 1363TIP3    H1 4042   7.590   1.305   6.276  0.5718  0.1283 -0.3112
 1363TIP3    H2 4043   7.451   1.315   6.335 -0.5570  1.3420 -3.0948
 1364TIP3   OH2 4044   1.898   4.735   2.411  0.1387  0.4862  0.0649
 1364TIP3    H1 4045   1.853   4.651   2.416 -1.2101  1.2055  0.2441
 1364TIP3    H2 4046   1.920   4.746   2.319  0.4281 -0.1131  0.0605
 1365TIP3   OH2 4047   0.060   5.572   2.485 -0.5104  0.0664  0.1124
 1365TIP3    H1 4048   0.063   5.522   2.567  0.5722 -0.1242 -0.0237
 1365TIP3    H2 4049  -0.023   5.618   2.487  0.4514  1.7670  2.3429
 1366TIP3   OH2 4050   2.872   4.473   1.036 -0.1573  0.1395 -0.0706
 1366TIP3    H1 4051   2.817   4.551   1.045  0.9542  0.8981  0.3004
 1366TIP3    H2 4052   2.934   4.496   0.967  1.4554  0.3660  1.4118
 1367TIP3   OH2 4053   2.623   5.204   1.969  0.3849  0.2992 -0.0336
 1367TIP3    H1 4054   2.710   5.178   1.997 -0.5413 -2.8504  0.1161
 1367TIP3    H2 4055   2.633   5.225   1.876  1.3751  0.3465  0.0801
 1368TIP3   OH2 4056   0.616   6.101   0.134  0.0154  0.2101  0.3434
 1368TIP3    H1 4057   0.652   6.154   0.063  1.0357 -1.2079 -0.2278
 1368TIP3    H2 4058   0.693   6.057   0.171 -0.6824 -0.0626  1.4764
 1369TIP3   OH2 4059   1.025   4.065   5.076  0.0352 -0.2696 -1.0534
 1369TIP3    H1 4060   1.035   4.145   5.025  3.5047 -0.7122 -1.1563
 1369TIP3    H2 4061   1.092   4.005   5.042 -1.5522 -2.7378 -0.0308
 1370TIP3   OH2 4062   2.241   7.134   1.857  0.4720 -0.0949 -0.0127
 1370TIP3    H1 4063   2.325   7.112   1.817  0.3722 -0.1581 -0.1921
 1370TIP3    H2 4064   2.208   7.051   1.891 -0.2972 -0.4051 -1.4372
 1371TIP3   OH2 4065   2.826   2.676   0.327  0.2816 -0.8173  0.2994
 1371TIP3    H1 4066   2.859   2.676   0.417 -0.7465 -2.1739  0.7047
 1371TIP3    H2 4067   2.818   2.768   0.304  1.8432 -0.4562  1.1079
 1372TIP3   OH2 4068   3.731   5.485   2.270 -0.1911 -0.4414 -0.0629
 1372TIP3    H1 4069   3.692   5.493   2.357  0.1110 -1.2365  0.1596
 1372TIP3    H2 4070   3.815   5.530   2.277 -0.3625 -0.1217 -0.0707
 1373TIP3   OH2 4071   2.624   7.256   0.697 -0.5422 -0.4413  0.2571
 1373TIP3    H1 4072   2.662   7.169   0.680  0.5012  0.0916 -0.2082
 1373TIP3    H2 4073   2.692   7.301   0.748 -1.5164 -0.2538  1.3991
 1374TIP3   OH2 4074   2.057   6.943   2.162 -0.1008  0.3342  0.4129
 1374TIP3    H1 4075   1.983   6.931   2.221 -0.1036 -0.4303  0.2510
 1374TIP3    H2 4076   2.044   6.879   2.092  0.8148  0.0493  0.4895
 1375TIP3   OH2 4077   5.286   1.463   5.888 -0.1241  0.2024 -0.0752
 1375TIP3    H1 4078   5.201   1.492   5.919  0.3645  0.4610  1.0563
 1375TIP3    H2 4079   5.330   1.544   5.861  1.2519  0.5951  3.1083
 1376TIP3   OH2 4080   1.677   6.569   0.508  0.6801  0.3013 -0.4428
 1376TIP3    H1 4081   1.601   6.610   0.550 -0.5235 -0.3908 -1.8897
 1376TIP3    H2 4082   1.733   6.643   0.483  1.0330  0.7602  1.6019
 1377TIP3   OH2 4083   7.202   0.512   6.203 -0.4293 -0.2155 -0.3585
 1377TIP3    H1 4084   7.107   0.520   6.203 -0.6950 -2.7702 -1.8515
 1377TIP3    H2 4085   7.223   0.470   6.119  1.8965 -0.7910  0.4599
 1378TIP3   OH2 4086   1.027   2.080   5.481 -0.0237 -0.4033  0.6510
 1378TIP3    H1 4087   1.015   2.175   5.493 -0.7762 -0.2918 -0.9200
 1378TIP3    H2 4088   1.108   2.072   5.431 -0.1556 -0.5739  0.4675
 1379TIP3   OH2 4089   0.570   5.950   1.836 -0.2893  0.3382  0.2942
 1379TIP3    H1 4090   0.644   5.969   1.779  0.1767  0.4654  0.9286
 1379TIP3    H2 4091   0.498   5.930   1.777 -0.5358  3.1001 -0.4155
 1380TIP3   OH2 4092   1.262   1.413   3.820  0.0920 -0.2113  0.0613
 1380TIP3    H1 4093   1.213   1.492   3.797  0.9441  0.6333  1.1359
 1380TIP3    H2 4094   1.307   1.388   3.738  0.9374  1.2172  0.0750
 1381TIP3   OH2 4095   2.073   4.853   0.467  0.6595 -0.1573 -0.4290
 1381TIP3    H1 4096   2.068   4.812   0.381  0.2520  1.0868 -1.0157
 1381TIP3    H2 4097   2.166   4.859   0.486  0.8636  1.7381 -1.8735
 1382TIP3   OH2 4098   0.022   5.868   0.109 -0.0595  0.1341  0.1358
 1382TIP3    H1 4099  -0.013   5.859   0.020 -0.8229 -0.3550  0.4806
 1382TIP3    H2 4100   0.029   5.963   0.123 -0.8893  0.2257 -0.0713
 1383TIP3   OH2 4101   3.250   6.023   0.187  0.4595 -0.3263 -0.2751
 1383TIP3    H1 4102   3.157   6.026   0.163  0.4217 -0.4519 -0.1464
 1383TIP3    H2 4103   3.251   5.983   0.274  0.6840 -0.9322 -0.5514
 1384TIP3   OH2 4104   0.565   5.714   1.960 -0.4425  0.1256 -0.0407
 1384TIP3    H1 4105   0.644   5.661   1.955 -1.5237 -2.0239  3.5016
 1384TIP3    H2 4106   0.592   5.801   1.930  2.7734 -1.0277 -0.6483
 1385TIP3   OH2 4107   3.184   0.738   2.345 -0.2324 -0.0920  0.4490
 1385TIP3    H1 4108   3.112   0.783   2.388 -0.4833  3.5198 -3.3871
 1385TIP3    H2 4109   3.146   0.657   2.311 -1.5500  0.0473  1.5634
 1386TIP3   OH2 4110   1.646   6.039   0.576  0.1959 -0.0343  0.4091
 1386TIP3    H1 4111   1.629   6.130   0.600  2.4250  0.8298 -1.1263
 1386TIP3    H2 4112   1.695   6.044   0.494 -0.3293 -2.6494 -0.1153
 1387TIP3   OH2 4113   0.124   3.978   1.722 -0.2806 -0.4707  0.3329
 1387TIP3    H1 4114   0.104   3.945   1.809  1.4141 -0.8387  0.6061
 1387TIP3    H2 4115   0.140   3.900   1.670  1.1598 -0.1759  0.3226
 1388TIP3   OH2 4116   7.761   4.890   3.198 -1.0938  0.5518 -0.6335
 1388TIP3    H1 4117   7.778   4.905   3.105 -0.6328 -0.1049 -0.6620
 1388TIP3    H2 4118   7.788   4.799   3.213 -1.2969  0.6077  0.1131
 1389TIP3   OH2 4119   3.171   2.386  -0.021 -0.3387 -0.3030 -0.6282
 1389TIP3    H1 4120   3.131   2.397   0.065  0.5739 -0.9781 -0.1058
 1389TIP3    H2 4121   3.209   2.471  -0.041  0.8420 -0.5882  0.3652
 1390TIP3   OH2 4122   6.223   7.001   6.447 -0.0918  0.2237  0.1811
 1390TIP3    H1 4123   6.163   7.052   6.501 -0.3333  0.6809 -0.5032
 1390TIP3    H2 4124   6.210   7.035   6.358  1.6184  0.7603  0.1064
 1391TIP3   OH2 4125   7.678   2.882   0.712  0.0100  0.3743 -0.3509
 1391TIP3    H1 4126   7.714   2.952   0.765  0.5248  1.0302 -1.5445
 1391TIP3    H2 4127   7.589   2.911   0.690 -0.8147 -0.6650  1.5350
 1392TIP3   OH2 4128   7.585   6.269   1.765 -0.4315 -0.2768  0.4646
 1392TIP3    H1 4129   7.639   6.191   1.752 -1.8745 -1.4775  1.4964
 1392TIP3    H2 4130   7.512   6.257   1.705  0.7364  1.6490 -1.3902
 1393TIP3   OH2 4131   0.482   6.642   2.844 -0.6554 -0.4769 -0.3310
 1393TIP3    H1 4132   0.408   6.692   2.878  0.1104  0.6158 -0.2356
 1393TIP3    H2 4133   0.478   6.656   2.749 -0.7568 -0.6875 -0.3588
 1394TIP3   OH2 4134   7.700   7.176   0.255  0.6575  0.0049 -0.0697
 1394TIP3    H1 4135   7.623   7.223   0.223 -0.0260 -1.6677 -0.9511
 1394TIP3    H2 4136   7.678   7.151   0.344  0.8695  1.0032  0.2670
 1395TIP3   OH2 4137   3.948   2.293   0.834  0.3928  0.5539  0.2678
 1395TIP3    H1 4138   3.917   2.262   0.749  0.1663  1.5569 -0.0164
 1395TIP3    H2 4139   3.869   2.302   0.887  0.3194  1.8339 -0.0428
 1396TIP3   OH2 4140   3.845   3.904   0.584  0.3945 -0.2027  0.3239
 1396TIP3    H1 4141   3.762   3.934   0.623 -0.2257 -0.5357 -0.7451
 1396TIP3    H2 4142   3.894   3.985   0.569  0.0484  0.0345  0.4505
 1397TIP3   OH2 4143   0.557   6.104   2.078 -0.0693 -0.2049 -0.1184
 1397TIP3    H1 4144   0.557   6.043   2.005  0.7858  0.4849 -0.7033
 1397TIP3    H2 4145   0.469   6.142   2.078  0.1220  0.2397 -1.1685
 1398TIP3   OH2 4146   0.004   4.014   6.128  0.1527 -0.1259 -0.4928
 1398TIP3    H1 4147   0.018   3.922   6.109 -0.4467 -0.3590  0.1945
 1398TIP3    H2 4148   0.023   4.059   6.046  2.5725 -0.6510 -0.2624
 1399TIP3   OH2 4149   0.970   5.688   1.810  0.1870  0.3088  0.3508
 1399TIP3    H1 4150   0.907   5.643   1.867  1.5344 -2.0002  0.0617
 1399TIP3    H2 4151   1.015   5.618   1.763  1.7616  2.0104 -0.7568
 1400TIP3   OH2 4152   2.467   5.322   0.723 -0.7378  0.2390 -0.0031
 1400TIP3    H1 4153   2.453   5.335   0.629 -0.5371 -1.2040 -0.2508
 1400TIP3    H2 4154   2.558   5.347   0.737 -0.5923 -0.0977 -0.3179
 1401TIP3   OH2 4155   6.449   3.755   2.461 -0.1573 -0.3683 -0.4428
 1401TIP3    H1 4156   6.489   3.697   2.396 -3.5456 -1.7779 -1.3925
 1401TIP3    H2 4157   6.387   3.808   2.411 -0.3200  0.9666  1.1243
 1402TIP3   OH2 4158   0.128   3.899   0.908  0.0614 -0.2731 -0.1016
 1402TIP3    H1 4159   0.096   3.984   0.877 -0.2488 -0.7757 -1.1645
 1402TIP3    H2 4160   0.220   3.916   0.932 -0.4441  0.7294  1.2290
 1403TIP3   OH2 4161   2.510   3.630   1.447 -0.1408 -0.3072  0.1780
 1403TIP3    H1 4162   2.590   3.677   1.424  0.2804 -0.6401  0.9525
 1403TIP3    H2 4163   2.457   3.694   1.494 -0.0584 -0.2790  0.2315
 1404TIP3   OH2 4164   6.773   3.086   5.852 -0.0080  0.4813 -0.5126
 1404TIP3    H1 4165   6.731   3.063   5.769  2.6729  0.0365 -1.8059
 1404TIP3    H2 4166   6.783   3.003   5.898 -0.5590  0.5936 -0.1838
 1405TIP3   OH2 4167   7.319   4.921   1.736 -0.3904 -0.1434 -0.5530
 1405TIP3    H1 4168   7.262   4.962   1.671 -1.9066  1.4912  1.7550
 1405TIP3    H2 4169   7.382   4.989   1.760  0.7192 -1.0169 -0.9300
 1406TIP3   OH2 4170   0.381   3.958   0.970 -0.3243 -0.5726 -0.1644
 1406TIP3    H1 4171   0.475   3.950   0.954 -0.4717 -1.6166 -0.5430
 1406TIP3    H2 4172   0.363   4.051   0.959  0.7864 -0.2524  0.6037
 1407TIP3   OH2 4173   3.815   3.204   1.623  0.3956  0.5736  0.6334
 1407TIP3    H1 4174   3.860   3.193   1.539  2.0175  3.1041  1.1150
 1407TIP3    H2 4175   3.752   3.275   1.608 -1.3034 -0.8575  0.8246
 1408TIP3   OH2 4176   1.309   3.274   2.370 -0.1426 -1.1906 -0.1493
 1408TIP3    H1 4177   1.284   3.340   2.434  0.9402 -1.4811  0.5911
 1408TIP3    H2 4178   1.331   3.324   2.291  2.9703 -0.4217  1.1123
 1409TIP3   OH2 4179   1.201   7.377   1.841  0.2936 -0.6086  0.3185
 1409TIP3    H1 4180   1.107   7.391   1.840  0.3935  0.0110 -0.2637
 1409TIP3    H2 4181   1.228   7.403   1.929 -0.1194 -1.0924  0.5917
 1410TIP3   OH2 4182   2.550   3.723   0.530 -0.4427  0.4223 -0.1931
 1410TIP3    H1 4183   2.621   3.688   0.584 -0.8649 -1.2576 -0.7041
 1410TIP3    H2 4184   2.470   3.695   0.575 -0.8121  1.6257 -0.0575
 1411TIP3   OH2 4185   0.051   4.612   0.781  1.1789 -0.0881 -0.0606
 1411TIP3    H1 4186  -0.044   4.618   0.770  1.0315 -2.6275 -0.5073
 1411TIP3    H2 4187   0.072   4.679   0.845 -0.3602  3.2098 -2.8671
 1412TIP3   OH2 4188   4.067   0.462   1.517 -0.1481 -0.1814  0.2179
 1412TIP3    H1 4189   4.045   0.510   1.437 -0.4964  0.9761  0.9967
 1412TIP3    H2 4190   4.016   0.382   1.512  2.2216 -1.6222 -2.2458
 1413TIP3   OH2 4191   4.212   3.186   1.799 -0.0985 -0.2352 -0.4064
 1413TIP3    H1 4192   4.262   3.106   1.814  1.6764  1.2825  2.0322
 1413TIP3    H2 4193   4.205   3.227   1.885 -0.7763  2.3532 -1.6498
 1414TIP3   OH2 4194   7.850   2.920   5.413  0.5722 -0.5505  0.5923
 1414TIP3    H1 4195   7.922   2.962   5.366 -1.0647  0.7499 -0.8228
 1414TIP3    H2 4196   7.869   2.826   5.406  1.6273 -0.2715 -0.5554
 1415TIP3   OH2 4197   0.528   0.435   4.626 -0.1667 -0.2014 -0.4073
 1415TIP3    H1 4198   0.469   0.440   4.550 -3.0115 -0.5830  1.6922
 1415TIP3    H2 4199   0.549   0.342   4.635  0.6844 -0.0829 -1.0650
 1416TIP3   OH2 4200   1.278   1.639   5.788 -0.0750  0.3129 -0.6431
 1416TIP3    H1 4201   1.300   1.706   5.724  3.2440  0.6423  0.7475
 1416TIP3    H2 4202   1.361   1.595   5.807 -1.1191 -0.4200  2.6694
 1417TIP3   OH2 4203   0.042   0.096   6.067  0.4169  0.2858 -0.4316
 1417TIP3    H1 4204   0.061   0.161   6.135 -0.0741  0.1709 -0.1899
 1417TIP3    H2 4205   0.128   0.059   6.046  0.6638  0.8094 -0.3688
 1418TIP3   OH2 4206   1.512   0.338   4.732 -0.6059 -0.8343  0.3896
 1418TIP3    H1 4207   1.467   0.391   4.666  0.9128  0.4714  0.3633
 1418TIP3    H2 4208   1.581   0.395   4.765 -0.8087 -1.7652  2.5152
 1419TIP3   OH2 4209   1.124   6.007   0.201 -0.4535  0.1099 -0.1415
 1419TIP3    H1 4210   1.209   6.046   0.182  0.2911 -1.4964 -0.1198
 1419TIP3    H2 4211   1.122   5.925   0.152 -0.7713 -1.3340  2.1970
 1420TIP3   OH2 4212   6.709   0.749   4.874 -0.2334  0.2030 -0.1580
 1420TIP3    H1 4213   6.748   0.836   4.884 -0.4307  0.1617  1.0363
 1420TIP3    H2 4214   6.650   0.740   4.949 -0.3051 -0.9194 -0.3351
 1421TIP3   OH2 4215   0.957   2.374   5.974  0.9826 -0.1641  0.1353
 1421TIP3    H1 4216   1.014   2.447   5.951  0.6859  1.0229  2.9909
 1421TIP3    H2 4217   0.873   2.415   5.997  0.6035 -1.4456  1.0899
 1422TIP3   OH2 4218   4.566   3.635   0.248 -0.2455 -0.1244  0.0696
 1422TIP3    H1 4219   4.579   3.584   0.328  2.1507  0.1255 -0.1254
 1422TIP3    H2 4220   4.648   3.682   0.235 -0.8099  0.3278 -2.1955
 1423TIP3   OH2 4221   0.417   2.492   6.261  0.1812  0.6390  0.0008
 1423TIP3    H1 4222   0.486   2.485   6.327 -1.3244 -1.6930  1.3993
 1423TIP3    H2 4223   0.340   2.522   6.310 -0.8329 -0.6779 -0.7429
 1424TIP3   OH2 4224   1.789   1.883   5.052  0.4719 -0.1829  0.4589
 1424TIP3    H1 4225   1.852   1.937   5.003  2.5419 -1.9746  1.0943
 1424TIP3    H2 4226   1.709   1.936   5.054  1.3545  1.3522 -1.9873
 1425TIP3   OH2 4227   1.133   1.531   5.585 -1.3391  0.1894 -0.0014
 1425TIP3    H1 4228   1.110   1.623   5.574  1.2238  0.7486 -1.0766
 1425TIP3    H2 4229   1.202   1.531   5.652  1.5819 -0.4232 -2.8375
 1426TIP3   OH2 4230   1.433   6.148   0.782 -0.4896  0.0784 -0.2388
 1426TIP3    H1 4231   1.457   6.142   0.875 -1.2476 -3.3529 -0.1907
 1426TIP3    H2 4232   1.365   6.214   0.779  0.3055  1.0097  1.4889
 1427TIP3   OH2 4233   3.483   4.257   2.254  0.5233 -0.5122 -0.0422
 1427TIP3    H1 4234   3.506   4.208   2.175  0.8293 -1.2026  0.4746
 1427TIP3    H2 4235   3.535   4.337   2.248 -1.0072  0.4114 -1.5866
 1428TIP3   OH2 4236   1.773   0.799   5.939  0.2017  0.0850  0.4530
 1428TIP3    H1 4237   1.782   0.834   5.850  0.0223  1.2068  0.8714
 1428TIP3    H2 4238   1.804   0.708   5.932  2.3334  0.8413 -0.2671
 1429TIP3   OH2 4239   3.877   6.065   0.641  0.1142 -0.1751  0.4437
 1429TIP3    H1 4240   3.847   6.080   0.551 -1.3956 -0.3429  0.9049
 1429TIP3    H2 4241   3.834   6.135   0.691  0.5946 -0.3560  1.1013
 1430TIP3   OH2 4242   1.956   2.409   3.992  0.4976  0.0583  0.2023
 1430TIP3    H1 4243   1.987   2.492   4.028  2.9125 -1.2739  1.2519
 1430TIP3    H2 4244   2.019   2.387   3.923 -1.4966  0.2650 -1.7789
 1431TIP3   OH2 4245   1.502   1.527   6.129 -0.3054  0.2711 -0.1934
 1431TIP3    H1 4246   1.492   1.618   6.100 -0.3982  0.4945  0.5377
 1431TIP3    H2 4247   1.536   1.534   6.218 -1.8380 -0.4053  0.4443
 1432TIP3   OH2 4248   1.651   5.724   0.439 -0.3072  0.1728 -0.0462
 1432TIP3    H1 4249   1.572   5.717   0.385 -0.6002  0.7635  0.2873
 1432TIP3    H2 4250   1.649   5.815   0.471  0.2093  0.0245  0.4138
 1433TIP3   OH2 4251   0.587   1.165   4.981 -0.3843 -0.1357  0.2080
 1433TIP3    H1 4252   0.606   1.093   5.041  1.8839 -0.0986 -0.4449
 1433TIP3    H2 4253   0.526   1.128   4.918  1.2256 -1.6787 -0.4817
 1434TIP3   OH2 4254   0.375   2.171   6.421  0.1080  0.0960 -0.2779
 1434TIP3    H1 4255   0.285   2.181   6.390 -0.9834 -1.5017  2.2522
 1434TIP3    H2 4256   0.388   2.247   6.478  0.4194  0.3668 -0.7021
 1435TIP3   OH2 4257   0.330   0.395   4.826  0.2024  0.5401 -0.6266
 1435TIP3    H1 4258   0.252   0.398   4.770  0.6593 -0.8997 -1.3530
 1435TIP3    H2 4259   0.399   0.433   4.773 -0.0317  2.0371  0.1050
 1436TIP3   OH2 4260   5.949   2.005   5.915 -0.2141  0.3044  0.2031
 1436TIP3    H1 4261   6.008   1.939   5.878  1.4118  2.7304 -1.6393
 1436TIP3    H2 4262   5.869   1.998   5.863 -0.3991 -0.7899  0.6122
 1437TIP3   OH2 4263   5.958   0.604   0.264 -0.2709  0.2896 -0.0936
 1437TIP3    H1 4264   6.046   0.638   0.279 -0.9128  1.6568  0.6723
 1437TIP3    H2 4265   5.959   0.516   0.302  1.4898 -0.7429 -2.3495
 1438TIP3   OH2 4266   0.809   5.999   3.228 -0.3070  0.3970  0.1979
 1438TIP3    H1 4267   0.818   6.062   3.156 -0.9490  0.0559 -0.1866
 1438TIP3    H2 4268   0.746   6.039   3.288  0.5980  0.9020  0.8146
 1439TIP3   OH2 4269   5.274   2.356   0.524  0.8296 -0.0330 -0.1011
 1439TIP3    H1 4270   5.313   2.424   0.470  0.3275  0.2838 -0.0680
 1439TIP3    H2 4271   5.303   2.274   0.484  0.8346  0.2025 -0.5812
 1440TIP3   OH2 4272   2.811   4.369   0.592 -0.1421  0.2563 -0.4728
 1440TIP3    H1 4273   2.720   4.348   0.613 -0.4257  1.3454 -0.5995
 1440TIP3    H2 4274   2.860   4.292   0.620 -1.0039 -0.0002  0.3611
 1441TIP3   OH2 4275   1.367   5.780   0.645 -0.7774 -0.1893  0.4003
 1441TIP3    H1 4276   1.328   5.720   0.580  1.2531 -0.6094 -0.4913
 1441TIP3    H2 4277   1.347   5.867   0.612 -0.9612 -0.4002 -0.0527
 1442TIP3   OH2 4278   7.623   3.072   6.059 -0.1002 -0.0886  0.5832
 1442TIP3    H1 4279   7.543   3.092   6.108 -1.4487 -0.0349 -1.5832
 1442TIP3    H2 4280   7.605   2.989   6.015  1.7083 -0.9702  1.4324
 1443TIP3   OH2 4281   4.280   5.424   0.252 -0.0814  1.1710  0.7793
 1443TIP3    H1 4282   4.201   5.478   0.256 -0.2300  1.0021  0.2630
 1443TIP3    H2 4283   4.347   5.475   0.297 -0.8154  0.7267  2.4080
 1444TIP3   OH2 4284   0.118   0.959   5.501 -0.3987  0.2042  0.2388
 1444TIP3    H1 4285   0.076   0.880   5.467  0.6225 -0.5781  0.7806
 1444TIP3    H2 4286   0.194   0.972   5.446 -0.1023  0.3324  0.6747
 1445TIP3   OH2 4287   0.930   2.955   5.283 -0.1133 -0.2538 -0.2882
 1445TIP3    H1 4288   0.972   3.039   5.265 -1.1134  0.7401  1.7953
 1445TIP3    H2 4289   0.971   2.924   5.364 -0.2943 -1.4131 -0.6232
 1446TIP3   OH2 4290   1.577   1.328   3.834 -0.1143 -0.0346  0.2535
 1446TIP3    H1 4291   1.619   1.330   3.748 -1.6627 -1.0245 -0.5520
 1446TIP3    H2 4292   1.489   1.362   3.819 -0.4090 -0.2484  1.4355
 1447TIP3   OH2 4293   2.015   2.807   2.187 -0.0016 -0.0122 -0.6878
 1447TIP3    H1 4294   2.089   2.858   2.220 -0.0106 -1.4843  1.7701
 1447TIP3    H2 4295   1.999   2.741   2.255 -2.6294 -0.6580 -1.8547
 1448TIP3   OH2 4296   7.252   0.056   6.162  0.2798 -0.6031  0.3587
 1448TIP3    H1 4297   7.278   0.032   6.073 -3.1915 -0.3805 -0.8288
 1448TIP3    H2 4298   7.224   0.148   6.154 -1.9064 -1.1604  1.1822
 1449TIP3   OH2 4299   2.922   6.076   0.161  0.0112 -1.2050 -0.1494
 1449TIP3    H1 4300   2.894   6.019   0.233 -0.0974  0.1256  0.8640
 1449TIP3    H2 4301   2.842   6.122   0.135  0.6293  0.3887  0.7502
 1450TIP3   OH2 4302   5.026   3.891   0.430 -0.6362  0.0986 -0.0378
 1450TIP3    H1 4303   4.996   3.923   0.345  1.5814  1.3844 -0.3462
 1450TIP3    H2 4304   5.116   3.863   0.415 -1.0828 -2.2273  1.2829
 1451TIP3   OH2 4305   7.778   1.786   5.470  0.5757  0.0466 -0.1266
 1451TIP3    H1 4306   7.819   1.701   5.488 -0.5543 -0.4097  0.2981
 1451TIP3    H2 4307   7.748   1.817   5.556  1.8800  1.3502 -0.1155
 1452TIP3   OH2 4308   6.860   0.541   5.485  0.6830 -0.1999  0.4620
 1452TIP3    H1 4309   6.783   0.593   5.462  0.4580 -1.0299 -0.7107
 1452TIP3    H2 4310   6.876   0.561   5.577 -0.6369  0.3608  0.5784
 1453TIP3   OH2 4311   2.321   5.663   1.406  0.0440 -0.2218  0.1777
 1453TIP3    H1 4312   2.236   5.671   1.361 -0.8504 -0.8599  1.7307
 1453TIP3    H2 4313   2.318   5.577   1.447  1.1172  0.0931  0.9131
 1454TIP3   OH2 4314   0.546   0.243   5.679 -0.3107  0.0343  0.7376
 1454TIP3    H1 4315   0.467   0.276   5.723  0.4140  1.3643  1.0721
 1454TIP3    H2 4316   0.618   0.286   5.725  0.5295  0.2099 -0.7189
 1455TIP3   OH2 4317   5.836   6.525   5.231  0.3875 -0.3526  0.3584
 1455TIP3    H1 4318   5.820   6.586   5.303 -0.9862  0.8731 -0.9458
 1455TIP3    H2 4319   5.773   6.550   5.164  2.7212 -0.4001 -1.9414
 1456TIP3   OH2 4320   3.964   4.414   3.243  0.4818 -0.2769  0.0108
 1456TIP3    H1 4321   3.968   4.469   3.321  0.6901 -2.9153  1.9445
 1456TIP3    H2 4322   3.871   4.404   3.225  0.4419  0.5965 -0.2696
 1457TIP3   OH2 4323   0.546   4.161   1.361  0.7131 -0.4226 -0.0949
 1457TIP3    H1 4324   0.463   4.156   1.408  0.1006  0.3696 -1.0714
 1457TIP3    H2 4325   0.607   4.109   1.413 -0.2549 -0.5335  0.9262
 1458TIP3   OH2 4326   1.748   1.937   6.076  0.0153 -0.1282 -0.0188
 1458TIP3    H1 4327   1.793   2.002   6.023 -0.5782 -0.7313 -1.2752
 1458TIP3    H2 4328   1.777   1.853   6.040 -1.0391 -0.5347  0.0720
 1459TIP3   OH2 4329   2.456   4.217   1.087  0.1269  0.6880 -0.1287
 1459TIP3    H1 4330   2.476   4.144   1.146 -1.7681  0.5850  0.4028
 1459TIP3    H2 4331   2.537   4.230   1.038  0.4686 -1.8773 -0.3222
 1460TIP3   OH2 4332   3.985   5.754   0.097  0.4513 -0.0453  0.0680
 1460TIP3    H1 4333   3.966   5.760   0.003  1.3199 -1.3242 -0.2009
 1460TIP3    H2 4334   3.964   5.840   0.132 -0.3775  0.2743 -1.2196
 1461TIP3   OH2 4335   7.894   2.582   5.108  0.3683 -0.4663 -0.4940
 1461TIP3    H1 4336   7.820   2.643   5.118  1.4245  0.3587  2.7441
 1461TIP3    H2 4337   7.965   2.622   5.157  1.8415 -3.1325 -0.3685
 1462TIP3   OH2 4338   6.560   2.148   6.370 -0.1770  0.2355  0.0078
 1462TIP3    H1 4339   6.614   2.179   6.297 -0.1166 -1.4970 -0.7025
 1462TIP3    H2 4340   6.609   2.172   6.448 -0.2136  2.0581 -0.5021
 1463TIP3   OH2 4341   2.686   1.802   5.354  0.0316  0.9816 -0.5582
 1463TIP3    H1 4342   2.634   1.813   5.433 -1.9161 -0.6168 -1.5654
 1463TIP3    H2 4343   2.668   1.881   5.302 -0.5037  0.9575 -0.4128
 1464TIP3   OH2 4344   0.656   4.558   0.087  0.1456  0.6814  0.3953
 1464TIP3    H1 4345   0.599   4.626   0.053 -0.2646 -0.1532 -0.6280
 1464TIP3    H2 4346   0.597   4.492   0.123  0.4895  0.3443  0.3585
 1465TIP3   OH2 4347   2.628   3.907   1.078  0.0490 -0.2001  0.0277
 1465TIP3    H1 4348   2.608   3.988   1.125 -1.0522 -1.7180  2.2787
 1465TIP3    H2 4349   2.580   3.915   0.995  1.0674  2.0213 -0.3677
 1466TIP3   OH2 4350   3.152   2.179   1.170 -0.0375  0.1712 -0.1102
 1466TIP3    H1 4351   3.126   2.236   1.243  0.1697  1.2702 -0.8790
 1466TIP3    H2 4352   3.247   2.176   1.175 -0.0537 -0.2428  0.0122
 1467TIP3   OH2 4353   7.687   0.222   6.098  0.0712 -0.9354  0.3527
 1467TIP3    H1 4354   7.703   0.233   6.004 -0.7677 -0.8990  0.2138
 1467TIP3    H2 4355   7.771   0.243   6.139  0.0264  0.5334 -0.2874
 1468TIP3   OH2 4356   0.817   2.151   5.816  0.1067  0.4415 -0.4178
 1468TIP3    H1 4357   0.856   2.189   5.738 -0.5890 -0.6938 -1.3317
 1468TIP3    H2 4358   0.856   2.200   5.889  2.5136 -0.0315 -1.3357
 1469TIP3   OH2 4359   3.935   5.389   0.427  0.4705  0.2464 -0.1211
 1469TIP3    H1 4360   3.921   5.375   0.333 -0.7700 -1.6120  0.3095
 1469TIP3    H2 4361   3.847   5.391   0.464  0.9668  0.6276  1.0545
 1470TIP3   OH2 4362   0.932   6.250   1.793 -0.8184 -0.1540 -0.1105
 1470TIP3    H1 4363   0.968   6.265   1.880  0.1670  0.1476 -0.5608
 1470TIP3    H2 4364   0.944   6.333   1.747 -1.0155 -0.4195 -0.6472
 1471TIP3   OH2 4365   2.108   3.302   1.306 -0.4914 -0.3127  0.0836
 1471TIP3    H1 4366   2.132   3.392   1.327 -1.1306 -0.4577  1.4677
 1471TIP3    H2 4367   2.120   3.254   1.388 -3.4816 -0.7909  0.2894
 1472TIP3   OH2 4368   2.584   5.415   0.111 -0.1593  0.6446  0.3012
 1472TIP3    H1 4369   2.671   5.380   0.132 -0.8494 -0.5150  1.2974
 1472TIP3    H2 4370   2.535   5.339   0.079 -0.8089  1.3000 -0.2769
 1473TIP3   OH2 4371   7.310   3.311   5.342  0.1146  0.0648  0.4047
 1473TIP3    H1 4372   7.309   3.216   5.329 -0.4242  0.4451 -2.7103
 1473TIP3    H2 4373   7.229   3.330   5.390  0.6402 -1.1079  1.7934
 1474TIP3   OH2 4374   4.022   3.420   2.830  0.2059  0.5585 -0.1033
 1474TIP3    H1 4375   4.076   3.343   2.815  1.9632  1.6499  0.4680
 1474TIP3    H2 4376   3.948   3.409   2.770  1.3616 -0.6637 -1.3547
 1475TIP3   OH2 4377   0.456   1.148   4.096 -0.0423 -0.3337  0.0673
 1475TIP3    H1 4378   0.436   1.111   4.010  1.1401 -1.1619  0.1270
 1475TIP3    H2 4379   0.447   1.074   4.156  1.0823 -0.2438  0.3660
 1476TIP3   OH2 4380   0.995   4.705   0.504  0.1443 -0.3514  0.1539
 1476TIP3    H1 4381   1.014   4.662   0.421  2.1854  1.4535 -0.3504
 1476TIP3    H2 4382   0.932   4.774   0.482  0.8016  0.2253  0.0727
 1477TIP3   OH2 4383   2.911   2.318   2.025 -0.0508 -0.0931 -0.0922
 1477TIP3    H1 4384   2.822   2.324   2.061 -0.7533  0.7546 -1.8881
 1477TIP3    H2 4385   2.899   2.274   1.941  1.3516 -0.6731  0.0088
 1478TIP3   OH2 4386   1.702   5.262   0.617  0.1214 -0.2402 -0.2845
 1478TIP3    H1 4387   1.655   5.344   0.602  0.7056  0.3365  0.9682
 1478TIP3    H2 4388   1.633   5.195   0.619 -0.9700  0.8786  3.8182
 1479TIP3   OH2 4389   0.148   0.453   3.747  0.1104 -0.0608 -0.5477
 1479TIP3    H1 4390   0.172   0.365   3.720  2.1688  0.4673 -0.5530
 1479TIP3    H2 4391   0.173   0.458   3.839 -1.0674  0.1619 -0.2281
 1480TIP3   OH2 4392   2.779   5.146   0.009 -0.5655  0.4711 -0.4594
 1480TIP3    H1 4393   2.798   5.193   0.090 -0.2696 -1.1518  0.4259
 1480TIP3    H2 4394   2.683   5.150   0.001 -0.8047 -1.2540  1.1603
 1481TIP3   OH2 4395   7.471   0.590   5.974 -0.7340  0.1408  0.4075
 1481TIP3    H1 4396   7.489   0.513   5.919  2.5733 -0.4249  2.2082
 1481TIP3    H2 4397   7.385   0.572   6.012  0.1597 -2.9211  1.1328
 1482TIP3   OH2 4398   0.997   6.771   3.287  0.1948  0.3639 -0.2257
 1482TIP3    H1 4399   0.952   6.704   3.235 -1.1202  1.8314 -1.0037
 1482TIP3    H2 4400   1.021   6.726   3.368 -2.1823 -0.6089 -0.0237
 1483TIP3   OH2 4401   2.343   4.747   0.493 -0.4705  0.4526 -0.5623
 1483TIP3    H1 4402   2.369   4.739   0.585 -1.4364  0.9125 -0.2470
 1483TIP3    H2 4403   2.423   4.776   0.449  0.1283 -0.2428  0.0499
 1484TIP3   OH2 4404   0.383   1.737   3.166 -0.1403 -0.1451 -0.1109
 1484TIP3    H1 4405   0.300   1.773   3.133 -0.1614 -0.3036 -0.2348
 1484TIP3    H2 4406   0.448   1.806   3.149 -0.2159 -0.0868 -0.1635
 1485TIP3   OH2 4407   5.657   7.226   5.818  0.2000 -0.5483  0.2643
 1485TIP3    H1 4408   5.728   7.188   5.871  0.8573 -0.5121 -0.5822
 1485TIP3    H2 4409   5.692   7.227   5.729 -0.9636 -0.7501 -0.1958
 1486TIP3   OH2 4410   1.545   1.602   5.796  0.3889  0.2068 -0.2812
 1486TIP3    H1 4411   1.564   1.650   5.715  1.2747  1.1469  0.4558
 1486TIP3    H2 4412   1.587   1.654   5.865  0.3933 -1.0393  0.6839
 1487TIP3   OH2 4413   0.828   4.267   1.053 -0.2088 -0.2478 -0.1496
 1487TIP3    H1 4414   0.886   4.344   1.056  0.5686 -0.8439  0.3469
 1487TIP3    H2 4415   0.746   4.297   1.093  0.4430  0.0285  0.9820
 1488TIP3   OH2 4416   0.902   1.098   4.467 -0.4717 -0.5697 -0.2940
 1488TIP3    H1 4417   0.906   1.005   4.489 -1.2006 -0.1237  1.8524
 1488TIP3    H2 4418   0.968   1.139   4.523 -1.4849  0.4416  0.1813
 1489TIP3   OH2 4419   1.561   3.744   0.339  0.1528  0.0463  0.1457
 1489TIP3    H1 4420   1.536   3.675   0.400  0.8503 -0.2384  0.1126
 1489TIP3    H2 4421   1.590   3.697   0.261  1.0457  0.3629  0.2846
 1490TIP3   OH2 4422   4.851   7.425   5.686 -0.1952 -0.0668  0.1019
 1490TIP3    H1 4423   4.771   7.477   5.686 -1.2585 -1.6529  1.5591
 1490TIP3    H2 4424   4.828   7.344   5.640  0.5983 -0.5125  0.4696
 1491TIP3   OH2 4425   2.427   2.058   0.103  0.5609 -0.3943 -0.1081
 1491TIP3    H1 4426   2.407   1.984   0.046  0.4282  0.5702 -1.3252
 1491TIP3    H2 4427   2.523   2.060   0.107  0.5542 -1.1925  0.6889
 1492TIP3   OH2 4428   2.122   4.970   1.288 -0.0813  0.1103 -0.3432
 1492TIP3    H1 4429   2.181   4.995   1.359  0.3000  0.3295 -0.7339
 1492TIP3    H2 4430   2.154   4.885   1.259 -0.6485 -0.2870  0.1927
 1493TIP3   OH2 4431   1.860   6.604   1.899 -0.0676 -0.3033 -0.4058
 1493TIP3    H1 4432   1.862   6.699   1.885  0.2108 -0.4172 -1.1913
 1493TIP3    H2 4433   1.952   6.581   1.912 -0.2418 -0.3161  0.8902
 1494TIP3   OH2 4434   2.512   5.602   0.316  0.0013 -0.0568  0.1671
 1494TIP3    H1 4435   2.544   5.556   0.238  1.6286 -1.6493  1.7335
 1494TIP3    H2 4436   2.463   5.676   0.281  1.8068  0.0192 -2.3878
 1495TIP3   OH2 4437   4.778   6.782   0.811  0.0422  0.0136  0.0074
 1495TIP3    H1 4438   4.687   6.791   0.839  0.5374  0.0689  1.6730
 1495TIP3    H2 4439   4.789   6.689   0.794 -0.3223  0.0067 -0.1893
 1496TIP3   OH2 4440   1.422   5.348   1.535 -0.2313  0.0504 -0.0431
 1496TIP3    H1 4441   1.488   5.356   1.604  0.9366  0.1415 -1.1438
 1496TIP3    H2 4442   1.469   5.306   1.463 -1.5621 -0.4653 -0.6079
 1497TIP3   OH2 4443   3.344   6.366   0.777  0.6345  0.1350  0.6065
 1497TIP3    H1 4444   3.389   6.434   0.727 -2.2726  0.6709 -1.4371
 1497TIP3    H2 4445   3.258   6.404   0.797 -0.6470 -2.5203  0.3709
 1498TIP3   OH2 4446   2.777   6.367   0.783  0.0045 -0.1140 -0.0197
 1498TIP3    H1 4447   2.738   6.287   0.749 -1.1062  0.4973 -0.2015
 1498TIP3    H2 4448   2.778   6.355   0.878  0.3837 -0.5838 -0.0806
 1499TIP3   OH2 4449   7.880   0.233   5.803  0.1881 -0.2329  0.6282
 1499TIP3    H1 4450   7.875   0.176   5.726 -1.6190  0.2050  0.3902
 1499TIP3    H2 4451   7.860   0.175   5.877  0.3498 -0.3198  0.6045
 1500TIP3   OH2 4452   1.781   3.893   0.656  0.1206 -0.1840  0.1267
 1500TIP3    H1 4453   1.762   3.880   0.563 -2.8183  0.4821  0.6062
 1500TIP3    H2 4454   1.843   3.823   0.677  0.8941 -0.2817 -2.3384
 1501TIP3   OH2 4455   6.313   0.031   1.260 -0.2883 -0.5941  0.0937
 1501TIP3    H1 4456   6.317  -0.041   1.323 -0.8112 -1.9193 -1.3241
 1501TIP3    H2 4457   6.399   0.030   1.218 -0.8873 -1.5793 -1.1552
 1502TIP3   OH2 4458   7.545   2.505   4.555  0.5144 -0.6896 -0.0258
 1502TIP3    H1 4459   7.550   2.595   4.523 -2.3934 -1.1638 -1.9924
 1502TIP3    H2 4460   7.543   2.514   4.650  2.5467  1.1661 -0.1235
 1503TIP3   OH2 4461   5.840   7.408   6.008  0.8097 -0.2038  0.3369
 1503TIP3    H1 4462   5.847   7.313   6.001  0.5815 -0.2120  0.2305
 1503TIP3    H2 4463   5.879   7.441   5.927 -1.7072 -0.2962 -0.9569
 1504TIP3   OH2 4464   0.858   6.005   0.235 -0.4765 -0.0176 -0.7365
 1504TIP3    H1 4465   0.953   6.009   0.229 -0.6080  0.7826 -2.6622
 1504TIP3    H2 4466   0.838   6.036   0.323  1.0703 -0.6485 -0.1485
 1505TIP3   OH2 4467   2.956   4.644   0.173  0.0090 -0.5175  0.3134
 1505TIP3    H1 4468   2.899   4.709   0.133  0.2145 -0.3873  0.2284
 1505TIP3    H2 4469   2.904   4.564   0.176 -0.1734 -0.4018  0.2298
 1506TIP3   OH2 4470   5.441   4.706   1.130 -0.1410  0.0269 -0.7811
 1506TIP3    H1 4471   5.414   4.752   1.050  1.6362  1.4841 -0.5847
 1506TIP3    H2 4472   5.416   4.766   1.200 -1.3409 -1.0791 -0.2576
 1507TIP3   OH2 4473   7.192   1.074   4.299 -0.0355  0.1046 -0.2982
 1507TIP3    H1 4474   7.187   1.168   4.281 -1.9378  0.1619  0.3981
 1507TIP3    H2 4475   7.163   1.032   4.218  0.3244  0.1468 -0.4443
 1508TIP3   OH2 4476   0.409   6.053   2.813 -0.4455 -0.2271  0.3234
 1508TIP3    H1 4477   0.492   6.080   2.775 -0.4369  0.2303  0.6607
 1508TIP3    H2 4478   0.382   5.977   2.761  0.3546 -0.5917  0.4336
 1509TIP3   OH2 4479   6.222   0.282   5.938 -0.1182 -0.1990 -0.1947
 1509TIP3    H1 4480   6.249   0.373   5.946 -0.3852 -0.1873  0.6264
 1509TIP3    H2 4481   6.127   0.283   5.955  0.2053 -0.8786  1.7963
 1510TIP3   OH2 4482   5.659   3.984   1.585  0.5853 -0.5242  0.2428
 1510TIP3    H1 4483   5.623   4.012   1.501 -0.8666 -2.4592  0.2029
 1510TIP3    H2 4484   5.583   3.974   1.643  1.3371 -1.4476  1.1077
 1511TIP3   OH2 4485   3.189   5.279   0.168 -0.2040 -0.5622  0.2655
 1511TIP3    H1 4486   3.179   5.220   0.243  0.4205 -1.2770 -0.2064
 1511TIP3    H2 4487   3.114   5.338   0.174  0.7150  0.4403  2.3956
 1512TIP3   OH2 4488   2.723   5.720   2.045 -0.0795  0.0223 -0.2184
 1512TIP3    H1 4489   2.730   5.630   2.078 -0.3615  0.1242  0.1233
 1512TIP3    H2 4490   2.660   5.713   1.973 -1.1516  0.1770  0.6877
 1513TIP3   OH2 4491   2.784   5.865   0.692  0.0189  0.4912 -0.2488
 1513TIP3    H1 4492   2.734   5.937   0.732 -1.1315 -0.7435  0.5987
 1513TIP3    H2 4493   2.773   5.792   0.753  0.1617 -0.7616 -1.6955
 1514TIP3   OH2 4494   4.265   7.192   1.376 -0.5405 -0.0296 -0.4754
 1514TIP3    H1 4495   4.314   7.244   1.313 -0.2959  1.4414  0.8732
 1514TIP3    H2 4496   4.173   7.213   1.359 -0.5627 -0.8161 -1.3358
 1515TIP3   OH2 4497   5.838   2.825   6.137  0.1343 -0.1625 -0.4308
 1515TIP3    H1 4498   5.834   2.878   6.216  1.1888  1.0483 -1.1707
 1515TIP3    H2 4499   5.764   2.764   6.144 -0.5770  0.8465  0.8216
 1516TIP3   OH2 4500   3.739   4.385   0.397 -0.5883  0.1727 -0.3180
 1516TIP3    H1 4501   3.685   4.309   0.417  1.0805 -0.9064  0.1951
 1516TIP3    H2 4502   3.792   4.398   0.476 -1.0877  2.0816 -0.2751
 1517TIP3   OH2 4503   2.681   3.664   0.752 -0.3267  0.3256  0.5481
 1517TIP3    H1 4504   2.764   3.684   0.795 -0.5461  0.1048  1.0752
 1517TIP3    H2 4505   2.652   3.581   0.791  0.1987 -0.6461 -1.0653
 1518TIP3   OH2 4506   2.022   5.167   1.548  0.3347  0.3257 -0.2482
 1518TIP3    H1 4507   1.966   5.243   1.534  1.1274  0.7768 -1.0891
 1518TIP3    H2 4508   1.979   5.095   1.502 -0.3797  0.2834  0.4864
 1519TIP3   OH2 4509   3.046   4.255   1.371 -0.0753  0.3056 -0.2335
 1519TIP3    H1 4510   3.088   4.320   1.429  0.2881 -0.2027  0.0783
 1519TIP3    H2 4511   3.098   4.257   1.291 -0.0815  0.4169 -0.2351
 1520TIP3   OH2 4512   2.839   7.304   1.810  0.1991 -0.2397 -0.4049
 1520TIP3    H1 4513   2.829   7.311   1.715  1.8900 -3.3783 -0.8593
 1520TIP3    H2 4514   2.931   7.282   1.823  0.1183  0.6746  2.0341
 1521TIP3   OH2 4515   1.768   4.501   0.055  0.1872  0.1475 -0.2114
 1521TIP3    H1 4516   1.848   4.462   0.020 -0.7672 -1.7524 -0.3657
 1521TIP3    H2 4517   1.790   4.524   0.145  0.2056 -2.7094  0.5807
 1522TIP3   OH2 4518   0.021   1.498   4.893 -0.0793  0.2454 -0.0524
 1522TIP3    H1 4519   0.002   1.533   4.806 -1.2401  1.0253  0.5148
 1522TIP3    H2 4520   0.039   1.405   4.877  0.6656  0.5774 -1.2484
 1523TIP3   OH2 4521   0.022   7.401   1.435 -0.0880  0.0875 -0.5174
 1523TIP3    H1 4522   0.036   7.495   1.446 -1.8381  0.3780 -0.5743
 1523TIP3    H2 4523   0.078   7.376   1.362  1.2343  0.8566  0.2213
 1524TIP3   OH2 4524   5.188   4.777   1.683 -0.1248  0.3088  0.2384
 1524TIP3    H1 4525   5.126   4.819   1.742  0.7950  0.2016  1.3031
 1524TIP3    H2 4526   5.256   4.742   1.741 -0.9769 -2.8573 -0.5663
 1525TIP3   OH2 4527   7.754   1.498   5.154 -0.2125 -0.4849  0.4931
 1525TIP3    H1 4528   7.834   1.476   5.107 -0.8877 -2.2170  0.1116
 1525TIP3    H2 4529   7.729   1.416   5.198 -0.1268  0.8327  3.0877
 1526TIP3   OH2 4530   4.539   6.994   2.881  0.0914 -0.4053  0.2819
 1526TIP3    H1 4531   4.535   7.087   2.862 -2.9891 -0.7131 -0.7945
 1526TIP3    H2 4532   4.529   6.988   2.976 -1.8520  0.2829  0.1366
 1527TIP3   OH2 4533   3.948   6.472   2.055 -0.0189 -0.3216 -0.1215
 1527TIP3    H1 4534   3.916   6.411   2.121  2.5891 -2.1516 -0.4519
 1527TIP3    H2 4535   3.975   6.416   1.982  1.1877  1.3297 -0.9890
 1528TIP3   OH2 4536   5.302   6.901   5.681 -0.3005 -0.1059  0.4767
 1528TIP3    H1 4537   5.279   6.994   5.688 -1.8046 -0.4890  0.7712
 1528TIP3    H2 4538   5.228   6.861   5.636  0.9153 -0.9542 -0.8047
 1529TIP3   OH2 4539   2.254   6.196   1.105 -0.5942 -0.0823 -0.4433
 1529TIP3    H1 4540   2.310   6.125   1.136  0.3217  0.6372 -0.4111
 1529TIP3    H2 4541   2.314   6.270   1.092 -1.5697  0.7599 -0.2363
 1530TIP3   OH2 4542   0.977   4.102   1.759 -0.0672 -0.0945  0.5631
 1530TIP3    H1 4543   0.950   4.044   1.831 -0.2710 -0.3228  0.3040
 1530TIP3    H2 4544   0.901   4.106   1.702  0.2523 -0.2827  0.1215
 1531TIP3   OH2 4545   3.260   4.831   1.167  0.1936 -0.4448 -0.4176
 1531TIP3    H1 4546   3.263   4.745   1.125  0.4742 -1.1335  0.9989
 1531TIP3    H2 4547   3.345   4.840   1.210  0.0814  0.4497 -0.3679
 1532TIP3   OH2 4548   7.675   2.697   5.699  0.4301 -0.0687  0.1418
 1532TIP3    H1 4549   7.752   2.752   5.686  1.0327 -0.8369  0.4141
 1532TIP3    H2 4550   7.710   2.608   5.705 -0.6145 -0.5607 -1.0401
 1533TIP3   OH2 4551   7.052   0.797   5.911  0.5457 -0.1319 -0.4304
 1533TIP3    H1 4552   6.999   0.819   5.988  0.4753  1.0543 -0.8001
 1533TIP3    H2 4553   7.090   0.881   5.884  1.7410 -0.7883 -0.8196
 1534TIP3   OH2 4554   4.646   3.222   0.564 -0.4993 -0.2428 -0.1262
 1534TIP3    H1 4555   4.632   3.237   0.470 -0.6839 -1.8414 -0.3789
 1534TIP3    H2 4556   4.568   3.259   0.606 -2.3558 -3.0291 -0.9686
 1535TIP3   OH2 4557   3.828   6.700   1.317  0.7683  0.0924  0.2830
 1535TIP3    H1 4558   3.749   6.750   1.297  0.9373  0.1392 -0.2748
 1535TIP3    H2 4559   3.886   6.717   1.243  2.5402  2.6282  2.1451
 1536TIP3   OH2 4560   0.417   6.161   0.323  0.2967  0.5737  0.2969
 1536TIP3    H1 4561   0.394   6.254   0.322 -1.7150  0.0956 -1.7150
 1536TIP3    H2 4562   0.478   6.150   0.251 -1.1691 -0.0440 -0.8746
 1537TIP3   OH2 4563   3.594   6.603   1.425 -0.0115 -0.1894 -0.3925
 1537TIP3    H1 4564   3.673   6.598   1.371 -0.3083 -2.7527 -0.6348
 1537TIP3    H2 4565   3.522   6.594   1.363 -0.6570  4.2256 -0.4571
 1538TIP3   OH2 4566   0.213   0.529   6.269 -0.1562  0.2295  0.3581
 1538TIP3    H1 4567   0.267   0.467   6.318  1.1251  1.5281  0.6356
 1538TIP3    H2 4568   0.248   0.525   6.180  0.5419  1.2197  0.5817
 1539TIP3   OH2 4569   7.740   2.979   6.338 -0.7390 -0.6611 -0.0863
 1539TIP3    H1 4570   7.818   3.008   6.385  0.0528 -1.0240 -1.1643
 1539TIP3    H2 4571   7.697   3.060   6.311 -0.3126 -0.4641 -0.1793
 1540TIP3   OH2 4572   7.227   4.282   4.347  0.1131 -0.0770 -0.0946
 1540TIP3    H1 4573   7.138   4.269   4.315  0.5179 -1.2952 -0.7444
 1540TIP3    H2 4574   7.257   4.195   4.371  0.6840  0.5040  1.3224
 1541TIP3   OH2 4575   2.457   5.770   0.108 -0.0769  0.4256  0.5410
 1541TIP3    H1 4576   2.375   5.755   0.060  0.9438 -0.0961 -1.0676
 1541TIP3    H2 4577   2.476   5.863   0.094  0.2437  0.2645 -0.1243
 1542TIP3   OH2 4578   7.231   1.721   5.486 -0.1529 -0.3747  0.0252
 1542TIP3    H1 4579   7.311   1.688   5.528 -0.2923 -1.7690 -0.7836
 1542TIP3    H2 4580   7.212   1.803   5.532  0.0238 -1.5733  2.2557
 1543TIP3   OH2 4581   1.533   4.745   0.972 -0.1118  0.0013  0.0440
 1543TIP3    H1 4582   1.495   4.750   1.059  1.0161  0.2218  0.5248
 1543TIP3    H2 4583   1.575   4.659   0.968  2.1970  1.0589  0.7087
 1544TIP3   OH2 4584   1.357   5.129   0.043  0.3934 -0.2530 -0.5056
 1544TIP3    H1 4585   1.432   5.092  -0.005 -0.1396 -0.4684 -1.1843
 1544TIP3    H2 4586   1.326   5.057   0.097  0.8898 -0.0607  0.0394
 1545TIP3   OH2 4587   5.337   6.587   5.730 -0.2692 -0.7078  0.5059
 1545TIP3    H1 4588   5.371   6.660   5.781  1.3012 -1.5915  0.7399
 1545TIP3    H2 4589   5.264   6.553   5.782 -1.0030  0.6563  0.4074
 1546TIP3   OH2 4590   7.689   2.238   4.892  0.3701 -0.5154 -0.3226
 1546TIP3    H1 4591   7.652   2.161   4.935 -1.8420 -0.1608 -1.4666
 1546TIP3    H2 4592   7.709   2.209   4.804 -0.1798  0.1126 -0.6632
 1547TIP3   OH2 4593   2.931   2.826   0.833  0.3088 -0.1231 -0.1111
 1547TIP3    H1 4594   2.849   2.829   0.884 -0.0035  0.8072 -0.6594
 1547TIP3    H2 4595   2.997   2.800   0.897 -0.4450 -1.1074  0.2946
 1548TIP3   OH2 4596   4.277   2.182   2.021 -0.0811  0.3517  0.3438
 1548TIP3    H1 4597   4.207   2.131   2.061 -0.5021  0.2437 -0.5143
 1548TIP3    H2 4598   4.358   2.140   2.050 -0.4207 -0.7369 -0.2643
 1549TIP3   OH2 4599   2.565   3.913   0.803  0.3235 -0.6101  0.2437
 1549TIP3    H1 4600   2.586   3.946   0.716  1.6451  0.8758  1.0743
 1549TIP3    H2 4601   2.586   3.820   0.800  1.9251 -0.2462 -0.5824
 1550TIP3   OH2 4602   4.600   6.262   6.443  0.3366  0.4390  0.0683
 1550TIP3    H1 4603   4.548   6.273   6.363 -1.3928  0.4750  1.1818
 1550TIP3    H2 4604   4.637   6.349   6.460  0.4359  0.5098 -0.4878
 1551TIP3   OH2 4605   3.704   5.598   1.949  0.5917  0.1643 -0.3514
 1551TIP3    H1 4606   3.680   5.678   1.996  0.1141 -0.3214  0.2500
 1551TIP3    H2 4607   3.727   5.536   2.018  1.8916  0.0797 -0.8591
 1552TIP3   OH2 4608   4.419   4.285   2.458  0.6070 -0.3694  0.0094
 1552TIP3    H1 4609   4.453   4.274   2.369  0.7395 -2.0842  0.2619
 1552TIP3    H2 4610   4.413   4.196   2.493 -1.6614  0.0967  0.9007
 1553TIP3   OH2 4611   1.601   4.289   5.575 -0.1605 -0.2976 -0.3311
 1553TIP3    H1 4612   1.512   4.311   5.602  0.5075 -0.3866  2.0624
 1553TIP3    H2 4613   1.636   4.370   5.537 -1.3525 -0.3622 -1.6120
 1554TIP3   OH2 4614   4.653   5.342   1.701 -0.1566 -0.2837 -0.3086
 1554TIP3    H1 4615   4.682   5.327   1.791 -0.8543  0.6443  0.0786
 1554TIP3    H2 4616   4.705   5.281   1.649  0.8166 -0.2834  0.6366
 1555TIP3   OH2 4617   1.329   1.091   4.858 -0.2027 -0.4884 -0.1757
 1555TIP3    H1 4618   1.420   1.073   4.883  0.2110  1.2009 -0.4505
 1555TIP3    H2 4619   1.325   1.186   4.847 -2.0284 -0.5421 -0.0948
 1556TIP3   OH2 4620   1.346   2.371   5.277  0.8282 -0.0364 -0.4609
 1556TIP3    H1 4621   1.313   2.346   5.364  2.1769 -1.3426 -0.2931
 1556TIP3    H2 4622   1.280   2.431   5.243  0.0455  0.1535  1.2870
 1557TIP3   OH2 4623   0.127   2.243   3.827  0.1919 -0.2305  0.8293
 1557TIP3    H1 4624   0.218   2.221   3.845  0.8019  1.0025 -0.6940
 1557TIP3    H2 4625   0.079   2.161   3.840  1.7303 -1.2646  0.0706
 1558TIP3   OH2 4626   5.023   3.926   0.131 -0.3898  0.0787  0.1663
 1558TIP3    H1 4627   5.066   3.912   0.047 -1.4730 -0.4332 -0.3167
 1558TIP3    H2 4628   5.075   3.994   0.175  0.4023  0.0597 -0.7525
 1559TIP3   OH2 4629   4.941   3.601   2.016 -0.4845 -0.1087 -0.7766
 1559TIP3    H1 4630   4.869   3.582   1.956 -0.3551 -0.3765 -0.8457
 1559TIP3    H2 4631   5.020   3.578   1.967 -0.3109  0.8030 -0.9476
 1560TIP3   OH2 4632   2.601   1.639   6.161 -0.4520 -0.6944 -0.0750
 1560TIP3    H1 4633   2.576   1.581   6.233 -1.3180  1.2694  1.2520
 1560TIP3    H2 4634   2.688   1.672   6.185  0.0116 -1.3719 -0.7930
 1561TIP3   OH2 4635   2.850   1.669   6.390 -0.4090 -0.8413  0.0571
 1561TIP3    H1 4636   2.787   1.630   6.451 -0.8592  0.6371  0.5671
 1561TIP3    H2 4637   2.918   1.706   6.447 -0.5733  0.1126 -0.3552
 1562TIP3   OH2 4638   7.568   1.138   4.057  0.7439  0.3451 -0.2339
 1562TIP3    H1 4639   7.544   1.226   4.087  0.6894  0.2138  0.1059
 1562TIP3    H2 4640   7.662   1.144   4.039  0.6826  0.5527 -0.4938
 1563TIP3   OH2 4641   4.471   6.282   0.241 -0.2056  0.3479  0.2036
 1563TIP3    H1 4642   4.493   6.194   0.273  1.7613  1.3193  1.5815
 1563TIP3    H2 4643   4.431   6.266   0.155 -0.5881 -1.9416  0.7604
 1564TIP3   OH2 4644   3.696   2.459   1.465  0.3431 -0.2961 -0.0136
 1564TIP3    H1 4645   3.662   2.542   1.499  0.0293 -0.4055 -0.0513
 1564TIP3    H2 4646   3.740   2.483   1.384  1.5519  0.0354  0.7407
 1565TIP3   OH2 4647   4.869   6.032   1.442  0.2244  0.3177 -0.1597
 1565TIP3    H1 4648   4.833   6.061   1.526  2.5172  0.6436  0.7632
 1565TIP3    H2 4649   4.828   5.947   1.426 -1.0497  0.7455  0.7456
 1566TIP3   OH2 4650   2.857   7.408   0.818  0.1236  0.0797 -0.0692
 1566TIP3    H1 4651   2.888   7.456   0.742 -1.5626  1.8146  0.2878
 1566TIP3    H2 4652   2.937   7.378   0.862  1.2602  2.7653 -0.1918
 1567TIP3   OH2 4653   0.327   2.973   5.019  0.4434 -0.2127  0.4233
 1567TIP3    H1 4654   0.269   3.020   5.079  0.1815  0.1213 -0.0884
 1567TIP3    H2 4655   0.344   3.035   4.949 -0.4919 -1.1182 -0.6250
 1568TIP3   OH2 4656   5.089   6.975   0.419 -0.8922 -0.5493  0.1756
 1568TIP3    H1 4657   5.144   7.053   0.408 -0.7020 -0.7447 -0.3255
 1568TIP3    H2 4658   5.003   7.009   0.443 -0.5384 -0.2392  1.0140
 1569TIP3   OH2 4659   1.663   1.308   6.342  0.0329 -0.0890  0.5625
 1569TIP3    H1 4660   1.603   1.265   6.281  0.1564  0.3057  0.1597
 1569TIP3    H2 4661   1.619   1.390   6.364  0.0072 -0.2124  0.9745
 1570TIP3   OH2 4662   4.673   4.619   0.165  0.0431  0.0875 -0.0661
 1570TIP3    H1 4663   4.755   4.668   0.156  0.6744 -0.7979  0.7486
 1570TIP3    H2 4664   4.612   4.664   0.107  0.8134  1.3884  0.1032
 1571TIP3   OH2 4665   3.293   4.369   0.158 -0.0426 -0.3801 -0.5283
 1571TIP3    H1 4666   3.234   4.422   0.212  1.6165  0.7472  0.2310
 1571TIP3    H2 4667   3.287   4.281   0.195 -1.2317 -0.2953 -0.4729
 1572TIP3   OH2 4668   4.737   3.729   1.714 -0.7465  0.5320 -0.5771
 1572TIP3    H1 4669   4.814   3.784   1.722 -1.3122  1.1258  1.1201
 1572TIP3    H2 4670   4.696   3.755   1.632 -1.1231  2.8140  0.2990
 1573TIP3   OH2 4671   0.730   1.548   5.376  0.4269  0.1853  0.6339
 1573TIP3    H1 4672   0.677   1.501   5.439 -0.8851  0.1552 -0.4738
 1573TIP3    H2 4673   0.807   1.493   5.362  0.1279 -0.3865  1.2686
 1574TIP3   OH2 4674   4.195   4.198   0.256 -0.2485  0.3565  0.5385
 1574TIP3    H1 4675   4.235   4.283   0.237  0.5941 -0.1652 -0.0719
 1574TIP3    H2 4676   4.268   4.143   0.283 -0.4351 -0.7619 -1.1334
 1575TIP3   OH2 4677   7.825   6.927   4.227 -0.0742 -0.6004 -0.4579
 1575TIP3    H1 4678   7.885   6.958   4.160  0.5142  3.3119  1.7279
 1575TIP3    H2 4679   7.874   6.860   4.274  0.5892 -1.2332 -2.0315
 1576TIP3   OH2 4680   4.603   3.249   0.294 -0.6168 -0.1647 -0.0510
 1576TIP3    H1 4681   4.671   3.212   0.236 -1.3257 -0.7431 -0.5147
 1576TIP3    H2 4682   4.533   3.184   0.294 -1.4282  0.7027 -0.0400
 1577TIP3   OH2 4683   1.776   0.999   6.423  0.1857 -0.1572  0.2187
 1577TIP3    H1 4684   1.692   1.044   6.427  0.6976  1.1621 -2.7742
 1577TIP3    H2 4685   1.761   0.923   6.367  0.3063 -1.5300  2.0108
 1578TIP3   OH2 4686   3.715   5.146   0.985  0.1729  0.1092 -0.3089
 1578TIP3    H1 4687   3.768   5.167   1.062  1.8791 -0.0219 -1.4381
 1578TIP3    H2 4688   3.670   5.228   0.964  0.8281  0.5385 -0.0437
 1579TIP3   OH2 4689   6.659   2.556   0.085 -0.2788  0.3915 -0.5069
 1579TIP3    H1 4690   6.676   2.630   0.026  1.3356 -0.6952 -1.4333
 1579TIP3    H2 4691   6.745   2.534   0.121 -0.7282 -1.0925 -0.3144
 1580TIP3   OH2 4692   0.366   1.953   4.860  0.2320  0.4769  0.5425
 1580TIP3    H1 4693   0.369   2.044   4.833 -0.1814  1.0656  2.4545
 1580TIP3    H2 4694   0.285   1.945   4.910 -0.4950 -1.2981 -0.8587
 1581TIP3   OH2 4695   3.517   5.665   1.032 -0.3368 -0.0168 -0.2759
 1581TIP3    H1 4696   3.447   5.690   0.972 -0.1446  0.6342 -0.2281
 1581TIP3    H2 4697   3.478   5.596   1.086 -1.0445  0.5510 -0.0534
 1582TIP3   OH2 4698   0.856   1.510   5.898 -0.1709 -0.2637  0.6036
 1582TIP3    H1 4699   0.902   1.593   5.886  0.1368 -0.4951  0.1901
 1582TIP3    H2 4700   0.925   1.446   5.914 -0.3007 -0.7234 -0.6196
 1583TIP3   OH2 4701   4.304   4.319   1.244 -0.5622  0.3878  0.5904
 1583TIP3    H1 4702   4.259   4.264   1.308  1.1282 -0.8541  0.7429
 1583TIP3    H2 4703   4.371   4.262   1.206 -0.6557  1.4940 -1.3318
 1584TIP3   OH2 4704   7.512   0.499   0.561  0.5043 -0.6442  0.4762
 1584TIP3    H1 4705   7.594   0.547   0.567  1.4307 -1.9708 -1.1750
 1584TIP3    H2 4706   7.526   0.435   0.492 -1.0365 -2.6395  1.9388
 1585TIP3   OH2 4707   6.510   5.442   0.077  0.7614 -0.0224 -0.0564
 1585TIP3    H1 4708   6.482   5.425   0.167 -0.3182 -0.3048 -0.4312
 1585TIP3    H2 4709   6.605   5.433   0.079  0.8173  0.8699  1.2375
 1586TIP3   OH2 4710   6.499   1.073   6.276 -0.3246  0.0012 -0.4370
 1586TIP3    H1 4711   6.435   1.004   6.290  0.3114 -0.5777 -0.3870
 1586TIP3    H2 4712   6.457   1.152   6.310 -0.3013 -0.6933  1.2330
 1587TIP3   OH2 4713   4.881   3.082   5.920  0.4167  0.4018 -0.4478
 1587TIP3    H1 4714   4.844   2.994   5.916 -0.8211  0.9242 -0.6553
 1587TIP3    H2 4715   4.817   3.137   5.876  0.9318  1.5007  0.1547
 1588TIP3   OH2 4716   4.980   6.124   0.413  0.3588  0.3260 -0.1945
 1588TIP3    H1 4717   5.046   6.145   0.347 -0.1786 -0.5692 -1.0142
 1588TIP3    H2 4718   4.939   6.209   0.433  0.0100  0.4903 -1.5529
 1589TIP3   OH2 4719   6.230   3.128   6.186 -0.2221 -0.5024  0.6485
 1589TIP3    H1 4720   6.172   3.057   6.159 -0.0310 -0.7267  0.8183
 1589TIP3    H2 4721   6.185   3.208   6.161  1.4958 -0.7403 -3.5142
 1590TIP3   OH2 4722   0.263   6.983   1.100 -0.0677 -0.7050  0.2349
 1590TIP3    H1 4723   0.264   6.902   1.048  0.1304 -0.5740  0.0308
 1590TIP3    H2 4724   0.316   7.045   1.049  0.6172 -0.7532  0.8771
 1591TIP3   OH2 4725   3.394   3.121   6.190  0.6975 -0.2397 -0.1554
 1591TIP3    H1 4726   3.479   3.130   6.233  0.1534  0.0546  0.8942
 1591TIP3    H2 4727   3.349   3.203   6.210 -0.2116 -0.8088  0.1749
 1592TIP3   OH2 4728   1.611   5.263   1.705 -0.4343  0.2449 -0.2336
 1592TIP3    H1 4729   1.646   5.265   1.794 -1.2107  0.8015  0.0675
 1592TIP3    H2 4730   1.668   5.202   1.658  0.0077 -0.0183  0.6321
 1593TIP3   OH2 4731   3.946   0.132   1.152 -0.6537 -0.0358 -0.1620
 1593TIP3    H1 4732   4.012   0.200   1.142 -0.6476 -0.0342 -0.1118
 1593TIP3    H2 4733   3.977   0.080   1.226 -0.3797 -0.4197 -0.5445
 1594TIP3   OH2 4734   1.394   5.000   1.583  0.1954  0.1355  0.1130
 1594TIP3    H1 4735   1.417   4.980   1.492  0.0407  3.0271 -0.6191
 1594TIP3    H2 4736   1.301   4.979   1.589  0.1028  0.3434 -0.5275
 1595TIP3   OH2 4737   2.254   0.541   0.550  0.4991  0.6274  0.0338
 1595TIP3    H1 4738   2.176   0.590   0.577  0.5654  0.9658 -0.3660
 1595TIP3    H2 4739   2.291   0.507   0.631 -0.0720  0.4604  0.2236
 1596TIP3   OH2 4740   0.576   4.305   1.117  0.3696 -0.0743  0.3050
 1596TIP3    H1 4741   0.582   4.241   1.188  2.7112 -0.6275 -0.3741
 1596TIP3    H2 4742   0.494   4.283   1.073 -0.6139 -0.3545  2.1981
 1597TIP3   OH2 4743   0.071   5.930   2.959  0.0885 -0.1338  0.5482
 1597TIP3    H1 4744   0.072   6.025   2.943  0.5437 -0.4732 -1.6355
 1597TIP3    H2 4745   0.160   5.909   2.987 -0.1232  0.1410  1.4356
 1598TIP3   OH2 4746   2.560   6.252   0.465  0.1106  0.5911  0.0804
 1598TIP3    H1 4747   2.520   6.240   0.551 -0.4632  0.8881 -0.1414
 1598TIP3    H2 4748   2.595   6.341   0.466 -1.3079  1.1664 -0.5570
 1599TIP3   OH2 4749   6.997   6.786   1.864  0.5758  0.0425 -0.3445
 1599TIP3    H1 4750   6.902   6.780   1.858  0.5111  1.2953 -0.7875
 1599TIP3    H2 4751   7.029   6.703   1.829 -0.3342 -0.0208 -1.0387
 1600TIP3   OH2 4752   6.948   0.839   6.180  0.5773 -0.0783  0.0576
 1600TIP3    H1 4753   6.949   0.760   6.234 -1.6306 -0.2301 -0.0591
 1600TIP3    H2 4754   6.933   0.910   6.243  0.0858 -0.0333 -0.1066
 1601TIP3   OH2 4755   1.258   6.442   1.586  0.7406  0.1918 -0.2572
 1601TIP3    H1 4756   1.278   6.393   1.666 -2.1142 -1.9309 -0.7511
 1601TIP3    H2 4757   1.320   6.408   1.522 -0.1806 -1.7501 -0.1768
 1602TIP3   OH2 4758   7.735   2.967   5.671 -0.5253  0.4255 -0.0498
 1602TIP3    H1 4759   7.790   3.033   5.712 -0.4912  0.0584  0.5014
 1602TIP3    H2 4760   7.763   2.965   5.579  0.1660  0.4581  0.1607
 1603TIP3   OH2 4761   7.778   2.455   5.749 -0.2121  0.1683 -0.1557
 1603TIP3    H1 4762   7.748   2.404   5.825 -1.7485  1.3673  0.0647
 1603TIP3    H2 4763   7.869   2.476   5.769  0.6510 -2.9668 -0.5176
 1604TIP3   OH2 4764   5.223   0.580   3.258 -0.3893  0.4789  0.7233
 1604TIP3    H1 4765   5.179   0.496   3.269 -2.0921  1.2684  0.0950
 1604TIP3    H2 4766   5.222   0.595   3.163  1.5667  0.3327  0.6705
 1605TIP3   OH2 4767   6.484   0.186   1.088  0.5452 -0.1046 -0.3640
 1605TIP3    H1 4768   6.509   0.242   1.161  0.8415  1.2985 -1.5256
 1605TIP3    H2 4769   6.517   0.231   1.010  0.5238 -1.7370 -1.3469
 1606TIP3   OH2 4770   5.413   3.282   6.086 -0.2800  0.1555  0.8424
 1606TIP3    H1 4771   5.343   3.224   6.118 -2.0947  1.1135 -1.3246
 1606TIP3    H2 4772   5.447   3.237   6.009 -0.5900  1.1891  0.1080
 1607TIP3   OH2 4773   0.549   6.006   0.555  0.2599 -0.6807  0.0182
 1607TIP3    H1 4774   0.470   5.953   0.564 -0.1439  0.1628  1.6720
 1607TIP3    H2 4775   0.531   6.065   0.482 -0.5161 -0.7163  0.1842
 1608TIP3   OH2 4776   2.352   4.391   0.860 -0.2113 -0.3924  0.0054
 1608TIP3    H1 4777   2.349   4.337   0.939 -1.8064 -0.0623  0.1950
 1608TIP3    H2 4778   2.278   4.451   0.870 -1.6307 -1.6189 -2.6136
 1609TIP3   OH2 4779   2.535   7.195   2.956 -0.5254  0.1244  0.7827
 1609TIP3    H1 4780   2.444   7.226   2.958 -0.3216  0.6649  3.3932
 1609TIP3    H2 4781   2.572   7.224   3.040  1.8424 -0.7359  0.0689
 1610TIP3   OH2 4782   1.231   7.104   1.846 -0.1003 -0.1555  0.6773
 1610TIP3    H1 4783   1.220   7.198   1.835 -2.0555 -0.4548 -0.2537
 1610TIP3    H2 4784   1.214   7.088   1.939 -1.1806  0.2599  0.5636
 1611TIP3   OH2 4785   0.349   4.366   6.202 -0.4319  0.1893 -1.0577
 1611TIP3    H1 4786   0.412   4.299   6.229  0.9126  1.5324 -0.7898
 1611TIP3    H2 4787   0.266   4.339   6.243  0.6287 -0.0556  0.9941
 1612TIP3   OH2 4788   2.082   3.094   4.361  0.3025 -0.5608  0.3584
 1612TIP3    H1 4789   2.080   3.109   4.455  1.6183  1.0251  0.1486
 1612TIP3    H2 4790   2.129   3.012   4.350  0.3624 -0.6181  1.0685
 1613TIP3   OH2 4791   6.899   6.523   3.115 -0.5327 -0.5191  0.0615
 1613TIP3    H1 4792   6.959   6.552   3.046 -0.7825 -1.9037 -0.7360
 1613TIP3    H2 4793   6.887   6.601   3.170 -0.6477  0.7005 -1.6758
 1614TIP3   OH2 4794   0.141   2.089   6.086  0.5292  0.5734  0.4400
 1614TIP3    H1 4795   0.109   2.002   6.062 -0.7429  1.3047 -0.5621
 1614TIP3    H2 4796   0.216   2.103   6.029  1.5432 -0.3807  1.5026
 1615TIP3   OH2 4797   3.853   0.593   2.427  0.0203 -0.0751 -0.2271
 1615TIP3    H1 4798   3.930   0.650   2.431  1.6442 -2.3635  2.6681
 1615TIP3    H2 4799   3.796   0.635   2.363  2.3083  3.3509 -0.1392
 1616TIP3   OH2 4800   7.472   4.030   5.520  0.1488  0.1599 -0.4612
 1616TIP3    H1 4801   7.487   4.072   5.604  0.7916 -0.3713 -0.3058
 1616TIP3    H2 4802   7.476   4.101   5.456 -1.2373  0.7090  0.0348
 1617TIP3   OH2 4803   1.347   2.016   6.247 -0.2296  0.6829  0.0270
 1617TIP3    H1 4804   1.269   2.013   6.192 -0.8153 -0.4232  0.9010
 1617TIP3    H2 4805   1.414   1.972   6.195 -0.5126  0.5218 -0.2051
 1618TIP3   OH2 4806   1.203   6.336   1.170 -0.8480  0.1851  0.6914
 1618TIP3    H1 4807   1.283   6.387   1.183 -0.5447 -0.4909  1.5330
 1618TIP3    H2 4808   1.190   6.289   1.253 -0.3698 -2.1570 -0.5205
 1619TIP3   OH2 4809   2.589   4.858   0.387 -0.4158 -0.0674 -0.0047
 1619TIP3    H1 4810   2.623   4.781   0.433  1.0123  1.1836  1.0430
 1619TIP3    H2 4811   2.666   4.898   0.347 -1.1497  0.8729 -0.4893
 1620TIP3   OH2 4812   0.370   7.097   0.658  0.5878  0.2398  0.0011
 1620TIP3    H1 4813   0.426   7.046   0.599 -1.0472 -0.1875 -1.2276
 1620TIP3    H2 4814   0.410   7.184   0.659  0.5475  0.3081 -1.9192
 1621TIP3   OH2 4815   5.204   0.424   1.019 -0.4033  0.5694  0.2146
 1621TIP3    H1 4816   5.254   0.468   0.950 -1.2997  1.9531  0.4203
 1621TIP3    H2 4817   5.232   0.333   1.014  0.6433  0.9312 -0.9966
 1622TIP3   OH2 4818   2.600   4.085   1.263 -0.1444  0.4993  0.3927
 1622TIP3    H1 4819   2.639   4.165   1.300 -1.6553  1.2416  0.4321
 1622TIP3    H2 4820   2.583   4.030   1.338 -0.5934  0.8239  0.5323
 1623TIP3   OH2 4821   3.186   6.722   1.877 -0.5080 -0.1949  0.3844
 1623TIP3    H1 4822   3.175   6.661   1.804 -0.7137 -0.6783  0.8158
 1623TIP3    H2 4823   3.248   6.679   1.935 -0.9656 -0.1767  0.8902
 1624TIP3   OH2 4824   0.221   3.639   3.701  0.2580  0.3843  0.0450
 1624TIP3    H1 4825   0.152   3.680   3.754  0.8227  0.1405  0.9677
 1624TIP3    H2 4826   0.251   3.709   3.643 -2.1057 -0.0123 -1.7450
 1625TIP3   OH2 4827   7.674   2.052   5.896 -0.6487  0.6509 -0.1860
 1625TIP3    H1 4828   7.738   2.002   5.846 -0.9735  2.4860 -2.4837
 1625TIP3    H2 4829   7.672   2.008   5.982  2.8955 -0.0401 -0.3783
 1626TIP3   OH2 4830   0.630   7.223   1.859  0.0071 -0.5033  0.2084
 1626TIP3    H1 4831   0.581   7.270   1.926  0.2175  0.3129 -0.2074
 1626TIP3    H2 4832   0.675   7.153   1.906  0.8272  0.5804  1.0432
 1627TIP3   OH2 4833   3.057   7.255   1.490 -0.4873  0.3848  0.4331
 1627TIP3    H1 4834   2.988   7.189   1.493  0.3189 -0.4981 -0.1268
 1627TIP3    H2 4835   3.100   7.242   1.405 -0.9424  2.2857 -0.1056
 1628TIP3   OH2 4836   0.742   0.726   5.140 -0.4257  0.0709 -0.7439
 1628TIP3    H1 4837   0.817   0.753   5.086  0.5918  1.4871  1.3052
 1628TIP3    H2 4838   0.769   0.644   5.180  1.8942  2.6508  3.3595
 1629TIP3   OH2 4839   1.584   2.959   3.893 -0.1112 -0.0644  0.3687
 1629TIP3    H1 4840   1.505   2.988   3.848  0.3967  0.3647 -0.2481
 1629TIP3    H2 4841   1.585   2.864   3.880 -0.0644  0.0354 -0.3591
 1630TIP3   OH2 4842   1.395   5.518   2.707 -0.2097 -0.4123 -0.0287
 1630TIP3    H1 4843   1.306   5.550   2.717 -0.3941 -1.4289  1.8637
 1630TIP3    H2 4844   1.439   5.584   2.654 -1.8303  0.5531 -0.1984
 1631TIP3   OH2 4845   2.275   5.417   0.900 -0.3636 -0.2989 -0.1833
 1631TIP3    H1 4846   2.343   5.380   0.843  0.2308  1.2008 -0.4588
 1631TIP3    H2 4847   2.319   5.428   0.985 -0.5576 -0.2930 -0.0842
 1632TIP3   OH2 4848   4.356   0.690   2.417 -0.0197 -0.0263  0.4602
 1632TIP3    H1 4849   4.364   0.644   2.333  0.6308 -0.2522  0.6396
 1632TIP3    H2 4850   4.352   0.620   2.482 -2.2335  0.1039  0.4993
 1633TIP3   OH2 4851   0.363   2.093   5.917 -0.1165 -0.5402  0.2326
 1633TIP3    H1 4852   0.390   2.140   5.995 -0.5694 -0.7369  0.5104
 1633TIP3    H2 4853   0.444   2.075   5.869  0.0672  0.4350  0.1769
 1634TIP3   OH2 4854   1.739   2.109   6.305 -0.6277  0.1971 -0.9725
 1634TIP3    H1 4855   1.663   2.163   6.285  0.4368  1.6760 -1.1724
 1634TIP3    H2 4856   1.747   2.050   6.230 -2.3285 -0.8802 -0.3341
 1635TIP3   OH2 4857   0.316   0.917   4.184 -0.6220 -0.8322 -0.2156
 1635TIP3    H1 4858   0.291   0.904   4.276  1.3948 -0.7488  0.3877
 1635TIP3    H2 4859   0.317   0.829   4.146 -0.7601 -0.9436  0.0360
 1636TIP3   OH2 4860   1.291   5.542   4.088  0.1073  0.2075  0.3996
 1636TIP3    H1 4861   1.320   5.499   4.008 -0.0336  0.8874 -0.0216
 1636TIP3    H2 4862   1.252   5.624   4.059 -0.3638  0.2535  1.1254
 1637TIP3   OH2 4863   0.951   1.594   2.005  0.4689  0.0517 -0.3599
 1637TIP3    H1 4864   0.878   1.542   1.973  0.2167  0.2129 -0.0546
 1637TIP3    H2 4865   0.987   1.543   2.078 -0.9880  1.1888  1.2084
 1638TIP3   OH2 4866   1.073   1.611   3.770  0.6685  0.4965 -0.1682
 1638TIP3    H1 4867   1.051   1.687   3.717  1.5567 -1.0429 -2.8618
 1638TIP3    H2 4868   1.019   1.619   3.848 -0.3229  3.1077 -1.0795
 1639TIP3   OH2 4869   7.706   0.969   4.596  0.0156  0.1732  0.0437
 1639TIP3    H1 4870   7.617   0.993   4.620 -0.1698  0.5102 -0.9611
 1639TIP3    H2 4871   7.729   1.029   4.525  0.7130 -0.5031 -0.3138
 1640TIP3   OH2 4872   2.064   5.708   4.222  0.3453  0.1901 -0.7000
 1640TIP3    H1 4873   2.069   5.800   4.247  1.7646  0.2305 -1.1035
 1640TIP3    H2 4874   1.970   5.688   4.225  0.0040  1.6930 -0.7838
 1641TIP3   OH2 4875   3.791   0.413   3.445 -0.1288 -0.5146 -0.1769
 1641TIP3    H1 4876   3.737   0.359   3.387 -0.1340  0.9849 -1.6262
 1641TIP3    H2 4877   3.770   0.503   3.419 -0.1181  0.2097  2.1687
 1642TIP3   OH2 4878   7.275   5.603   6.324 -0.9791 -0.1798  0.5110
 1642TIP3    H1 4879   7.278   5.542   6.397 -0.7825 -1.1485 -0.2975
 1642TIP3    H2 4880   7.366   5.615   6.298 -1.1653 -1.2905 -0.7444
 1643TIP3   OH2 4881   2.149   2.076   4.041  0.4453 -0.3031 -0.5129
 1643TIP3    H1 4882   2.110   2.109   4.122 -1.1583 -0.2981 -1.2617
 1643TIP3    H2 4883   2.191   1.993   4.066 -0.8400 -0.7704  0.1513
 1644TIP3   OH2 4884   0.547   2.039   2.206  0.8263  0.7694 -0.9272
 1644TIP3    H1 4885   0.588   1.992   2.134  1.1569  2.5908 -1.9445
 1644TIP3    H2 4886   0.454   2.017   2.200  0.8661  0.8431 -1.8651
 1645TIP3   OH2 4887   0.230   1.965   4.265 -0.5861 -0.0307  0.0559
 1645TIP3    H1 4888   0.320   1.992   4.284 -0.8602  0.0514  1.2842
 1645TIP3    H2 4889   0.239   1.897   4.198  0.3418  0.4221 -0.2926
 1646TIP3   OH2 4890   0.533   0.432   1.121 -0.3660  0.4090 -0.6968
 1646TIP3    H1 4891   0.448   0.462   1.089 -0.8049  0.2407  0.2914
 1646TIP3    H2 4892   0.581   0.408   1.043 -0.8042  1.6212 -1.3544
 1647TIP3   OH2 4893   2.162   2.076   1.428 -0.1956  0.0543  0.0343
 1647TIP3    H1 4894   2.204   2.059   1.513 -0.3227 -0.0902  0.0687
 1647TIP3    H2 4895   2.230   2.119   1.376 -0.0020 -0.1869  0.0870
 1648TIP3   OH2 4896   7.502   5.612   5.854  0.3063  0.0664  0.2130
 1648TIP3    H1 4897   7.444   5.676   5.815  0.3721  0.0460  0.0824
 1648TIP3    H2 4898   7.581   5.661   5.876  1.1333 -0.3783 -1.7143
 1649TIP3   OH2 4899   5.020   1.339   5.404  0.6081 -0.1494 -0.3511
 1649TIP3    H1 4900   5.068   1.310   5.326  0.9940  1.3903 -0.6970
 1649TIP3    H2 4901   5.034   1.270   5.468  0.4644 -1.3455 -1.5699
 1650TIP3   OH2 4902   2.130   7.097   4.105 -0.2818  0.6816 -0.4353
 1650TIP3    H1 4903   2.082   7.056   4.177 -0.9315  0.6393 -0.8873
 1650TIP3    H2 4904   2.068   7.099   4.032  0.8136 -0.5284 -1.4279
 1651TIP3   OH2 4905   5.356   3.800   0.053  0.6558 -0.3585 -0.3754
 1651TIP3    H1 4906   5.285   3.857   0.023 -0.0111 -0.8413  0.2575
 1651TIP3    H2 4907   5.416   3.795  -0.021  0.9296  1.4966 -0.2837
 1652TIP3   OH2 4908   5.797   5.386   3.595 -0.2680  0.5985 -0.0288
 1652TIP3    H1 4909   5.750   5.305   3.575  0.5596  0.1804 -0.2962
 1652TIP3    H2 4910   5.823   5.421   3.510  0.4371  0.5059  0.1462
 1653TIP3   OH2 4911   6.489   1.820   2.209  0.0172  0.2038 -0.2307
 1653TIP3    H1 4912   6.512   1.788   2.296  0.1797  3.9623  1.2243
 1653TIP3    H2 4913   6.398   1.793   2.196 -0.4870  0.8620  1.7741
 1654TIP3   OH2 4914   2.514   1.323   3.355 -0.1033 -0.0728  0.1912
 1654TIP3    H1 4915   2.564   1.380   3.414 -0.8764  0.0644  0.7318
 1654TIP3    H2 4916   2.580   1.271   3.310  0.5454  0.3683  0.6162
 1655TIP3   OH2 4917   2.147   0.837   5.184  0.3307  0.6496  0.1513
 1655TIP3    H1 4918   2.202   0.913   5.164 -1.2501  2.1032  1.1718
 1655TIP3    H2 4919   2.158   0.826   5.279  0.5123 -0.3793  0.0104
 1656TIP3   OH2 4920   0.325   5.501   4.128  0.1525 -0.0578  0.2808
 1656TIP3    H1 4921   0.240   5.544   4.131  0.3063  0.1712  1.5719
 1656TIP3    H2 4922   0.338   5.466   4.216  0.7087 -1.4281 -0.3286
 1657TIP3   OH2 4923   2.760   0.422   4.632  0.2058 -0.2253 -0.2150
 1657TIP3    H1 4924   2.798   0.334   4.623 -0.2163 -0.3846 -0.4676
 1657TIP3    H2 4925   2.807   0.475   4.568  0.5819 -0.2216  0.0570
 1658TIP3   OH2 4926   1.657   0.785   4.980 -0.5970 -0.8214  0.0671
 1658TIP3    H1 4927   1.645   0.872   4.943  1.3876 -0.4283  0.2560
 1658TIP3    H2 4928   1.752   0.776   4.989 -0.8671 -2.3079  1.7304
 1659TIP3   OH2 4929   0.317   0.976   1.891  0.5249  0.3906  0.1116
 1659TIP3    H1 4930   0.248   0.965   1.957 -1.1960  0.4090 -1.6206
 1659TIP3    H2 4931   0.312   0.897   1.837  1.1451  0.8898 -0.6873
 1660TIP3   OH2 4932   0.980   2.414   4.745  0.0222  0.1267  0.1015
 1660TIP3    H1 4933   0.889   2.432   4.771 -0.1636 -0.9854  0.2420
 1660TIP3    H2 4934   1.016   2.500   4.723 -0.9967  0.6043  0.2691
 1661TIP3   OH2 4935   3.103   3.811   0.239 -0.6034 -0.1747  0.3085
 1661TIP3    H1 4936   3.131   3.862   0.163 -0.9238  0.7409  0.7861
 1661TIP3    H2 4937   3.072   3.877   0.302  1.2303 -0.7982  1.9067
 1662TIP3   OH2 4938   2.692   1.912   0.938 -0.0547  0.3649 -0.0463
 1662TIP3    H1 4939   2.745   1.984   0.973 -1.0018  1.5552 -1.0087
 1662TIP3    H2 4940   2.677   1.855   1.013  0.7385  1.1549  0.7326
 1663TIP3   OH2 4941   3.558   3.421   6.143  0.5331  0.2701 -0.3145
 1663TIP3    H1 4942   3.581   3.347   6.200  1.9165  1.1596  0.3069
 1663TIP3    H2 4943   3.466   3.439   6.164  0.5500 -0.4787  0.4390
 1664TIP3   OH2 4944   5.992   7.133   4.437  0.0485  0.5073 -0.0598
 1664TIP3    H1 4945   5.914   7.170   4.479  0.0995  2.7572 -1.8234
 1664TIP3    H2 4946   5.958   7.077   4.368 -0.0345  1.6687 -0.9772
 1665TIP3   OH2 4947   1.664   1.239   5.345 -0.3514  0.1138  0.2150
 1665TIP3    H1 4948   1.651   1.197   5.430  0.5105  0.2348  0.4070
 1665TIP3    H2 4949   1.585   1.291   5.331 -1.8793 -2.3077 -0.4434
 1666TIP3   OH2 4950   6.596   6.601   4.728 -0.0968  0.4575  0.1447
 1666TIP3    H1 4951   6.580   6.512   4.697  0.4504  0.3843  0.0734
 1666TIP3    H2 4952   6.557   6.603   4.816  0.8388 -0.1767  0.5805
 1667TIP3   OH2 4953   3.423   0.017   2.685  0.3000  0.2075 -0.3280
 1667TIP3    H1 4954   3.504   0.062   2.711  1.0958 -1.8847  1.0023
 1667TIP3    H2 4955   3.410   0.041   2.594  0.6333  3.1629  0.3587
 1668TIP3   OH2 4956   7.730   6.228   4.280  0.2646  0.2655  0.0769
 1668TIP3    H1 4957   7.657   6.236   4.219 -2.9540 -0.0071  3.7244
 1668TIP3    H2 4958   7.758   6.137   4.272 -0.6430  0.0224 -0.4645
 1669TIP3   OH2 4959   7.687   7.281   4.874 -0.0979  0.1395  0.5184
 1669TIP3    H1 4960   7.648   7.343   4.812  1.2783 -0.1313 -0.6152
 1669TIP3    H2 4961   7.667   7.319   4.960 -0.6388  1.3374 -0.1193
 1670TIP3   OH2 4962   1.491   0.504   4.072 -0.0705  0.0909 -0.2967
 1670TIP3    H1 4963   1.416   0.452   4.100  1.1615 -0.8157  1.3792
 1670TIP3    H2 4964   1.475   0.520   3.979 -2.2544 -0.2113 -0.0014
 1671TIP3   OH2 4965   6.659   7.407   2.197 -0.3253  0.1027  0.1689
 1671TIP3    H1 4966   6.594   7.336   2.195 -0.3885  0.1320  0.9817
 1671TIP3    H2 4967   6.695   7.409   2.109 -1.7046  0.3309 -0.3974
 1672TIP3   OH2 4968   6.340   7.370   3.474  0.2821 -0.8890 -0.2187
 1672TIP3    H1 4969   6.337   7.329   3.387  0.2728 -0.6076 -0.3534
 1672TIP3    H2 4970   6.433   7.372   3.496  0.2251 -1.6458  0.1095
 1673TIP3   OH2 4971   6.553   6.850   6.055  0.4134  0.2790 -0.7883
 1673TIP3    H1 4972   6.489   6.781   6.036 -0.3145  0.9446 -0.8125
 1673TIP3    H2 4973   6.529   6.880   6.143  0.6261  0.6120 -0.8438
 1674TIP3   OH2 4974   1.673   1.062   5.144 -0.0554 -0.1251 -0.5354
 1674TIP3    H1 4975   1.658   1.104   5.228 -0.2282 -0.1254 -0.5662
 1674TIP3    H2 4976   1.704   0.974   5.166  1.1467  0.3092 -0.4686
 1675TIP3   OH2 4977   0.888   0.728   4.823 -0.2743 -1.0263  0.5241
 1675TIP3    H1 4978   0.932   0.790   4.881 -0.9087  0.0530 -0.1213
 1675TIP3    H2 4979   0.796   0.752   4.828 -0.2927 -0.6652 -1.1994
 1676TIP3   OH2 4980   7.878   6.745   4.865  0.4929  0.3639  0.0050
 1676TIP3    H1 4981   7.803   6.801   4.886 -0.1370 -0.5117  0.1439
 1676TIP3    H2 4982   7.877   6.740   4.769  1.8489  2.3170 -0.1337
 1677TIP3   OH2 4983   7.289   6.359   4.352  0.0869  0.4852  0.3046
 1677TIP3    H1 4984   7.230   6.293   4.316  1.3774  0.1888 -1.3134
 1677TIP3    H2 4985   7.291   6.428   4.286  3.3001 -0.5438 -0.7332
 1678TIP3   OH2 4986   0.551   1.106   4.542  0.1621 -0.6029  0.1153
 1678TIP3    H1 4987   0.546   1.186   4.594 -0.9335 -0.6873  0.1337
 1678TIP3    H2 4988   0.621   1.124   4.478  0.6982 -0.0670  0.8444
 1679TIP3   OH2 4989   0.692   0.597   2.727 -0.8349 -0.4911  0.2772
 1679TIP3    H1 4990   0.660   0.543   2.655 -0.4386 -0.5248  0.1249
 1679TIP3    H2 4991   0.753   0.659   2.685 -2.1851  0.8697  0.2541
 1680TIP3   OH2 4992   0.472   1.383   4.233  0.4929  0.2411 -0.2874
 1680TIP3    H1 4993   0.437   1.314   4.176 -1.2041  0.2248  0.7183
 1680TIP3    H2 4994   0.541   1.340   4.283  0.9562 -0.1432 -1.2513
 1681TIP3   OH2 4995   0.873   2.208   3.692 -0.4925 -0.0501  0.2024
 1681TIP3    H1 4996   0.915   2.150   3.755 -0.4693 -1.8056 -1.3972
 1681TIP3    H2 4997   0.873   2.294   3.735  1.5003 -0.7547  1.6817
 1682TIP3   OH2 4998   2.069   1.333   2.727 -0.1608 -0.7129  0.4686
 1682TIP3    H1 4999   1.996   1.381   2.688  0.5653 -0.2752 -0.3809
 1682TIP3    H2 5000   2.088   1.379   2.808 -0.5066 -0.5315  0.4479
 1683TIP3   OH2 5001   1.755   1.171   4.669  0.3143 -0.7781  0.2299
 1683TIP3    H1 5002   1.825   1.235   4.680  0.3687 -1.1344  2.1153
 1683TIP3    H2 5003   1.675   1.223   4.660  0.4914 -0.4267  0.6920
 1684TIP3   OH2 5004   7.127   0.797   3.290  0.1865  0.6364  0.2199
 1684TIP3    H1 5005   7.139   0.714   3.244 -0.0743  0.2980  0.7486
 1684TIP3    H2 5006   7.137   0.774   3.383  3.2643  1.7616  0.2089
 1685TIP3   OH2 5007   6.618   1.154   4.768  0.3534 -0.3054  0.6717
 1685TIP3    H1 5008   6.713   1.145   4.781  0.5664 -1.5942 -1.5732
 1685TIP3    H2 5009   6.595   1.233   4.817  2.2820 -0.9012  2.6624
 1686TIP3   OH2 5010   0.037   0.770   0.594 -0.0222  0.4410 -0.1896
 1686TIP3    H1 5011   0.083   0.838   0.544  1.1361 -1.6373 -2.0190
 1686TIP3    H2 5012  -0.054   0.775   0.563  0.4016  0.0887 -1.4970
 1687TIP3   OH2 5013   7.697   1.929   1.092  0.2255  0.3914  0.2035
 1687TIP3    H1 5014   7.715   1.897   1.004 -0.3425  0.7076 -0.0278
 1687TIP3    H2 5015   7.674   2.021   1.080  2.0340  0.9525  0.8759
 1688TIP3   OH2 5016   5.585   0.443   1.188 -0.1690 -0.1627 -0.4017
 1688TIP3    H1 5017   5.489   0.449   1.192 -0.1578 -0.7816  1.5894
 1688TIP3    H2 5018   5.615   0.516   1.242  0.5431  1.0245 -2.3564
 1689TIP3   OH2 5019   6.417   5.383   4.025 -0.1801 -0.1717 -0.6662
 1689TIP3    H1 5020   6.361   5.455   4.053 -0.5964 -0.3821 -0.9575
 1689TIP3    H2 5021   6.406   5.316   4.092  0.5555  0.2109 -0.1577
 1690TIP3   OH2 5022   1.778   1.097   2.886  0.8311 -0.3658  0.5415
 1690TIP3    H1 5023   1.782   1.021   2.944  1.8248 -0.6996  0.0555
 1690TIP3    H2 5024   1.761   1.060   2.799  0.9564 -0.0055  0.3628
 1691TIP3   OH2 5025   0.124   6.693   3.527  0.2240  0.3138  0.6236
 1691TIP3    H1 5026   0.080   6.775   3.548  0.0354  0.2932  0.3197
 1691TIP3    H2 5027   0.053   6.628   3.521 -0.1083  0.8702 -2.9005
 1692TIP3   OH2 5028   6.900   0.262   3.874 -0.2371  0.7294  0.1165
 1692TIP3    H1 5029   6.822   0.290   3.923  0.0148 -1.3397  1.7660
 1692TIP3    H2 5030   6.958   0.226   3.940  1.2303  0.2713 -1.3984
 1693TIP3   OH2 5031   7.705   7.197   3.625 -0.1154  0.1390  0.5230
 1693TIP3    H1 5032   7.743   7.200   3.712  0.0195  1.6470  0.4387
 1693TIP3    H2 5033   7.621   7.243   3.634  1.1903  2.9016 -0.7263
 1694TIP3   OH2 5034   1.418   0.763   4.446 -0.2206 -0.7164 -0.4348
 1694TIP3    H1 5035   1.451   0.841   4.489 -0.4831 -1.1764  0.6256
 1694TIP3    H2 5036   1.461   0.762   4.361 -0.6942  0.9133 -0.7133
 1695TIP3   OH2 5037   3.306   1.516   3.893  0.2802  0.4733  0.2592
 1695TIP3    H1 5038   3.311   1.610   3.875 -2.4542  0.4299 -0.8813
 1695TIP3    H2 5039   3.252   1.509   3.971 -1.6791 -0.2725 -1.1346
 1696TIP3   OH2 5040   6.064   1.743   1.909  0.3397 -0.0381  0.4058
 1696TIP3    H1 5041   6.096   1.797   1.837  1.4915  0.1787  1.0697
 1696TIP3    H2 5042   6.138   1.687   1.932 -0.3766 -0.8833  0.6914
 1697TIP3   OH2 5043   0.606   0.634   4.191  0.3249  0.0833 -0.1674
 1697TIP3    H1 5044   0.547   0.642   4.116 -0.9133 -0.1451  0.7517
 1697TIP3    H2 5045   0.556   0.581   4.254  1.8218 -0.7607  0.3295
 1698TIP3   OH2 5046   1.516   5.471   4.856 -0.0853  0.1236  0.4706
 1698TIP3    H1 5047   1.466   5.543   4.818 -1.5153 -0.8291  0.4763
 1698TIP3    H2 5048   1.561   5.509   4.931  0.5181  1.3796 -0.5207
 1699TIP3   OH2 5049   0.982   7.325   4.997 -0.4849  0.1196 -0.0413
 1699TIP3    H1 5050   0.982   7.272   4.917 -0.2435  0.3604 -0.2010
 1699TIP3    H2 5051   0.910   7.289   5.049 -1.7633  1.0761 -1.1134
 1700TIP3   OH2 5052   0.194   5.204   4.723  0.0183 -0.5392 -0.0223
 1700TIP3    H1 5053   0.157   5.172   4.805  0.2393 -1.5259 -0.3098
 1700TIP3    H2 5054   0.255   5.273   4.750 -1.2871  0.4483  0.5202
 1701TIP3   OH2 5055   2.080   0.254   3.305  0.0959  0.2898  0.7877
 1701TIP3    H1 5056   2.113   0.342   3.287  2.3965 -0.8527 -0.7629
 1701TIP3    H2 5057   2.140   0.219   3.371  0.8347 -1.1058 -0.6155
 1702TIP3   OH2 5058   0.656   6.825   4.100  0.1603 -0.0362  0.3349
 1702TIP3    H1 5059   0.590   6.762   4.128  0.7670 -1.0665 -0.5144
 1702TIP3    H2 5060   0.634   6.844   4.009  0.9184 -0.2512  0.0993
 1703TIP3   OH2 5061   0.510   6.278   4.805 -0.4253 -0.6913  0.2674
 1703TIP3    H1 5062   0.470   6.356   4.844 -0.4225 -0.1891 -0.7015
 1703TIP3    H2 5063   0.436   6.227   4.771 -0.3109 -0.1415 -0.8356
 1704TIP3   OH2 5064   6.855   7.066   6.087  0.3789 -0.4800  0.3511
 1704TIP3    H1 5065   6.819   7.115   6.161 -0.1854 -0.4516  0.0579
 1704TIP3    H2 5066   6.934   7.115   6.062 -0.2102  0.3131  0.0205
 1705TIP3   OH2 5067   0.320   6.389   4.540  0.4486  0.7521  0.0392
 1705TIP3    H1 5068   0.413   6.412   4.548  0.1886  1.6848  0.4925
 1705TIP3    H2 5069   0.314   6.302   4.578  1.3903  0.0750 -1.3083
 1706TIP3   OH2 5070   6.498   7.185   4.336  0.4120  0.1892  0.1518
 1706TIP3    H1 5071   6.416   7.230   4.354  0.4949 -0.3451  1.9992
 1706TIP3    H2 5072   6.542   7.240   4.272 -1.1508  0.7521 -0.4640
 1707TIP3   OH2 5073   1.451   1.680   4.950  0.1072 -0.0549 -0.2021
 1707TIP3    H1 5074   1.540   1.684   4.915  0.1290  0.3059 -0.1099
 1707TIP3    H2 5075   1.403   1.625   4.888  0.4296 -0.3696 -0.1748
 1708TIP3   OH2 5076   3.582   0.742   4.646  0.3885 -0.9722  0.2795
 1708TIP3    H1 5077   3.515   0.738   4.714  0.7795  0.1389  0.7363
 1708TIP3    H2 5078   3.545   0.692   4.574 -0.9708 -0.3267  0.5038
 1709TIP3   OH2 5079   4.867   1.376   3.288 -0.8415 -0.6074 -0.2600
 1709TIP3    H1 5080   4.949   1.395   3.334 -1.3220 -1.2858  0.9023
 1709TIP3    H2 5081   4.865   1.439   3.216  0.0096  0.3931  0.5672
 1710TIP3   OH2 5082   7.115   6.527   1.622  0.8455 -0.4210 -0.7477
 1710TIP3    H1 5083   7.104   6.433   1.611 -0.4862 -0.6599  2.0277
 1710TIP3    H2 5084   7.207   6.538   1.645  0.4947 -1.3417  1.2223
 1711TIP3   OH2 5085   4.399   0.135   4.584 -0.2252 -0.6285  0.1112
 1711TIP3    H1 5086   4.442   0.127   4.669  1.7809  1.7916 -0.5973
 1711TIP3    H2 5087   4.316   0.177   4.603 -0.0247 -0.6106  0.9510
 1712TIP3   OH2 5088   4.829   0.511   2.419 -0.3830 -0.6002  0.3516
 1712TIP3    H1 5089   4.834   0.426   2.376 -1.5041 -1.6485  2.1930
 1712TIP3    H2 5090   4.746   0.508   2.468 -0.3613  1.4859  0.5755
 1713TIP3   OH2 5091   6.928   1.305   3.510  0.6311 -0.3745 -0.5222
 1713TIP3    H1 5092   6.942   1.309   3.416 -0.1777 -0.2432 -0.6398
 1713TIP3    H2 5093   6.977   1.379   3.545  0.1890  0.1086 -0.9289
 1714TIP3   OH2 5094   4.033   1.030   2.553  0.1186  0.2981 -0.1977
 1714TIP3    H1 5095   4.090   1.092   2.507  0.5593  0.9191  1.1679
 1714TIP3    H2 5096   4.067   1.027   2.642  0.5895 -2.5329 -0.4202
 1715TIP3   OH2 5097   3.947   0.229   0.878 -0.3223  0.1262  0.4805
 1715TIP3    H1 5098   3.972   0.318   0.854 -1.1171  0.0344 -0.7315
 1715TIP3    H2 5099   3.909   0.237   0.965 -0.0590  0.9212  0.5226
 1716TIP3   OH2 5100   7.302   6.209   4.900 -0.1910 -0.8398 -0.4385
 1716TIP3    H1 5101   7.357   6.162   4.837 -0.9940  0.3834 -2.0924
 1716TIP3    H2 5102   7.357   6.280   4.932  0.4869 -1.9314  0.8712
 1717TIP3   OH2 5103   0.307   6.808   5.970 -0.0431 -0.6545  0.0371
 1717TIP3    H1 5104   0.264   6.722   5.969  0.2152 -0.7964  0.9777
 1717TIP3    H2 5105   0.389   6.793   6.017 -1.0515  0.6138  2.2313
 1718TIP3   OH2 5106   1.260   0.319   4.113 -0.1472 -0.2438 -0.1684
 1718TIP3    H1 5107   1.229   0.324   4.022  3.2945  0.9370 -1.3719
 1718TIP3    H2 5108   1.316   0.241   4.115 -1.5918 -1.2712  1.4435
 1719TIP3   OH2 5109   7.845   6.579   5.476 -0.0747 -0.1738  0.6997
 1719TIP3    H1 5110   7.787   6.503   5.471  0.9037 -1.0580  2.3010
 1719TIP3    H2 5111   7.801   6.639   5.537 -0.7910  0.5212 -0.4750
 1720TIP3   OH2 5112   4.766   0.555   0.743  0.1923  0.3475  0.2012
 1720TIP3    H1 5113   4.731   0.643   0.734  0.6473  0.4832 -0.2705
 1720TIP3    H2 5114   4.839   0.552   0.681 -1.2047 -1.0927 -1.4302
 1721TIP3   OH2 5115   7.683   4.621   6.398  0.1974 -0.2230 -0.4744
 1721TIP3    H1 5116   7.769   4.618   6.357 -1.1378  1.0334 -3.5610
 1721TIP3    H2 5117   7.630   4.560   6.347 -1.5539  1.4419 -0.7082
 1722TIP3   OH2 5118   6.750   7.042   3.539  0.0137  0.6681  0.3393
 1722TIP3    H1 5119   6.759   6.994   3.621 -0.8469  0.8906  0.5709
 1722TIP3    H2 5120   6.839   7.067   3.515  0.2801  0.4615  1.1193
 1723TIP3   OH2 5121   0.275   6.376   3.095 -0.0177  0.2505  0.1821
 1723TIP3    H1 5122   0.257   6.344   3.184 -0.7355  0.1747  0.0088
 1723TIP3    H2 5123   0.213   6.447   3.082  1.2860  1.4541  0.3991
 1724TIP3   OH2 5124   7.529   7.353   2.858  0.5413 -0.3300  0.3895
 1724TIP3    H1 5125   7.619   7.374   2.881  0.4541  0.6246 -0.1313
 1724TIP3    H2 5126   7.477   7.383   2.933  0.5771 -0.2060  0.3633
 1725TIP3   OH2 5127   7.454   6.406   5.053 -0.1753 -0.0113  0.2941
 1725TIP3    H1 5128   7.428   6.494   5.027  0.8622 -0.1658 -1.2935
 1725TIP3    H2 5129   7.547   6.414   5.076 -0.1454 -0.6387  0.4015
 1726TIP3   OH2 5130   1.560   0.525   3.326  0.2439  0.4953 -0.4505
 1726TIP3    H1 5131   1.556   0.500   3.234 -1.4700  0.0355 -0.2622
 1726TIP3    H2 5132   1.619   0.461   3.366 -1.1203 -0.9561 -0.7194
 1727TIP3   OH2 5133   7.853   0.149   0.656  0.4829  1.0713 -0.6392
 1727TIP3    H1 5134   7.929   0.094   0.676 -0.2191  0.0383 -0.7593
 1727TIP3    H2 5135   7.877   0.195   0.575  1.8647  2.4776  0.5290
 1728TIP3   OH2 5136   6.427   7.134   5.089 -0.7092  0.3881  0.5232
 1728TIP3    H1 5137   6.490   7.082   5.140 -0.1073 -0.1315 -0.7209
 1728TIP3    H2 5138   6.481   7.195   5.039 -1.3324  1.2656  0.8963
 1729TIP3   OH2 5139   3.350   0.714   4.299 -0.7129  0.0807  0.0962
 1729TIP3    H1 5140   3.341   0.665   4.380  0.1536 -0.0209  0.1361
 1729TIP3    H2 5141   3.262   0.746   4.280 -0.8141  0.5832  1.3746
 1730TIP3   OH2 5142   3.834   0.255   5.083  0.3403 -0.4365 -0.5385
 1730TIP3    H1 5143   3.776   0.232   5.010 -0.2111  0.1157 -0.2776
 1730TIP3    H2 5144   3.876   0.173   5.107 -1.2018 -1.0740  0.0363
 1731TIP3   OH2 5145   7.789   7.225   3.883  0.0511  0.5449  0.5447
 1731TIP3    H1 5146   7.872   7.251   3.925  0.1736 -0.8900  1.1969
 1731TIP3    H2 5147   7.722   7.246   3.948  0.3519 -2.9374  2.1009
 1732TIP3   OH2 5148   0.730   7.394   3.095  0.0745 -0.1915  0.0077
 1732TIP3    H1 5149   0.726   7.487   3.116  1.4701 -0.3524  1.0610
 1732TIP3    H2 5150   0.666   7.382   3.025  0.3280  1.6615 -0.5516
 1733TIP3   OH2 5151   5.217   7.259   3.892  0.3046 -0.6866 -0.1009
 1733TIP3    H1 5152   5.183   7.313   3.963  1.4259  1.0960 -0.8804
 1733TIP3    H2 5153   5.149   7.260   3.826  0.7102  0.5775 -0.5062
 1734TIP3   OH2 5154   7.406   0.538   0.973  0.0818 -0.4450  0.2707
 1734TIP3    H1 5155   7.414   0.595   1.050  0.2700  0.7860 -0.6511
 1734TIP3    H2 5156   7.332   0.572   0.925 -0.2750 -1.4531  0.0845
 1735TIP3   OH2 5157   5.113   5.479   1.637  0.1828 -0.5691  0.1508
 1735TIP3    H1 5158   5.095   5.566   1.600 -0.2020 -1.6617 -2.3541
 1735TIP3    H2 5159   5.148   5.429   1.564 -0.6024 -2.8384  1.2796
 1736TIP3   OH2 5160   7.121   6.210   4.566  0.0091  0.0002 -0.6427
 1736TIP3    H1 5161   7.052   6.169   4.513  0.3239  1.1769 -1.9852
 1736TIP3    H2 5162   7.195   6.220   4.506  0.6097  0.7204  0.2052
 1737TIP3   OH2 5163   7.166   6.825   5.865  0.0152 -0.1552 -0.5363
 1737TIP3    H1 5164   7.183   6.778   5.947  0.6112 -1.6389 -1.5026
 1737TIP3    H2 5165   7.072   6.845   5.869  0.1188  0.1517  0.6944
 1738TIP3   OH2 5166   1.176   5.708   2.752  0.5713  0.2230 -0.3811
 1738TIP3    H1 5167   1.140   5.714   2.663  0.3397  0.5499 -0.2678
 1738TIP3    H2 5168   1.184   5.799   2.781 -1.7604  0.0915  0.8798
 1739TIP3   OH2 5169   2.409   7.453   2.518  0.0060  0.0467  0.0427
 1739TIP3    H1 5170   2.466   7.462   2.442  1.2753  1.0476  1.0790
 1739TIP3    H2 5171   2.467   7.425   2.589 -0.7412  1.2649  1.1669
 1740TIP3   OH2 5172   3.301   1.789   3.864  0.0809  0.1886 -0.0429
 1740TIP3    H1 5173   3.219   1.835   3.883 -1.0218 -1.2377 -1.2660
 1740TIP3    H2 5174   3.333   1.829   3.784 -1.0162 -1.2849 -1.2569
 1741TIP3   OH2 5175   6.407   7.271   2.963  0.1319  0.0150  0.2061
 1741TIP3    H1 5176   6.433   7.322   2.886 -2.0348 -0.6101 -0.9782
 1741TIP3    H2 5177   6.410   7.180   2.934  1.2058 -0.3798  1.4759
 1742TIP3   OH2 5178   3.158   0.945   2.172  0.0813  0.3291 -0.0867
 1742TIP3    H1 5179   3.177   0.881   2.241  0.3175  0.8839  0.3681
 1742TIP3    H2 5180   3.171   1.030   2.214 -2.0731  0.7201 -0.1149
 1743TIP3   OH2 5181   7.414   7.056   4.766 -0.1094  0.1919 -0.6316
 1743TIP3    H1 5182   7.464   7.079   4.688  1.0751 -1.0572 -0.2811
 1743TIP3    H2 5183   7.428   6.961   4.776 -1.5107  0.0603  0.2084
 1744TIP3   OH2 5184   1.659   1.427   4.413  0.0123  0.1345 -0.4089
 1744TIP3    H1 5185   1.746   1.386   4.414 -0.1804 -0.3680 -2.0245
 1744TIP3    H2 5186   1.603   1.366   4.461  0.5428  0.4210  0.5660
 1745TIP3   OH2 5187   0.995   5.659   3.460 -0.4267  0.3054 -0.5559
 1745TIP3    H1 5188   1.020   5.752   3.467 -1.7627  0.6887 -0.8035
 1745TIP3    H2 5189   0.984   5.645   3.366  0.8531 -0.4045 -0.6114
 1746TIP3   OH2 5190   1.101   6.603   4.862  0.2092  0.0283 -0.4293
 1746TIP3    H1 5191   1.037   6.540   4.896  1.2480 -1.4357 -1.1316
 1746TIP3    H2 5192   1.054   6.648   4.792  0.0504 -1.3392 -1.2278
 1747TIP3   OH2 5193   6.971   6.311   3.289 -0.2131  0.8723 -0.3085
 1747TIP3    H1 5194   6.950   6.395   3.247  0.9148  1.4909  0.3294
 1747TIP3    H2 5195   7.044   6.276   3.237 -0.9028  0.1193 -0.7792
 1748TIP3   OH2 5196   0.002   5.913   4.415  0.2824  0.5967 -1.0426
 1748TIP3    H1 5197   0.032   6.003   4.430  0.1984  0.6316 -1.0892
 1748TIP3    H2 5198   0.082   5.860   4.420  0.1850  0.5317  0.1482
 1749TIP3   OH2 5199   7.899   5.491   3.824 -0.0921 -0.2933 -0.3068
 1749TIP3    H1 5200   7.861   5.409   3.854  0.6310 -1.0739 -1.4655
 1749TIP3    H2 5201   7.936   5.470   3.738  1.6037  0.8049  0.1291
 1750TIP3   OH2 5202   1.032   7.243   2.467  0.2573  0.0177 -0.1470
 1750TIP3    H1 5203   0.960   7.180   2.474 -0.8314  1.3057  0.5096
 1750TIP3    H2 5204   1.042   7.258   2.373 -1.3043  0.8902 -0.1948
 1751TIP3   OH2 5205   7.785   5.461   4.880 -0.3603 -0.5087  0.2797
 1751TIP3    H1 5206   7.850   5.523   4.846 -1.8528  0.6207 -0.5901
 1751TIP3    H2 5207   7.779   5.393   4.813  0.4139 -0.9632  0.6735
 1752TIP3   OH2 5208   1.290   1.022   6.065 -0.3940 -0.1637 -0.4908
 1752TIP3    H1 5209   1.215   1.006   6.008  2.5767 -1.1686 -4.3822
 1752TIP3    H2 5210   1.348   0.947   6.051  1.6100  0.8464  1.9480
 1753TIP3   OH2 5211   2.435   0.855   4.046  0.5219 -0.6575 -0.3150
 1753TIP3    H1 5212   2.505   0.843   3.981  0.2416 -0.7708 -0.5997
 1753TIP3    H2 5213   2.475   0.906   4.116  0.6845 -0.0830 -0.8198
 1754TIP3   OH2 5214   7.488   5.481   3.826  0.8759  0.2405  0.0392
 1754TIP3    H1 5215   7.393   5.473   3.838  1.0264  1.3144  2.1849
 1754TIP3    H2 5216   7.520   5.392   3.832  0.1724  0.0429  1.2011
 1755TIP3   OH2 5217   3.940   0.234   1.455 -0.1325  0.0797 -0.6742
 1755TIP3    H1 5218   3.970   0.146   1.475  0.8853  0.9375  1.7491
 1755TIP3    H2 5219   3.973   0.251   1.367 -0.3702 -1.9596 -1.1721
 1756TIP3   OH2 5220   7.090   6.387   3.520  0.0136 -0.1770 -0.4892
 1756TIP3    H1 5221   7.014   6.377   3.462  0.5886  0.8755 -1.4583
 1756TIP3    H2 5222   7.146   6.313   3.498  0.8261  0.9083 -2.2616
 1757TIP3   OH2 5223   0.310   6.344   3.365  0.6619 -0.2669 -0.0900
 1757TIP3    H1 5224   0.388   6.332   3.311  0.9169 -0.2311  0.2725
 1757TIP3    H2 5225   0.341   6.390   3.443  1.1213 -4.1568  2.1355
 1758TIP3   OH2 5226   2.148   1.634   4.580  0.0148 -0.6395 -0.0601
 1758TIP3    H1 5227   2.222   1.574   4.590 -0.6210 -1.2108  1.3270
 1758TIP3    H2 5228   2.157   1.696   4.653 -0.0338  0.2209 -0.7650
 1759TIP3   OH2 5229   1.385   6.962   4.089  0.1040 -0.2225  0.9372
 1759TIP3    H1 5230   1.369   6.871   4.113 -0.5931  0.3593  2.7297
 1759TIP3    H2 5231   1.465   6.986   4.136 -1.5617  1.0819  3.2050
 1760TIP3   OH2 5232   5.670   3.349   0.132 -0.2640 -0.3470  0.2102
 1760TIP3    H1 5233   5.729   3.311   0.067 -3.7017 -3.5383 -1.2711
 1760TIP3    H2 5234   5.621   3.415   0.083  1.3052  1.5677  1.1710
 1761TIP3   OH2 5235   0.394   7.237   3.524  0.3556  0.1946 -0.2561
 1761TIP3    H1 5236   0.459   7.233   3.454  0.4369  1.0795 -0.2389
 1761TIP3    H2 5237   0.334   7.307   3.498 -0.8274 -0.8847 -0.4633
 1762TIP3   OH2 5238   2.061   0.901   2.394  0.2393  0.2112  0.3140
 1762TIP3    H1 5239   2.022   0.815   2.377 -0.1330  0.0643  1.8939
 1762TIP3    H2 5240   2.015   0.934   2.471 -0.7038  2.5063 -1.1859
 1763TIP3   OH2 5241   3.058   0.502   1.637  0.8003 -0.3604  0.2114
 1763TIP3    H1 5242   3.153   0.512   1.643  1.0296 -1.9764 -0.6406
 1763TIP3    H2 5243   3.031   0.483   1.727  1.2962 -0.0226  0.4355
 1764TIP3   OH2 5244   3.399   0.813   3.026 -0.0375 -0.0936 -0.1342
 1764TIP3    H1 5245   3.426   0.902   3.004  1.1032 -0.6687 -1.1761
 1764TIP3    H2 5246   3.345   0.822   3.104 -1.7964  1.7516 -1.5257
 1765TIP3   OH2 5247   1.912   1.128   1.789 -0.0945  0.0853  0.2044
 1765TIP3    H1 5248   1.954   1.139   1.704 -0.5408  0.5684  0.0391
 1765TIP3    H2 5249   1.933   1.039   1.815 -0.9716 -0.4853 -0.9745
 1766TIP3   OH2 5250   0.273   6.161   4.695  0.2027 -0.2351  0.2675
 1766TIP3    H1 5251   0.297   6.073   4.722  0.1645  0.4512  2.6130
 1766TIP3    H2 5252   0.189   6.177   4.738  0.6205  1.2630  0.5507
 1767TIP3   OH2 5253   5.173   7.302   3.416  0.6467  0.3880 -0.3559
 1767TIP3    H1 5254   5.240   7.262   3.471  0.8739 -0.2569 -1.1018
 1767TIP3    H2 5255   5.090   7.270   3.451  0.7519  0.6558  0.1432
 1768TIP3   OH2 5256   7.466   7.344   2.418 -0.0719  0.4693  0.0754
 1768TIP3    H1 5257   7.476   7.421   2.475  0.5586  0.2351  0.2836
 1768TIP3    H2 5258   7.408   7.374   2.348  0.5417  1.2712 -0.0962
 1769TIP3   OH2 5259   4.871   2.262   5.073 -0.5623 -0.4025  0.0145
 1769TIP3    H1 5260   4.909   2.187   5.029 -1.4103 -1.0327  0.3597
 1769TIP3    H2 5261   4.946   2.318   5.094 -0.1093 -0.3060 -1.8011
 1770TIP3   OH2 5262   1.150   0.693   4.126 -0.2638  0.7992 -0.7600
 1770TIP3    H1 5263   1.129   0.776   4.083  1.8256  0.9496 -1.5540
 1770TIP3    H2 5264   1.171   0.717   4.216 -0.7845  0.9744 -0.6824
 1771TIP3   OH2 5265   1.483   0.146   4.967 -0.3115  0.2182  0.4455
 1771TIP3    H1 5266   1.485   0.203   4.890 -0.5204 -0.2962  0.0547
 1771TIP3    H2 5267   1.567   0.160   5.010  0.9574 -1.5231 -1.3652
 1772TIP3   OH2 5268   0.671   7.343   3.959 -0.1971  0.5253 -0.1791
 1772TIP3    H1 5269   0.743   7.382   3.908 -0.4803 -0.6473 -1.5030
 1772TIP3    H2 5270   0.713   7.308   4.037  0.4086  1.4008 -0.1001
 1773TIP3   OH2 5271   5.177   0.475   4.689  0.5259 -0.0343  0.1125
 1773TIP3    H1 5272   5.183   0.479   4.594  0.9689 -0.6334  0.1153
 1773TIP3    H2 5273   5.093   0.515   4.709  0.4438  0.1210 -0.5283
 1774TIP3   OH2 5274   4.451   0.819   2.162  0.2872 -0.2546 -0.5844
 1774TIP3    H1 5275   4.402   0.738   2.155 -0.6597  0.3645 -1.3120
 1774TIP3    H2 5276   4.533   0.794   2.204 -1.3476 -0.9887  2.2668
 1775TIP3   OH2 5277   2.953   0.474   3.332  0.8698  0.3776  0.2774
 1775TIP3    H1 5278   2.972   0.423   3.411  0.3699  0.3449  0.3809
 1775TIP3    H2 5279   3.039   0.498   3.297  1.1049  1.2531  1.4031
 1776TIP3   OH2 5280   7.181   0.747   3.546  0.3874 -0.4329  0.1909
 1776TIP3    H1 5281   7.268   0.735   3.507  1.3952  1.0953  1.8700
 1776TIP3    H2 5282   7.189   0.708   3.633 -1.1705 -1.8815 -0.2861
 1777TIP3   OH2 5283   7.676   0.952   1.366  0.0684 -0.0732 -0.0167
 1777TIP3    H1 5284   7.642   0.978   1.452 -1.6239  1.1989 -1.0511
 1777TIP3    H2 5285   7.715   1.031   1.330  1.3578 -0.7636 -0.1776
 1778TIP3   OH2 5286   5.363   6.053   2.309 -0.0179  0.3168  0.3458
 1778TIP3    H1 5287   5.309   6.123   2.348 -0.0945  0.1382  0.5619
 1778TIP3    H2 5288   5.450   6.092   2.302 -0.5082  1.1308 -1.4158
 1779TIP3   OH2 5289   2.050   0.995   3.394  0.0347  0.1999 -0.2134
 1779TIP3    H1 5290   2.114   1.042   3.341 -0.2953  2.4550  1.3290
 1779TIP3    H2 5291   2.098   0.921   3.430  1.1997  0.6749 -0.7676
 1780TIP3   OH2 5292   1.649   1.257   1.472  0.2468  0.1375 -0.3424
 1780TIP3    H1 5293   1.576   1.220   1.521  0.4305 -0.3925 -0.4705
 1780TIP3    H2 5294   1.623   1.348   1.454 -0.3581 -0.0409 -0.3493
 1781TIP3   OH2 5295   2.204   1.159   3.234  0.0166  0.8689  0.1344
 1781TIP3    H1 5296   2.204   1.251   3.262  1.2938  0.9436 -0.0919
 1781TIP3    H2 5297   2.231   1.162   3.142  1.6913  0.1465  0.5841
 1782TIP3   OH2 5298   2.738   0.026   3.051 -0.4168  0.3609  0.3550
 1782TIP3    H1 5299   2.831   0.051   3.057 -0.2386  0.0446 -0.9104
 1782TIP3    H2 5300   2.706   0.033   3.141  0.7046  0.9757  0.7289
 1783TIP3   OH2 5301   0.983   6.568   4.284  0.2296  0.6226 -0.0267
 1783TIP3    H1 5302   0.979   6.628   4.359 -0.6630  1.5385 -0.7900
 1783TIP3    H2 5303   0.936   6.614   4.214  0.7305 -0.3797 -1.0403
 1784TIP3   OH2 5304   0.476   7.243   5.898 -0.6003 -0.4376 -0.0475
 1784TIP3    H1 5305   0.447   7.300   5.969 -0.5331 -1.6055  0.9384
 1784TIP3    H2 5306   0.531   7.177   5.941 -3.1937 -3.1015 -0.6467
 1785TIP3   OH2 5307   1.213   0.851   4.705  0.1698  0.1988  0.4693
 1785TIP3    H1 5308   1.269   0.861   4.628  0.0730 -0.0568  0.3649
 1785TIP3    H2 5309   1.237   0.924   4.762 -1.0271  1.4217 -0.5754
 1786TIP3   OH2 5310   3.402   0.179   0.353 -0.3231  0.6449  0.6003
 1786TIP3    H1 5311   3.361   0.134   0.427 -0.9414  1.3597  0.6963
 1786TIP3    H2 5312   3.335   0.180   0.285  0.6145 -0.9688 -0.3634
 1787TIP3   OH2 5313   2.578   0.443   1.986  0.3166 -0.6567 -0.4037
 1787TIP3    H1 5314   2.494   0.487   1.975  0.5498 -0.9192 -3.9871
 1787TIP3    H2 5315   2.637   0.511   2.017 -0.6278  0.1334 -0.2981
 1788TIP3   OH2 5316   2.775   1.775   3.724  0.3731  0.3618 -0.0361
 1788TIP3    H1 5317   2.797   1.755   3.633  0.3239 -0.6983  0.1753
 1788TIP3    H2 5318   2.793   1.868   3.733 -2.8767  1.2781 -2.0680
 1789TIP3   OH2 5319   1.744   1.441   4.039  0.0210  0.5414  0.3717
 1789TIP3    H1 5320   1.681   1.417   3.971  1.7625 -0.5848 -0.8751
 1789TIP3    H2 5321   1.749   1.363   4.096  1.9829 -0.2596 -0.8541
 1790TIP3   OH2 5322   1.553   2.605   2.199 -0.1348 -0.5127 -0.2840
 1790TIP3    H1 5323   1.615   2.672   2.228 -0.1342 -0.9108  0.6468
 1790TIP3    H2 5324   1.467   2.647   2.207 -0.1849 -0.8293  0.9084
 1791TIP3   OH2 5325   1.708   0.717   2.844  0.3139 -0.1696  0.0289
 1791TIP3    H1 5326   1.751   0.660   2.779  0.9955  1.7677 -1.2804
 1791TIP3    H2 5327   1.618   0.687   2.846  0.5568 -1.0198 -0.9681
 1792TIP3   OH2 5328   7.328   7.323   4.376  0.0909 -0.0626  0.3455
 1792TIP3    H1 5329   7.288   7.237   4.391 -0.9069  0.0022 -1.7268
 1792TIP3    H2 5330   7.281   7.382   4.434  0.2292 -0.7716  1.1901
 1793TIP3   OH2 5331   7.632   7.325   2.185  0.1914  0.1929  0.1854
 1793TIP3    H1 5332   7.589   7.277   2.256 -1.7628  0.7098 -0.6195
 1793TIP3    H2 5333   7.601   7.415   2.195 -0.4339  0.1869 -1.5811
 1794TIP3   OH2 5334   3.501   2.700   4.939 -0.6701 -0.4631  0.8921
 1794TIP3    H1 5335   3.468   2.729   4.854  0.9898 -1.4681 -0.1166
 1794TIP3    H2 5336   3.430   2.720   5.000 -2.0857 -0.1894 -0.7989
 1795TIP3   OH2 5337   1.285   1.512   0.922  0.1277 -0.0971 -0.4491
 1795TIP3    H1 5338   1.258   1.493   1.012  0.0359  2.3587  0.0627
 1795TIP3    H2 5339   1.207   1.496   0.869 -0.2908  0.0543  0.1173
 1796TIP3   OH2 5340   0.087   6.766   4.396  0.0737 -0.2363 -0.5216
 1796TIP3    H1 5341   0.180   6.789   4.408  0.1439 -0.2466 -1.0486
 1796TIP3    H2 5342   0.045   6.797   4.476 -0.1772  3.5605 -2.0052
 1797TIP3   OH2 5343   2.130   0.267   1.976  0.1827 -0.1871  0.3420
 1797TIP3    H1 5344   2.179   0.345   2.002  0.5201 -0.5872  0.9289
 1797TIP3    H2 5345   2.073   0.297   1.905 -0.4481  0.8389  1.2627
 1798TIP3   OH2 5346   4.411   2.547   0.226 -0.5841  0.5992  0.2625
 1798TIP3    H1 5347   4.487   2.575   0.278 -0.7323  2.3245 -0.4204
 1798TIP3    H2 5348   4.442   2.549   0.135 -0.6499 -1.3610  0.1718
 1799TIP3   OH2 5349   7.216   5.931   5.055  0.3566 -0.1210  0.2857
 1799TIP3    H1 5350   7.259   5.846   5.052 -1.6959 -1.2771  2.3164
 1799TIP3    H2 5351   7.269   5.983   5.115  1.3510 -0.1069 -0.5925
 1800TIP3   OH2 5352   1.027   0.356   3.515  0.0965 -0.2086 -0.1440
 1800TIP3    H1 5353   0.958   0.297   3.547  0.6311  0.9639  3.3922
 1800TIP3    H2 5354   1.086   0.299   3.466 -0.9829 -2.0535  0.6276
 1801TIP3   OH2 5355   0.957   7.120   3.943  0.9063 -0.5427  0.3041
 1801TIP3    H1 5356   0.938   7.183   3.874  0.3746  1.2131  2.0221
 1801TIP3    H2 5357   0.873   7.104   3.986  1.3165 -1.2079  0.8803
 1802TIP3   OH2 5358   1.960   1.125   2.555  0.4745 -0.3543  0.4902
 1802TIP3    H1 5359   1.919   1.207   2.583  1.5547  0.3853 -0.0883
 1802TIP3    H2 5360   2.012   1.098   2.630 -0.1146 -0.6778  0.7899
 1803TIP3   OH2 5361   0.703   5.472   3.864  0.2717  0.1273  0.4033
 1803TIP3    H1 5362   0.661   5.557   3.880  0.7770  0.6005 -0.7296
 1803TIP3    H2 5363   0.788   5.480   3.906  0.5249  0.3820 -0.1463
 1804TIP3   OH2 5364   1.557   6.118   1.050  0.2116  0.1936  0.3617
 1804TIP3    H1 5365   1.624   6.106   0.982 -0.2546 -0.1606 -0.0359
 1804TIP3    H2 5366   1.607   6.124   1.131  0.7295 -0.1246  0.0698
 1805TIP3   OH2 5367   3.195   0.271   3.934  0.0802  0.5984  0.4496
 1805TIP3    H1 5368   3.256   0.211   3.893 -0.1015  0.2685  0.6573
 1805TIP3    H2 5369   3.250   0.330   3.985  0.3122  1.0777 -0.3453
 1806TIP3   OH2 5370   1.978   0.109   4.571 -0.5523  0.3065  0.0138
 1806TIP3    H1 5371   1.914   0.170   4.534  0.6441  2.3116  1.2118
 1806TIP3    H2 5372   1.932   0.068   4.645 -0.8171  0.9041  0.1809
 1807TIP3   OH2 5373   2.420   1.269   5.022  0.1643 -0.2093 -0.4533
 1807TIP3    H1 5374   2.495   1.276   5.081  1.1562 -0.8532 -1.6007
 1807TIP3    H2 5375   2.459   1.245   4.937 -1.1816  1.0760 -1.4575
 1808TIP3   OH2 5376   4.920   2.935   4.064  0.3525  0.4324  0.5116
 1808TIP3    H1 5377   4.834   2.907   4.034 -0.2515  2.3392  0.4062
 1808TIP3    H2 5378   4.967   2.853   4.083 -1.7010 -0.5938  1.2525
 1809TIP3   OH2 5379   3.433   0.194   3.811 -0.1953  0.1846  0.9674
 1809TIP3    H1 5380   3.456   0.259   3.744  1.0617 -1.5628 -0.3394
 1809TIP3    H2 5381   3.494   0.212   3.883  0.4642  0.1834  0.4245
 1810TIP3   OH2 5382   2.790   1.064   2.565 -0.3285  0.0060  0.0922
 1810TIP3    H1 5383   2.740   1.134   2.607  0.6346  0.5397  0.3791
 1810TIP3    H2 5384   2.866   1.052   2.621 -0.3575 -1.0982 -0.1052
 1811TIP3   OH2 5385   0.938   7.241   3.140 -0.0159  0.5369  0.4561
 1811TIP3    H1 5386   0.856   7.288   3.125  0.2330  0.8457  0.0773
 1811TIP3    H2 5387   0.916   7.175   3.206 -0.7297  0.1977 -0.1126
 1812TIP3   OH2 5388   7.702   7.121   3.069  0.0818 -0.3188 -0.5873
 1812TIP3    H1 5389   7.626   7.178   3.075 -0.0909 -0.3492 -2.2285
 1812TIP3    H2 5390   7.721   7.096   3.160 -0.4767  1.4798  0.0428
 1813TIP3   OH2 5391   6.007   6.095   2.907  0.5489  0.8177 -0.0066
 1813TIP3    H1 5392   5.928   6.063   2.865  0.6002  0.1939  0.3653
 1813TIP3    H2 5393   5.995   6.075   3.000  0.4088  2.2425  0.2861
 1814TIP3   OH2 5394   2.383   0.665   1.922 -0.0814  0.1591 -0.4294
 1814TIP3    H1 5395   2.331   0.746   1.919 -1.6405 -0.8406 -0.8662
 1814TIP3    H2 5396   2.430   0.664   1.839  0.1253  0.7218 -0.3253
 1815TIP3   OH2 5397   1.518   2.220   0.767  0.0546 -0.0475  0.3617
 1815TIP3    H1 5398   1.441   2.270   0.793 -0.3944 -0.6002  0.0833
 1815TIP3    H2 5399   1.550   2.181   0.849 -1.2907 -1.6945  0.1094
 1816TIP3   OH2 5400   3.924   1.305   2.980 -0.3406  0.7596 -0.4732
 1816TIP3    H1 5401   3.908   1.342   2.893  0.4286  0.0321 -0.9440
 1816TIP3    H2 5402   4.019   1.308   2.990 -0.3515 -0.0802 -0.0733
 1817TIP3   OH2 5403   1.394   6.599   4.480 -0.2144  0.4232 -0.4254
 1817TIP3    H1 5404   1.401   6.671   4.543 -0.9236 -0.2751  0.4641
 1817TIP3    H2 5405   1.466   6.540   4.503  0.1463  0.6687 -0.9224
 1818TIP3   OH2 5406   2.688   1.017   2.093  0.2406  0.7976 -0.2536
 1818TIP3    H1 5407   2.766   1.070   2.073  0.5834  1.4961  2.6852
 1818TIP3    H2 5408   2.723   0.931   2.117 -0.0357  0.5386 -0.7666
 1819TIP3   OH2 5409   0.401   5.203   2.680  0.3450 -0.1261 -0.1362
 1819TIP3    H1 5410   0.359   5.204   2.594  0.5464 -0.9371 -0.2450
 1819TIP3    H2 5411   0.412   5.295   2.702 -0.4598  0.0852 -0.6143
 1820TIP3   OH2 5412   5.550   1.786   3.166 -0.5631  0.6984 -0.0107
 1820TIP3    H1 5413   5.487   1.791   3.238 -2.9352 -1.1157 -1.8977
 1820TIP3    H2 5414   5.546   1.872   3.124 -0.6554  1.0877  0.7900
 1821TIP3   OH2 5415   6.183   7.286   2.715  0.6625 -0.1204 -0.6040
 1821TIP3    H1 5416   6.237   7.364   2.727  1.2674 -0.6631  0.2465
 1821TIP3    H2 5417   6.245   7.218   2.688  0.5013 -0.8880  0.9231
 1822TIP3   OH2 5418   1.349   7.406   3.198  0.0926 -0.2149  0.1385
 1822TIP3    H1 5419   1.303   7.335   3.153  0.0161  0.5176 -0.9638
 1822TIP3    H2 5420   1.437   7.372   3.213 -0.3180 -1.0231  0.8056
 1823TIP3   OH2 5421   6.122   7.152   2.191 -0.5493 -0.0296 -0.0160
 1823TIP3    H1 5422   6.074   7.089   2.137 -1.6503  0.1097  0.7759
 1823TIP3    H2 5423   6.165   7.100   2.258  0.8743 -0.2105 -1.0509
 1824TIP3   OH2 5424   1.800   0.860   4.364 -0.1739 -0.2707  0.3338
 1824TIP3    H1 5425   1.734   0.837   4.299 -0.0230 -0.3207  0.1982
 1824TIP3    H2 5426   1.875   0.891   4.313  0.5316 -1.7976  0.4098
 1825TIP3   OH2 5427   6.228   7.240   4.348 -0.2390 -0.4345  0.1131
 1825TIP3    H1 5428   6.157   7.184   4.379  0.1457 -0.4036  1.0917
 1825TIP3    H2 5429   6.233   7.224   4.254 -0.3713 -1.7634  0.3272
 1826TIP3   OH2 5430   3.492   1.190   1.787 -0.0416  0.1331 -0.5222
 1826TIP3    H1 5431   3.429   1.144   1.732 -0.6589 -0.3623  0.5783
 1826TIP3    H2 5432   3.480   1.152   1.874  0.0567  1.7393  0.2221
 1827TIP3   OH2 5433   0.255   5.869   4.794  0.3388 -0.4047 -0.3727
 1827TIP3    H1 5434   0.226   5.778   4.787  1.0743 -0.7582  0.9833
 1827TIP3    H2 5435   0.198   5.908   4.860 -1.9315  0.9767 -3.0011
 1828TIP3   OH2 5436   5.561   7.441   3.446 -0.0712  0.2140  0.4163
 1828TIP3    H1 5437   5.645   7.449   3.399 -1.6369  1.5028 -2.3142
 1828TIP3    H2 5438   5.548   7.347   3.455  0.6831 -0.0495 -1.0206
 1829TIP3   OH2 5439   5.700   7.384   5.153 -0.4337  0.2703 -0.1413
 1829TIP3    H1 5440   5.673   7.417   5.067 -0.3981  0.1858 -0.1857
 1829TIP3    H2 5441   5.784   7.341   5.137 -0.3044  0.4711 -0.0184
 1830TIP3   OH2 5442   0.212   7.289   4.469  0.1782  0.2680 -0.4538
 1830TIP3    H1 5443   0.248   7.275   4.382  1.3498 -1.9915  0.3795
 1830TIP3    H2 5444   0.287   7.283   4.528 -0.8287  0.3158  0.8620
 1831TIP3   OH2 5445   3.980   0.122   3.889  0.6008 -0.0393  0.2071
 1831TIP3    H1 5446   3.942   0.072   3.817  0.2105  1.0873 -0.3834
 1831TIP3    H2 5447   3.963   0.213   3.866 -0.2387  0.3036  2.1123
 1832TIP3   OH2 5448   2.898   0.412   3.839 -0.2576  0.1215 -0.3605
 1832TIP3    H1 5449   2.942   0.461   3.910 -0.4510  1.0021 -0.8426
 1832TIP3    H2 5450   2.896   0.322   3.871  2.7368 -0.1209 -0.7092
 1833TIP3   OH2 5451   4.878   0.370   4.014  0.2062  0.6346 -0.2854
 1833TIP3    H1 5452   4.850   0.455   3.980 -0.9927  1.5058  2.7359
 1833TIP3    H2 5453   4.798   0.327   4.042  1.1187 -0.1452  1.1856
 1834TIP3   OH2 5454   3.882   0.716   4.539  0.2964 -0.0325  0.4349
 1834TIP3    H1 5455   3.908   0.758   4.457  2.0065  1.2767  1.6172
 1834TIP3    H2 5456   3.831   0.783   4.585  0.7322 -0.1954  1.1596
 1835TIP3   OH2 5457   4.830   1.794   2.642  0.2483 -0.1728 -0.4308
 1835TIP3    H1 5458   4.799   1.738   2.713 -1.8474 -0.0669 -1.2247
 1835TIP3    H2 5459   4.841   1.735   2.568 -2.0773  0.4381 -1.3037
 1836TIP3   OH2 5460   3.856   2.570   5.626 -0.0543  0.6192 -0.7151
 1836TIP3    H1 5461   3.885   2.649   5.672  0.0568 -0.4233  1.0211
 1836TIP3    H2 5462   3.935   2.537   5.583 -0.0810  1.3806 -1.3720
 1837TIP3   OH2 5463   5.021   0.609   4.163 -0.2407 -0.0227  0.1197
 1837TIP3    H1 5464   5.007   0.516   4.147 -0.2786  0.0531 -0.2840
 1837TIP3    H2 5465   4.963   0.654   4.102  0.2803  0.2691 -0.1655
 1838TIP3   OH2 5466   5.378   6.458   2.864 -0.1235 -0.0500  0.0802
 1838TIP3    H1 5467   5.458   6.413   2.892 -0.4152 -0.3773  0.3800
 1838TIP3    H2 5468   5.322   6.389   2.829 -0.2519  0.1903 -0.1906
 1839TIP3   OH2 5469   3.669   2.160   1.506 -0.1062  0.3117 -0.1255
 1839TIP3    H1 5470   3.594   2.217   1.519  0.2489  0.9247 -0.7497
 1839TIP3    H2 5471   3.742   2.219   1.487 -0.1157 -0.4154 -2.5899
 1840TIP3   OH2 5472   7.891   7.216   2.739 -0.5037 -0.3560  0.0697
 1840TIP3    H1 5473   7.825   7.153   2.765 -0.9453  0.4502  0.9313
 1840TIP3    H2 5474   7.967   7.163   2.714 -0.4804 -1.1802  1.8484
 1841TIP3   OH2 5475   3.554   1.898   3.310 -0.0859  0.1943  0.0583
 1841TIP3    H1 5476   3.561   1.805   3.285  2.8723  0.4191 -0.1541
 1841TIP3    H2 5477   3.523   1.942   3.231 -1.2785 -0.5783  0.0872
 1842TIP3   OH2 5478   4.094   1.071   2.223 -0.1899 -0.1751 -0.5844
 1842TIP3    H1 5479   4.175   1.052   2.175  0.3501 -0.7206  0.5201
 1842TIP3    H2 5480   4.116   1.146   2.278  0.1017 -1.4042  1.0036
 1843TIP3   OH2 5481  -0.004   7.119   4.486  0.4557  0.0860  0.1304
 1843TIP3    H1 5482   0.064   7.187   4.487  0.3382  0.1982  0.4137
 1843TIP3    H2 5483  -0.007   7.091   4.394  1.5228 -0.5719  0.2796
 1844TIP3   OH2 5484   4.221   0.978   4.790  0.0327 -0.0015 -0.6051
 1844TIP3    H1 5485   4.311   1.007   4.779 -0.4660  0.8506 -2.7759
 1844TIP3    H2 5486   4.210   0.908   4.725 -0.9530  0.1235 -0.5851
 1845TIP3   OH2 5487   3.275   1.088   4.342  0.5760 -0.7732  0.0537
 1845TIP3    H1 5488   3.313   1.150   4.405 -0.0533  0.6768 -0.9761
 1845TIP3    H2 5489   3.285   1.131   4.257 -0.5199 -1.7731 -0.5944
 1846TIP3   OH2 5490   2.038   0.607   3.520 -0.2691 -0.1933  0.2638
 1846TIP3    H1 5491   2.016   0.520   3.553  1.1205 -0.8178 -0.4044
 1846TIP3    H2 5492   2.074   0.591   3.433 -0.2438  1.0698  0.0353
 1847TIP3   OH2 5493   2.649   0.127   0.885 -0.3661 -0.2110 -0.4842
 1847TIP3    H1 5494   2.597   0.093   0.812 -0.7899  1.2692 -0.8915
 1847TIP3    H2 5495   2.605   0.208   0.909  0.7607  0.1710  0.3096
 1848TIP3   OH2 5496   0.386   6.314   1.320 -0.3524 -0.1906 -0.1941
 1848TIP3    H1 5497   0.394   6.407   1.342 -1.9993 -0.4074  1.4659
 1848TIP3    H2 5498   0.355   6.314   1.229 -2.8759  0.9914  0.6041
 1849TIP3   OH2 5499   6.216   5.375   1.891 -0.1305 -0.2145  0.0601
 1849TIP3    H1 5500   6.240   5.406   1.804  2.1337 -0.4496  0.5761
 1849TIP3    H2 5501   6.163   5.297   1.875  2.8447 -2.0817 -1.1119
 1850TIP3   OH2 5502   0.569   6.754   5.790 -0.2626  0.0245 -0.3761
 1850TIP3    H1 5503   0.595   6.690   5.857 -2.0740  0.5652  0.8685
 1850TIP3    H2 5504   0.513   6.704   5.731  0.5493 -0.2121 -0.9479
 1851TIP3   OH2 5505   4.386   7.424   1.278 -0.3389 -0.0306 -0.0116
 1851TIP3    H1 5506   4.421   7.462   1.358 -1.0307  1.0514 -0.2229
 1851TIP3    H2 5507   4.459   7.428   1.215 -0.5922  1.5109 -0.2178
 1852TIP3   OH2 5508   4.900   2.198   3.288  0.2086  0.0795  0.1017
 1852TIP3    H1 5509   4.867   2.108   3.293 -0.8204  0.4940  1.1289
 1852TIP3    H2 5510   4.856   2.244   3.360 -1.6738  2.1851 -2.2958
 1853TIP3   OH2 5511   4.168   1.140   5.790  0.1926 -0.0711 -0.1264
 1853TIP3    H1 5512   4.147   1.219   5.841  0.4055  1.5706 -2.4872
 1853TIP3    H2 5513   4.250   1.162   5.745 -0.8977 -0.8124 -2.5167
 1854TIP3   OH2 5514   4.498   1.461   4.330 -0.0953 -0.3970 -0.6066
 1854TIP3    H1 5515   4.498   1.402   4.405  2.5947 -0.2669 -0.4280
 1854TIP3    H2 5516   4.521   1.546   4.366  0.0524 -0.0966 -1.3914
 1855TIP3   OH2 5517   4.736   1.778   3.001 -0.6930  0.2934  0.1773
 1855TIP3    H1 5518   4.678   1.853   2.984  0.0351  1.2187  1.6895
 1855TIP3    H2 5519   4.727   1.723   2.923 -1.7465  1.6242 -0.6656
 1856TIP3   OH2 5520   5.458   0.962   2.049 -0.4180  0.0589 -0.1874
 1856TIP3    H1 5521   5.390   0.900   2.074  0.3964 -0.0892  1.7567
 1856TIP3    H2 5522   5.436   1.042   2.098  0.9423 -0.0827  0.6740
 1857TIP3   OH2 5523   2.606   2.097   3.413 -0.4014  0.0393 -0.1335
 1857TIP3    H1 5524   2.589   2.047   3.333 -0.5981  0.9269 -0.6567
 1857TIP3    H2 5525   2.577   2.185   3.392  1.4809  0.7641  0.1830
 1858TIP3   OH2 5526   6.262   2.053   3.794  0.4594  0.1445 -0.0225
 1858TIP3    H1 5527   6.261   2.093   3.708 -0.7152 -1.3745 -0.7545
 1858TIP3    H2 5528   6.169   2.045   3.818  0.7891  1.7353  1.9711
 1859TIP3   OH2 5529   2.979   3.201   4.147 -0.1211 -0.5461  0.7275
 1859TIP3    H1 5530   2.915   3.252   4.196  0.7636  1.5809 -0.2553
 1859TIP3    H2 5531   3.023   3.148   4.213 -0.6790  0.3765  1.8565
 1860TIP3   OH2 5532   5.044   2.995   3.833 -0.2830  0.6316 -0.5474
 1860TIP3    H1 5533   5.001   2.977   3.917 -0.3447 -1.1105 -0.9317
 1860TIP3    H2 5534   5.124   2.942   3.836 -1.1379 -0.8234 -2.2944
 1861TIP3   OH2 5535   3.523   0.403   3.618  0.0911  0.1402  0.2136
 1861TIP3    H1 5536   3.455   0.463   3.649 -0.7686 -1.2846  1.1784
 1861TIP3    H2 5537   3.595   0.415   3.679  0.4822  1.2274 -0.4570
 1862TIP3   OH2 5538   3.916   0.817   4.289  0.0508  0.4540 -0.4391
 1862TIP3    H1 5539   3.895   0.745   4.230 -1.0826  1.0798 -0.8263
 1862TIP3    H2 5540   3.849   0.883   4.271 -1.2226  0.0942  2.5279
 1863TIP3   OH2 5541   0.535   6.215   3.213  0.0217 -0.1222 -0.2842
 1863TIP3    H1 5542   0.541   6.185   3.122  0.0763  0.6357 -0.5385
 1863TIP3    H2 5543   0.564   6.307   3.210 -1.7210  0.4598  0.1841
 1864TIP3   OH2 5544   5.379   2.359   3.913  0.2575 -0.3034  0.2558
 1864TIP3    H1 5545   5.386   2.454   3.904 -0.6968 -0.2868 -0.3565
 1864TIP3    H2 5546   5.470   2.328   3.908  0.4969  0.4970 -0.5274
 1865TIP3   OH2 5547   6.398   0.216   2.039 -0.1425 -0.0950  0.1944
 1865TIP3    H1 5548   6.359   0.216   2.127 -1.5383  0.1077 -0.4095
 1865TIP3    H2 5549   6.440   0.302   2.032 -1.1094  0.3833  0.2052
 1866TIP3   OH2 5550   5.393   1.289   3.629 -0.5440  0.8058  0.2415
 1866TIP3    H1 5551   5.433   1.234   3.696  1.1962  2.3942  0.5512
 1866TIP3    H2 5552   5.298   1.278   3.642 -0.2164 -1.2270  0.9996
 1867TIP3   OH2 5553   3.687   0.959   3.270  0.3031  0.1672  0.3001
 1867TIP3    H1 5554   3.744   1.017   3.320 -0.6452  0.9586  0.5019
 1867TIP3    H2 5555   3.731   0.949   3.185  0.5935  1.0079  0.3435
 1868TIP3   OH2 5556   4.216   0.339   2.775  0.0019 -0.9939 -0.8960
 1868TIP3    H1 5557   4.155   0.310   2.842  0.6014  1.4053  0.7638
 1868TIP3    H2 5558   4.173   0.414   2.734  1.0975 -0.3258 -0.8415
 1869TIP3   OH2 5559   6.705   1.629   3.655 -0.3987  0.4272  0.5035
 1869TIP3    H1 5560   6.675   1.600   3.742  0.1944  0.2141  0.6456
 1869TIP3    H2 5561   6.754   1.710   3.673 -0.0988  0.2704  0.3963
 1870TIP3   OH2 5562   4.076   0.764   2.490 -0.1210  0.6682  0.1699
 1870TIP3    H1 5563   4.053   0.855   2.505  1.7661  1.0918  0.6830
 1870TIP3    H2 5564   4.168   0.767   2.461 -0.4902 -0.9430 -1.2931
 1871TIP3   OH2 5565   5.187   2.014   3.326  0.8051  0.1872  0.1382
 1871TIP3    H1 5566   5.092   2.012   3.314  0.4426 -1.1170  2.9290
 1871TIP3    H2 5567   5.207   2.106   3.345 -0.2038  0.1105  1.6426
 1872TIP3   OH2 5568   5.062   0.237   2.791 -0.0350  0.2328  0.3647
 1872TIP3    H1 5569   4.999   0.208   2.726 -0.1065 -0.7171  0.8551
 1872TIP3    H2 5570   5.010   0.258   2.868 -0.1106  2.7975 -0.3496
 1873TIP3   OH2 5571   4.690   1.382   4.585 -0.2312  0.5055  0.4698
 1873TIP3    H1 5572   4.597   1.368   4.601 -0.1141  0.9703  1.5903
 1873TIP3    H2 5573   4.728   1.394   4.672  0.7805  0.8842 -0.0181
 1874TIP3   OH2 5574   4.908   0.008   3.862  0.2323 -0.1374 -0.7044
 1874TIP3    H1 5575   4.942  -0.033   3.783  0.3438 -2.2112  0.3592
 1874TIP3    H2 5576   4.816   0.026   3.842  0.2426 -0.7121 -1.3044
 1875TIP3   OH2 5577   3.423   1.082   3.692  0.8820 -0.2731  0.5332
 1875TIP3    H1 5578   3.444   1.002   3.642 -0.1239 -0.3023  0.1501
 1875TIP3    H2 5579   3.450   1.062   3.781 -1.3220 -1.8636  0.8874
 1876TIP3   OH2 5580   4.095   0.612   2.718 -0.2050  0.4507  0.2948
 1876TIP3    H1 5581   4.006   0.622   2.752 -0.4141 -2.7379  0.9013
 1876TIP3    H2 5582   4.090   0.643   2.627 -1.6616  1.2733  0.6432
 1877TIP3   OH2 5583   7.037   2.660   3.608 -0.6128  0.0909  0.2147
 1877TIP3    H1 5584   6.965   2.617   3.652 -0.8846 -0.0783 -0.3957
 1877TIP3    H2 5585   7.092   2.589   3.576  0.1703  0.2218  1.2321
 1878TIP3   OH2 5586   4.510   0.456   2.678 -0.0474  0.3366  0.2863
 1878TIP3    H1 5587   4.495   0.430   2.587  0.2134  1.2610 -0.0299
 1878TIP3    H2 5588   4.540   0.377   2.722 -2.0836 -0.6219  0.0360
 1879TIP3   OH2 5589   5.567   7.083   1.204  0.1622 -0.1832 -0.0549
 1879TIP3    H1 5590   5.641   7.032   1.169  0.8798  0.9401 -0.2136
 1879TIP3    H2 5591   5.590   7.174   1.185 -0.9241  0.2299  0.5723
 1880TIP3   OH2 5592   4.895   2.491   2.773 -0.1031  0.1894 -0.6891
 1880TIP3    H1 5593   4.987   2.467   2.784 -0.2298 -0.8880 -1.9639
 1880TIP3    H2 5594   4.868   2.520   2.860  1.0300 -0.9309  0.0613
 1881TIP3   OH2 5595   3.349   0.724   3.910 -0.3045 -0.5076  0.6838
 1881TIP3    H1 5596   3.264   0.767   3.911 -0.7046 -1.3082  1.9210
 1881TIP3    H2 5597   3.408   0.786   3.953 -0.4271 -0.3077  0.5638
 1882TIP3   OH2 5598   5.121   0.328   3.219 -0.2833  0.6282 -0.4047
 1882TIP3    H1 5599   5.206   0.296   3.188 -0.5119 -1.1654  0.6953
 1882TIP3    H2 5600   5.057   0.280   3.166 -0.6722 -2.4818  2.6742
 1883TIP3   OH2 5601   6.658   1.362   2.791 -1.1370 -0.1552 -0.0273
 1883TIP3    H1 5602   6.738   1.353   2.843 -0.8773  0.0576 -0.3860
 1883TIP3    H2 5603   6.656   1.454   2.766 -0.1010 -0.6920 -2.2378
 1884TIP3   OH2 5604   6.766   1.170   2.395 -0.2409 -0.4281  0.6721
 1884TIP3    H1 5605   6.827   1.238   2.421  0.4032 -0.9752  0.6056
 1884TIP3    H2 5606   6.713   1.210   2.326 -1.5560  0.8302  2.3675
 1885TIP3   OH2 5607   5.295   0.764   4.021  0.7055  0.5341 -0.0239
 1885TIP3    H1 5608   5.357   0.706   4.067  1.1901 -0.8186 -2.2781
 1885TIP3    H2 5609   5.209   0.727   4.041  1.0702 -1.6728 -2.2783
 1886TIP3   OH2 5610   1.233   6.907   3.432 -0.2509 -0.2926 -0.2373
 1886TIP3    H1 5611   1.220   6.827   3.483 -1.2136  1.8010  2.8977
 1886TIP3    H2 5612   1.315   6.943   3.465 -0.7114  0.9181 -0.4034
 1887TIP3   OH2 5613   6.471   2.381   3.542  0.6853  0.6562  0.4501
 1887TIP3    H1 5614   6.472   2.475   3.563 -2.2335  1.3035 -2.0045
 1887TIP3    H2 5615   6.488   2.378   3.447  0.3458 -1.2807  0.4377
 1888TIP3   OH2 5616   4.316   1.917   3.743 -0.1849 -0.4433  0.2492
 1888TIP3    H1 5617   4.265   1.940   3.666  0.5341 -1.4442 -0.5385
 1888TIP3    H2 5618   4.273   1.963   3.815 -1.6912 -0.5979 -0.5253
 1889TIP3   OH2 5619   5.370   0.720   3.447 -0.0410  0.5418  0.3978
 1889TIP3    H1 5620   5.430   0.760   3.385  0.9035  0.7048  1.4115
 1889TIP3    H2 5621   5.301   0.682   3.392  0.4862  1.1723 -0.7126
 1890TIP3   OH2 5622   1.233   0.779   1.096  0.1877 -0.9322  0.2737
 1890TIP3    H1 5623   1.309   0.725   1.115  0.0469 -1.2796 -0.1525
 1890TIP3    H2 5624   1.258   0.833   1.021  0.3822 -0.2895  0.7911
 1891TIP3   OH2 5625   5.341   6.728   4.244  0.0241 -0.1018 -0.0106
 1891TIP3    H1 5626   5.365   6.704   4.334  1.0861 -2.1226 -0.8055
 1891TIP3    H2 5627   5.423   6.755   4.203 -0.8739  3.4351  0.3541
 1892TIP3   OH2 5628   2.677   0.177   2.338  0.3804 -0.3370 -0.0272
 1892TIP3    H1 5629   2.662   0.092   2.296 -0.3713 -0.4975  0.5500
 1892TIP3    H2 5630   2.614   0.179   2.410  0.6595  0.5506  0.1940
 1893TIP3   OH2 5631   3.481   7.182   4.258  0.2722 -0.1023  0.0892
 1893TIP3    H1 5632   3.442   7.162   4.343  2.7691  1.5345  1.7036
 1893TIP3    H2 5633   3.454   7.272   4.239  1.0368  0.0975 -0.0718
 1894TIP3   OH2 5634   3.198   1.410   4.428  0.0028  0.3827  0.5711
 1894TIP3    H1 5635   3.154   1.328   4.452 -0.9759  0.4208 -1.0283
 1894TIP3    H2 5636   3.206   1.458   4.510  0.0632 -1.0630  1.4277
 1895TIP3   OH2 5637   5.057   3.419   3.097  0.0264 -0.1144 -0.0089
 1895TIP3    H1 5638   5.029   3.506   3.068 -0.5834 -1.3926 -3.4196
 1895TIP3    H2 5639   5.094   3.378   3.019  0.6685 -2.7922  1.6380
 1896TIP3   OH2 5640   5.231   1.401   0.864 -1.0320  0.3065  0.3096
 1896TIP3    H1 5641   5.260   1.489   0.888 -1.4302  0.7112 -0.6622
 1896TIP3    H2 5642   5.234   1.401   0.768 -4.2218  0.3813  0.1429
 1897TIP3   OH2 5643   4.215   1.937   0.732  0.0105  0.0966  0.2497
 1897TIP3    H1 5644   4.135   1.909   0.687 -1.3546 -0.4805  2.9285
 1897TIP3    H2 5645   4.286   1.898   0.682 -1.5636 -2.6257  0.0467
 1898TIP3   OH2 5646   5.787   2.176   2.896  0.1116 -0.0711 -0.2487
 1898TIP3    H1 5647   5.708   2.133   2.865  0.2537 -0.2630 -0.3418
 1898TIP3    H2 5648   5.756   2.234   2.966  0.1007 -1.3336  0.8200
 1899TIP3   OH2 5649   6.219   1.908   3.179 -0.6594  0.7330 -0.1565
 1899TIP3    H1 5650   6.183   1.939   3.096  1.6007  0.1570 -1.3974
 1899TIP3    H2 5651   6.214   1.984   3.237 -1.8477  1.2667 -0.9423
 1900TIP3   OH2 5652   4.928   1.927   3.279 -0.1424  0.1647  0.0757
 1900TIP3    H1 5653   4.949   1.837   3.303  0.4771  0.0326 -0.9228
 1900TIP3    H2 5654   4.964   1.937   3.191 -1.2467  1.0302 -0.2833
 1901TIP3   OH2 5655   3.590   7.326   3.778 -0.6992  0.5872  0.2323
 1901TIP3    H1 5656   3.543   7.253   3.738 -1.2735  0.3531  1.3083
 1901TIP3    H2 5657   3.568   7.401   3.723  1.2008 -0.3144 -1.8521
 1902TIP3   OH2 5658   2.427   6.202   1.591 -0.1411 -0.4063 -0.2783
 1902TIP3    H1 5659   2.358   6.150   1.549 -1.3479  1.8545 -1.1883
 1902TIP3    H2 5660   2.389   6.289   1.600  2.1945  0.5893  0.2601
 1903TIP3   OH2 5661   3.476   0.362   2.996 -0.2531 -0.7948 -0.7518
 1903TIP3    H1 5662   3.423   0.441   3.004  1.6332  0.3312  1.1487
 1903TIP3    H2 5663   3.534   0.379   2.922 -1.2468 -1.2452 -1.6349
 1904TIP3   OH2 5664   1.725   7.070   3.346  0.5030  0.0394  0.0275
 1904TIP3    H1 5665   1.791   7.080   3.277  1.3087 -1.6902  0.5334
 1904TIP3    H2 5666   1.739   6.982   3.381 -1.7578 -0.1645  0.4885
 1905TIP3   OH2 5667   4.196   1.824   4.083 -0.3110  0.1200  0.1909
 1905TIP3    H1 5668   4.172   1.917   4.082  0.4541  0.3272  0.9252
 1905TIP3    H2 5669   4.273   1.820   4.140  0.0988 -0.8599 -0.4299
 1906TIP3   OH2 5670   5.534   1.497   3.456 -0.6235  0.2858  0.4803
 1906TIP3    H1 5671   5.510   1.572   3.509 -1.1232  0.5621 -0.1319
 1906TIP3    H2 5672   5.494   1.422   3.500 -2.3303  0.7007 -0.3513
 1907TIP3   OH2 5673   3.645   7.089   0.973 -0.2546 -0.3073 -0.8014
 1907TIP3    H1 5674   3.608   7.003   0.951  0.0516 -0.4797 -0.6400
 1907TIP3    H2 5675   3.650   7.135   0.890  1.5977 -1.2264 -1.2042
 1908TIP3   OH2 5676   2.048   6.371   3.440 -0.0081 -0.0690 -0.0362
 1908TIP3    H1 5677   1.963   6.369   3.397 -0.4884  0.2751  0.8823
 1908TIP3    H2 5678   2.028   6.361   3.533  0.9815 -0.3243  0.1565
 1909TIP3   OH2 5679   7.454   6.999   1.862  0.2572 -0.5427 -0.9065
 1909TIP3    H1 5680   7.419   7.088   1.868 -1.0703 -1.2135  2.0452
 1909TIP3    H2 5681   7.394   6.954   1.802  0.0820  0.1737 -1.2677
 1910TIP3   OH2 5682   5.220   0.688   4.334 -0.0282 -0.7011  0.1673
 1910TIP3    H1 5683   5.209   0.776   4.371 -0.1238  1.0904 -3.9196
 1910TIP3    H2 5684   5.144   0.676   4.277  2.2906 -1.5428 -2.8705
 1911TIP3   OH2 5685   5.471   0.597   2.681 -0.2731 -0.2725  0.7182
 1911TIP3    H1 5686   5.385   0.585   2.721 -0.9648 -0.3014 -0.7453
 1911TIP3    H2 5687   5.506   0.508   2.672 -0.6253 -0.3535  0.1567
 1912TIP3   OH2 5688   0.565   6.949   2.198  0.3621 -0.1193  0.0461
 1912TIP3    H1 5689   0.627   7.016   2.171  1.2000 -0.2330  1.6067
 1912TIP3    H2 5690   0.483   6.997   2.214  0.8297  0.4729  0.7147
 1913TIP3   OH2 5691   7.806   6.194   0.588 -0.1553  0.0773 -0.2640
 1913TIP3    H1 5692   7.767   6.126   0.642 -0.3889  0.0518 -0.4628
 1913TIP3    H2 5693   7.837   6.148   0.510 -0.8101  0.2834 -0.6463
 1914TIP3   OH2 5694   1.169   0.285   2.882  0.5136  0.6903  0.3797
 1914TIP3    H1 5695   1.110   0.354   2.851 -1.4484 -0.4042  1.5442
 1914TIP3    H2 5696   1.199   0.315   2.967  0.3018  0.4830  0.5281
 1915TIP3   OH2 5697   5.662   1.322   2.186  0.1838 -0.4695  0.3183
 1915TIP3    H1 5698   5.649   1.386   2.256  0.5049  0.4359 -0.4499
 1915TIP3    H2 5699   5.656   1.372   2.105  4.7033 -0.5735 -0.2260
 1916TIP3   OH2 5700   3.104   1.535   1.698 -0.1700 -0.0514 -0.1118
 1916TIP3    H1 5701   3.079   1.555   1.789  0.3358  0.9393 -0.1841
 1916TIP3    H2 5702   3.106   1.620   1.655 -0.0845 -0.4907 -0.9810
 1917TIP3   OH2 5703   5.171   2.848   5.295 -0.3788  0.1776 -0.3246
 1917TIP3    H1 5704   5.204   2.774   5.345 -1.0915 -0.6861 -1.1184
 1917TIP3    H2 5705   5.210   2.838   5.208  0.5543  1.4600 -0.0704
 1918TIP3   OH2 5706   2.771   1.572   5.238 -0.6581  0.0428  0.4705
 1918TIP3    H1 5707   2.745   1.640   5.301 -0.8261  1.2569 -0.8743
 1918TIP3    H2 5708   2.765   1.616   5.153  0.0122 -1.4438 -0.3471
 1919TIP3   OH2 5709   6.419   1.448   1.592  0.6620  0.1025  0.0454
 1919TIP3    H1 5710   6.389   1.358   1.597 -0.0991  0.4440  1.7855
 1919TIP3    H2 5711   6.375   1.484   1.514  1.5195 -1.2076 -1.0592
 1920TIP3   OH2 5712   7.686   6.960   2.317  0.1079  0.3114 -0.4455
 1920TIP3    H1 5713   7.632   6.881   2.319 -1.0964  1.1303 -0.1891
 1920TIP3    H2 5714   7.660   7.008   2.396 -0.4351  1.7914 -1.5194
 1921TIP3   OH2 5715   3.306   5.740   0.864  0.3023 -0.0130  0.6426
 1921TIP3    H1 5716   3.276   5.771   0.779  1.4092  0.3226  0.3665
 1921TIP3    H2 5717   3.230   5.694   0.901 -1.1191  2.3785  0.7637
 1922TIP3   OH2 5718   4.669   2.264   4.793 -0.3359 -0.3033  0.5788
 1922TIP3    H1 5719   4.699   2.173   4.787 -0.3663 -0.5458  3.4776
 1922TIP3    H2 5720   4.709   2.307   4.717 -0.8855 -2.8604 -1.2323
 1923TIP3   OH2 5721   0.840   6.762   2.869  0.1401  0.2256 -0.3955
 1923TIP3    H1 5722   0.811   6.826   2.934  0.3626 -0.9200  0.8609
 1923TIP3    H2 5723   0.759   6.733   2.827 -0.5715 -2.3301  2.5129
 1924TIP3   OH2 5724   1.210   7.170   4.047  0.3261 -0.2971 -0.5685
 1924TIP3    H1 5725   1.121   7.150   4.018 -0.6061  0.3212  1.7993
 1924TIP3    H2 5726   1.250   7.084   4.062 -1.0949 -0.5855  1.8916
 1925TIP3   OH2 5727   4.731   3.714   2.524 -0.0842 -0.0194  0.7561
 1925TIP3    H1 5728   4.753   3.699   2.432 -1.0194 -3.2901  1.0204
 1925TIP3    H2 5729   4.779   3.646   2.572  0.7727  1.9225  2.7891
 1926TIP3   OH2 5730   5.427   3.564   4.641 -0.1282  0.3677 -0.3718
 1926TIP3    H1 5731   5.521   3.577   4.646 -0.1671  0.7133 -0.5779
 1926TIP3    H2 5732   5.408   3.553   4.548 -0.3901  1.0396 -0.4019
 1927TIP3   OH2 5733   0.642   6.553   4.808 -0.4961  0.3308  0.0585
 1927TIP3    H1 5734   0.600   6.467   4.803  0.2162  0.0472 -1.1999
 1927TIP3    H2 5735   0.717   6.547   4.748  0.0968  1.5258  0.6613
 1928TIP3   OH2 5736   6.410   1.285   2.963  0.4097 -0.5257  0.4322
 1928TIP3    H1 5737   6.341   1.351   2.960  0.5616 -0.2765  1.8008
 1928TIP3    H2 5738   6.480   1.320   2.908 -0.2175 -0.3804 -0.2688
 1929TIP3   OH2 5739   3.049   7.140   0.022 -0.2553  0.1825 -0.2239
 1929TIP3    H1 5740   3.063   7.231   0.047  0.9516 -0.0240 -0.0879
 1929TIP3    H2 5741   2.990   7.106   0.089  0.1878  0.5673  0.3658
 1930TIP3   OH2 5742   5.935   1.984   2.797  0.4774 -0.0602 -0.3451
 1930TIP3    H1 5743   5.924   1.923   2.869 -0.3727 -0.3616 -0.7192
 1930TIP3    H2 5744   5.891   2.064   2.825  0.3264 -0.1068 -0.4508
 1931TIP3   OH2 5745   6.289   1.542   1.936  0.1333  0.1112 -0.3459
 1931TIP3    H1 5746   6.229   1.488   1.884  0.5766 -0.5088 -0.2223
 1931TIP3    H2 5747   6.317   1.484   2.007 -0.7805  1.0824  0.8238
 1932TIP3   OH2 5748   6.487   0.963   2.041 -0.1740  0.4411  0.2312
 1932TIP3    H1 5749   6.478   1.031   1.975  2.8920 -0.4510 -1.1926
 1932TIP3    H2 5750   6.398   0.952   2.077 -1.3126  2.9553 -1.6759
 1933TIP3   OH2 5751   0.052   5.810   3.753 -0.4696  0.1690  0.1714
 1933TIP3    H1 5752   0.139   5.820   3.714 -1.4336  0.4379 -2.0162
 1933TIP3    H2 5753   0.006   5.749   3.695 -1.3831 -0.8792  1.9441
 1934TIP3   OH2 5754   2.455   0.716   3.343 -0.0941 -0.2029 -0.0041
 1934TIP3    H1 5755   2.529   0.666   3.378 -0.4299 -0.2302  0.6649
 1934TIP3    H2 5756   2.445   0.683   3.253  1.4674  0.6540 -0.5103
 1935TIP3   OH2 5757   2.609   3.865   3.968 -0.0208  0.3388  0.3558
 1935TIP3    H1 5758   2.673   3.795   3.977 -1.3589 -0.7969  1.4018
 1935TIP3    H2 5759   2.628   3.906   3.884  0.5542 -1.5321 -0.4336
 1936TIP3   OH2 5760   6.568   0.881   1.353 -0.3361 -0.3682  0.2966
 1936TIP3    H1 5761   6.553   0.952   1.415 -1.3904 -0.0705 -0.2911
 1936TIP3    H2 5762   6.567   0.802   1.406 -0.4848 -0.0525  0.7694
 1937TIP3   OH2 5763   1.693   0.685   4.566 -0.6033  0.0873  0.1691
 1937TIP3    H1 5764   1.682   0.606   4.513  1.4640 -0.0786 -0.0366
 1937TIP3    H2 5765   1.697   0.757   4.503 -1.5250  0.2747  0.3084
 1938TIP3   OH2 5766   1.533   7.172   2.775  0.0315 -0.2204 -0.7025
 1938TIP3    H1 5767   1.612   7.150   2.823 -1.0469  0.2363  1.3400
 1938TIP3    H2 5768   1.549   7.259   2.740  0.4758 -0.1762 -0.3943
 1939TIP3   OH2 5769   7.114   0.176   2.568 -0.1475  0.1659  0.1575
 1939TIP3    H1 5770   7.196   0.182   2.518  1.2546 -0.2123  2.3631
 1939TIP3    H2 5771   7.131   0.109   2.634 -3.3116 -2.1659 -1.2736
 1940TIP3   OH2 5772   7.372   1.474   0.126  0.0443  0.3574  0.0670
 1940TIP3    H1 5773   7.282   1.443   0.137  0.8983 -2.1002  0.5635
 1940TIP3    H2 5774   7.397   1.440   0.040  0.7842  0.2893  0.3136
 1941TIP3   OH2 5775   4.881   0.057   3.535  0.6924  0.4232  0.2628
 1941TIP3    H1 5776   4.954   0.116   3.551  0.7483  0.4500 -0.0810
 1941TIP3    H2 5777   4.918  -0.013   3.481  0.1848  1.0809 -0.9697
 1942TIP3   OH2 5778   4.011   2.231   2.464  0.3043 -0.2482 -0.2638
 1942TIP3    H1 5779   4.080   2.297   2.468  0.5004 -0.4674  0.0145
 1942TIP3    H2 5780   3.952   2.254   2.536  1.0244 -1.0944  0.6014
 1943TIP3   OH2 5781   4.694   1.981   3.427 -0.1230  0.4168  0.6778
 1943TIP3    H1 5782   4.778   1.948   3.396  0.3857  2.3820 -0.0230
 1943TIP3    H2 5783   4.629   1.932   3.376  0.6284  0.7613 -0.6158
 1944TIP3   OH2 5784   4.262   2.141   2.774 -0.0971  0.4884  0.5329
 1944TIP3    H1 5785   4.220   2.204   2.832 -0.6385 -1.3019  2.1247
 1944TIP3    H2 5786   4.310   2.195   2.711 -2.9777  2.5501 -0.0149
 1945TIP3   OH2 5787   4.306   2.215   3.905  0.4846  0.0789  0.6309
 1945TIP3    H1 5788   4.243   2.255   3.965 -0.0238 -1.2466  1.0189
 1945TIP3    H2 5789   4.266   2.225   3.819  0.6766  0.9795  0.6427
 1946TIP3   OH2 5790   0.897   7.142   1.192  0.0813  0.3973 -0.0894
 1946TIP3    H1 5791   0.843   7.196   1.249  0.9191  0.4740  0.6461
 1946TIP3    H2 5792   0.878   7.052   1.220 -2.5836  0.1696 -2.4361
 1947TIP3   OH2 5793   5.110   1.230   4.691  0.1615 -0.3458 -0.0010
 1947TIP3    H1 5794   5.065   1.149   4.670 -1.0009  0.6924 -1.6351
 1947TIP3    H2 5795   5.040   1.289   4.721  1.2517 -0.5721  3.2485
 1948TIP3   OH2 5796   3.380   2.248   2.878  0.1484 -0.1723  0.0353
 1948TIP3    H1 5797   3.326   2.252   2.956  1.8958  0.3885  1.2347
 1948TIP3    H2 5798   3.343   2.314   2.819 -1.2160 -0.6514  0.3384
 1949TIP3   OH2 5799   3.695   1.374   1.733  0.0600  0.0404  0.0853
 1949TIP3    H1 5800   3.619   1.316   1.737  0.3284 -0.3135  0.1204
 1949TIP3    H2 5801   3.717   1.391   1.825 -0.1984  0.4373  0.0741
 1950TIP3   OH2 5802   6.493   0.663   3.603 -0.0860 -0.2978  1.4782
 1950TIP3    H1 5803   6.558   0.728   3.630 -0.5932  1.1594 -0.7276
 1950TIP3    H2 5804   6.494   0.598   3.674  0.3593  2.1313  3.7868
 1951TIP3   OH2 5805   7.454   1.144   2.220 -0.0914 -0.0169  0.5847
 1951TIP3    H1 5806   7.540   1.118   2.186 -0.8919 -0.1166 -1.4571
 1951TIP3    H2 5807   7.402   1.064   2.217 -1.0120  0.6127 -0.7028
 1952TIP3   OH2 5808   3.679   0.249   1.875 -0.2974 -0.6383  0.2648
 1952TIP3    H1 5809   3.654   0.341   1.886 -1.6648 -1.1203  1.3370
 1952TIP3    H2 5810   3.620   0.215   1.808  0.7389 -0.5434 -0.7144
 1953TIP3   OH2 5811   5.548   2.880   4.474  0.3897 -0.3425  0.4979
 1953TIP3    H1 5812   5.581   2.893   4.563 -1.2607  0.9180  0.9582
 1953TIP3    H2 5813   5.495   2.958   4.457 -1.0016 -1.5354 -0.7957
 1954TIP3   OH2 5814   6.006   1.652   2.534 -0.4948  0.1842 -0.2164
 1954TIP3    H1 5815   5.993   1.743   2.508  1.8936  0.2282 -1.3563
 1954TIP3    H2 5816   6.070   1.656   2.605  1.1021 -0.7021 -1.5560
 1955TIP3   OH2 5817   5.234   1.618   3.646  0.1897  0.0428 -0.3225
 1955TIP3    H1 5818   5.286   1.698   3.643  0.3723 -0.1085 -1.2968
 1955TIP3    H2 5819   5.150   1.643   3.606 -0.3268  0.1557  0.7927
 1956TIP3   OH2 5820   2.008   0.488   4.455  0.2161 -0.1615 -0.4744
 1956TIP3    H1 5821   2.089   0.472   4.406 -0.2013 -0.6763 -1.0035
 1956TIP3    H2 5822   2.035   0.491   4.546  1.1197  1.5176 -0.7742
 1957TIP3   OH2 5823   5.803   0.575   3.531 -0.0806 -0.3194  0.3906
 1957TIP3    H1 5824   5.813   0.494   3.582 -1.8580  0.4141  1.9707
 1957TIP3    H2 5825   5.737   0.554   3.465  0.2328 -0.4542  0.1148
 1958TIP3   OH2 5826   1.769   7.094   2.924 -0.0126 -0.1758 -0.3382
 1958TIP3    H1 5827   1.751   7.003   2.945  0.8168 -0.1598  0.4552
 1958TIP3    H2 5828   1.848   7.091   2.870  0.6467  0.1552  0.6059
 1959TIP3   OH2 5829   3.554   5.791   2.522 -0.2583  0.1489  0.5399
 1959TIP3    H1 5830   3.609   5.864   2.493 -0.7119 -0.2383 -1.3303
 1959TIP3    H2 5831   3.496   5.773   2.448 -0.6118 -1.6695  1.2271
 1960TIP3   OH2 5832   5.426   0.155   4.052  0.2740  0.4959  0.1280
 1960TIP3    H1 5833   5.458   0.087   4.111 -1.3326 -1.5390 -1.2688
 1960TIP3    H2 5834   5.446   0.122   3.964  2.2269  3.2634 -0.5402
 1961TIP3   OH2 5835   7.157   7.360   3.220  0.2733 -0.9910  0.1526
 1961TIP3    H1 5836   7.129   7.394   3.135 -1.0444 -1.1572  0.5098
 1961TIP3    H2 5837   7.092   7.294   3.243 -0.0775 -0.1073  1.8479
 1962TIP3   OH2 5838   4.498   1.599   3.541  0.5703  0.5542 -0.4460
 1962TIP3    H1 5839   4.464   1.592   3.630 -1.3222 -0.5867 -1.2140
 1962TIP3    H2 5840   4.428   1.641   3.492  1.2668  0.4200 -1.5697
 1963TIP3   OH2 5841   1.604   6.541   2.450  0.2152  0.6253  0.2672
 1963TIP3    H1 5842   1.626   6.549   2.543 -0.4555  0.1249  0.4748
 1963TIP3    H2 5843   1.577   6.630   2.425 -0.1511  0.6421  0.6992
 1964TIP3   OH2 5844   3.262   7.391   2.703 -0.1662 -0.6011 -0.0471
 1964TIP3    H1 5845   3.265   7.486   2.715 -0.8392 -0.7578  1.4738
 1964TIP3    H2 5846   3.285   7.378   2.611  0.8257  0.9657 -0.0415
 1965TIP3   OH2 5847   5.014   1.895   3.008 -0.1299 -0.3208 -0.0644
 1965TIP3    H1 5848   5.089   1.843   3.036  0.8708  0.9530 -0.3394
 1965TIP3    H2 5849   4.942   1.832   3.002  1.0769 -1.6853 -0.5070
 1966TIP3   OH2 5850   2.532   6.759   2.943 -0.0757 -0.0229  0.3140
 1966TIP3    H1 5851   2.508   6.752   2.850  0.1319 -0.4098  0.2875
 1966TIP3    H2 5852   2.503   6.676   2.980  1.6332 -0.6751  0.1937
 1967TIP3   OH2 5853   5.477   0.594   4.456  0.6910 -0.0032  0.0195
 1967TIP3    H1 5854   5.470   0.569   4.548  1.5261  0.3171  0.1731
 1967TIP3    H2 5855   5.387   0.608   4.428  0.4619  0.2932  0.8994
 1968TIP3   OH2 5856   6.189   0.802   3.010 -0.2918 -0.0852 -0.3066
 1968TIP3    H1 5857   6.115   0.817   2.951 -1.1941 -1.8456  0.3033
 1968TIP3    H2 5858   6.251   0.751   2.958 -0.0285  0.4091 -0.4718
 1969TIP3   OH2 5859   4.077   1.534   2.303 -0.0079  0.1360 -0.5780
 1969TIP3    H1 5860   3.993   1.505   2.339 -0.4736  2.5165  0.3231
 1969TIP3    H2 5861   4.055   1.568   2.216  0.1288  0.2182 -0.5798
 1970TIP3   OH2 5862   0.649   3.123   6.082 -0.6369  0.0746 -0.3231
 1970TIP3    H1 5863   0.688   3.177   6.012 -2.2496  1.0999 -0.4504
 1970TIP3    H2 5864   0.644   3.182   6.157  0.3012 -0.7819  0.4225
 1971TIP3   OH2 5865   4.220   1.420   4.457  0.8399 -0.8357  0.3799
 1971TIP3    H1 5866   4.147   1.469   4.494  0.3801 -0.6217 -0.7881
 1971TIP3    H2 5867   4.224   1.447   4.365  1.1061 -2.3558 -0.0840
 1972TIP3   OH2 5868   4.696   1.045   3.132 -0.3891 -0.0515 -0.5600
 1972TIP3    H1 5869   4.713   0.954   3.107  0.9274  0.5560 -1.9538
 1972TIP3    H2 5870   4.615   1.068   3.086 -1.5194 -0.9474  0.9429
 1973TIP3   OH2 5871   5.165   0.922   4.470 -0.4214 -0.1578  0.2662
 1973TIP3    H1 5872   5.088   0.910   4.525 -0.6810  3.4604  0.8288
 1973TIP3    H2 5873   5.227   0.971   4.525  1.2316 -0.7183 -1.0529
 1974TIP3   OH2 5874   4.804   1.651   4.380 -0.1885  0.3311  0.1417
 1974TIP3    H1 5875   4.862   1.592   4.429 -0.9410  0.3861  1.1155
 1974TIP3    H2 5876   4.784   1.603   4.300  0.6425  0.0155  0.1175
 1975TIP3   OH2 5877   1.027   7.182   6.139  0.0081  0.3295  0.6918
 1975TIP3    H1 5878   0.999   7.162   6.049  1.3281  1.0501  0.0975
 1975TIP3    H2 5879   1.002   7.273   6.152 -0.5465  0.1014  1.1951
 1976TIP3   OH2 5880   4.610   0.286   2.894  0.6809  0.0677  0.3495
 1976TIP3    H1 5881   4.630   0.193   2.883  1.4504  0.2657  0.0566
 1976TIP3    H2 5882   4.686   0.322   2.939  0.8400  0.7593 -0.4610
 1977TIP3   OH2 5883   6.639   0.860   3.215 -0.5867  0.3805  0.1386
 1977TIP3    H1 5884   6.720   0.874   3.263  1.1809  0.4297 -2.7223
 1977TIP3    H2 5885   6.604   0.948   3.200 -1.0385  0.3748  1.1655
 1978TIP3   OH2 5886   5.981   0.676   1.949 -0.1835 -0.0220 -0.1328
 1978TIP3    H1 5887   5.937   0.596   1.980 -0.4357  0.1745  0.0143
 1978TIP3    H2 5888   6.000   0.658   1.857  0.4352 -0.5503  0.0962
 1979TIP3   OH2 5889   3.547   0.335   4.438 -0.6051 -0.3212  0.2422
 1979TIP3    H1 5890   3.623   0.290   4.402 -2.1884 -1.1993 -2.1187
 1979TIP3    H2 5891   3.562   0.336   4.533  1.3427 -2.3041 -0.0028
 1980TIP3   OH2 5892   1.491   1.228   4.090  0.4726  0.2274  0.0178
 1980TIP3    H1 5893   1.511   1.240   3.997 -0.9906  0.5699 -0.2713
 1980TIP3    H2 5894   1.477   1.134   4.099  1.7819  0.0419  0.1389
 1981TIP3   OH2 5895   3.572   2.400   4.948 -0.4294 -0.2956 -0.4576
 1981TIP3    H1 5896   3.546   2.385   5.039  0.3193  0.3695 -0.1278
 1981TIP3    H2 5897   3.511   2.467   4.916  1.1135  1.6167  0.4605
 1982TIP3   OH2 5898   5.185   4.428   3.816  0.1383 -0.9025  0.2784
 1982TIP3    H1 5899   5.194   4.497   3.750  0.1188 -1.2596 -0.0988
 1982TIP3    H2 5900   5.094   4.432   3.843  0.2265 -0.5378  0.5223
 1983TIP3   OH2 5901   0.346   0.762   2.583 -0.7127  0.1417  0.1421
 1983TIP3    H1 5902   0.360   0.853   2.611  0.5718 -0.2920  0.9780
 1983TIP3    H2 5903   0.252   0.756   2.565 -0.6428  1.9116 -0.9532
 1984TIP3   OH2 5904   3.244   1.181   3.468 -0.2703 -0.3402 -0.2187
 1984TIP3    H1 5905   3.338   1.199   3.472 -0.6616  1.5217  1.1332
 1984TIP3    H2 5906   3.209   1.248   3.410 -1.0004  0.0754  0.6832
 1985TIP3   OH2 5907   4.242   7.139   1.813 -0.0209 -0.2864  0.7156
 1985TIP3    H1 5908   4.203   7.092   1.739  1.1293 -0.7265  0.3761
 1985TIP3    H2 5909   4.211   7.229   1.804  0.9782 -0.0874 -0.9490
 1986TIP3   OH2 5910   3.847   7.019   1.855 -0.1320  0.3737 -0.1108
 1986TIP3    H1 5911   3.765   7.041   1.812 -1.3838 -0.8170  1.6084
 1986TIP3    H2 5912   3.872   6.934   1.819  0.1706  0.5649 -0.3611
 1987TIP3   OH2 5913   6.993   2.823   3.830 -0.4299  0.0123 -0.5949
 1987TIP3    H1 5914   7.011   2.796   3.740  0.3305 -0.7366 -0.2268
 1987TIP3    H2 5915   7.055   2.894   3.847  1.4219 -1.7874  0.2876
 1988TIP3   OH2 5916   6.705   1.826   1.955  0.0436 -0.5070  0.5055
 1988TIP3    H1 5917   6.613   1.810   1.934 -0.1045  1.9106 -0.9824
 1988TIP3    H2 5918   6.704   1.909   2.003  1.4520 -0.2474  0.1160
 1989TIP3   OH2 5919   6.146   1.390   2.694  0.3029  0.3185  0.5514
 1989TIP3    H1 5920   6.239   1.411   2.696 -0.3216  3.8123 -1.5626
 1989TIP3    H2 5921   6.107   1.452   2.756 -0.9336  0.9304 -0.8285
 1990TIP3   OH2 5922   6.533   1.904   1.267  0.2717 -0.2354 -0.7854
 1990TIP3    H1 5923   6.482   1.979   1.298 -0.7846 -1.0747 -0.4444
 1990TIP3    H2 5924   6.622   1.938   1.255  0.0211  0.8292  0.3022
 1991TIP3   OH2 5925   5.227   2.195   3.717 -0.0305 -0.5619  0.5589
 1991TIP3    H1 5926   5.309   2.164   3.756  1.5091  2.0247 -0.5007
 1991TIP3    H2 5927   5.221   2.287   3.743 -1.2271  0.0039 -1.5821
 1992TIP3   OH2 5928   6.825   6.911   3.770 -0.0475 -0.5404 -0.0113
 1992TIP3    H1 5929   6.907   6.959   3.770  1.6531 -3.3228  0.2711
 1992TIP3    H2 5930   6.787   6.927   3.857 -1.0746  2.7095 -0.9916
 1993TIP3   OH2 5931   5.010   2.869   4.445 -0.3633 -0.2616  0.3447
 1993TIP3    H1 5932   5.036   2.907   4.528  0.8683  1.3390 -0.7361
 1993TIP3    H2 5933   4.949   2.932   4.407  2.3902  1.1874 -1.8710
 1994TIP3   OH2 5934   7.434   1.139   4.433 -0.2978  0.0598  0.0256
 1994TIP3    H1 5935   7.376   1.117   4.360 -0.0262  0.1286 -0.2098
 1994TIP3    H2 5936   7.407   1.081   4.504 -1.5824  1.0331  0.3609
 1995TIP3   OH2 5937   1.357   6.373   2.387 -0.4432  0.1992  0.0517
 1995TIP3    H1 5938   1.395   6.295   2.346 -1.2801 -0.0239 -0.3012
 1995TIP3    H2 5939   1.432   6.431   2.400  0.0754 -0.3672 -0.3576
 1996TIP3   OH2 5940   6.439   1.713   2.662 -0.4915  0.3879  0.0719
 1996TIP3    H1 5941   6.509   1.720   2.597  0.1842 -0.3548  0.7092
 1996TIP3    H2 5942   6.365   1.759   2.623  0.2208  0.8106 -0.7947
 1997TIP3   OH2 5943   5.904   2.400   3.786 -0.2716  0.3428 -0.0662
 1997TIP3    H1 5944   5.938   2.476   3.833  0.1874 -0.1277  0.3737
 1997TIP3    H2 5945   5.977   2.372   3.730  0.0485 -0.5875  0.7785
 1998TIP3   OH2 5946   4.064   1.644   4.530 -0.1532  0.3138 -0.2099
 1998TIP3    H1 5947   4.049   1.733   4.501 -0.8606  0.5919  0.9659
 1998TIP3    H2 5948   4.032   1.642   4.620  0.3407 -0.9827 -0.0424
 1999TIP3   OH2 5949   4.453   0.206   3.108  0.1339  0.5963  0.3988
 1999TIP3    H1 5950   4.492   0.281   3.063  0.1240  0.6920  0.5469
 1999TIP3    H2 5951   4.433   0.239   3.196  0.0884  0.4325  0.4505
 2000TIP3   OH2 5952   5.035   1.547   1.513 -0.6290 -0.0641  0.2993
 2000TIP3    H1 5953   5.124   1.558   1.477 -1.1618  2.1397 -0.4236
 2000TIP3    H2 5954   5.016   1.454   1.500  0.2117  0.1175 -2.8436
 2001TIP3   OH2 5955   3.693   2.383   5.463  0.4194 -0.1771  0.5178
 2001TIP3    H1 5956   3.772   2.336   5.438  0.7369  1.5613 -1.8022
 2001TIP3    H2 5957   3.724   2.462   5.507 -0.0591 -0.0088  0.5571
 2002TIP3   OH2 5958   6.664   0.833   1.735 -0.1491 -0.2920  0.1989
 2002TIP3    H1 5959   6.728   0.880   1.789  1.3676 -1.0205 -0.9337
 2002TIP3    H2 5960   6.659   0.884   1.654 -1.1682 -0.1301  0.3550
 2003TIP3   OH2 5961   5.569   1.781   2.360 -0.0449  0.4350 -0.3217
 2003TIP3    H1 5962   5.610   1.697   2.342 -0.3579  0.0785  0.5970
 2003TIP3    H2 5963   5.486   1.778   2.313  0.8478  1.0559 -1.9755
 2004TIP3   OH2 5964   5.353   2.345   4.571  0.4193  0.4362  0.2692
 2004TIP3    H1 5965   5.429   2.302   4.609  0.3714 -1.3888 -1.6025
 2004TIP3    H2 5966   5.359   2.325   4.477 -1.9674  0.8773 -0.0073
 2005TIP3   OH2 5967   5.079   0.220   3.513  0.3095  0.0590  0.1699
 2005TIP3    H1 5968   5.102   0.252   3.426  0.4280 -2.0823 -0.5995
 2005TIP3    H2 5969   5.145   0.260   3.570  0.1699  1.5540 -0.6736
 2006TIP3   OH2 5970   6.252   1.587   3.961 -0.3550 -0.3994  0.6068
 2006TIP3    H1 5971   6.326   1.532   3.937  0.9148  0.9384  1.3617
 2006TIP3    H2 5972   6.231   1.636   3.881 -1.3386 -1.7840  0.0016
 2007TIP3   OH2 5973   3.608   0.633   4.306  0.7314  0.2127  0.2068
 2007TIP3    H1 5974   3.579   0.600   4.391  0.1459 -1.2788 -0.5527
 2007TIP3    H2 5975   3.533   0.682   4.272  0.3197 -0.6878 -0.2125
 2008TIP3   OH2 5976   4.291   1.756   5.414 -0.5316 -0.2019  0.5455
 2008TIP3    H1 5977   4.312   1.806   5.493  0.3937  1.0901 -0.4816
 2008TIP3    H2 5978   4.241   1.817   5.360  0.2286 -0.5303 -0.5412
 2009TIP3   OH2 5979   6.865   0.116   3.097 -0.0892  0.7324 -0.3558
 2009TIP3    H1 5980   6.919   0.055   3.046 -0.9484 -0.2938 -0.0685
 2009TIP3    H2 5981   6.852   0.071   3.180 -0.4867  1.4517 -0.0290
 2010TIP3   OH2 5982   3.135   0.827   4.131  0.7368  0.1277 -0.0399
 2010TIP3    H1 5983   3.149   0.881   4.053 -0.4436  1.3699  0.5871
 2010TIP3    H2 5984   3.105   0.889   4.198 -0.8473 -1.3189  0.6297
 2011TIP3   OH2 5985   4.611   0.665   3.758  0.2539 -0.0313  0.3573
 2011TIP3    H1 5986   4.606   0.621   3.673  0.1223  0.6409  0.0130
 2011TIP3    H2 5987   4.547   0.619   3.812  1.2831 -1.3233  0.4927
 2012TIP3   OH2 5988   5.604   1.114   5.025  0.3375 -0.2543  0.2864
 2012TIP3    H1 5989   5.630   1.192   4.976  0.5541 -0.6823 -0.2843
 2012TIP3    H2 5990   5.681   1.058   5.023 -0.1973 -0.9742 -0.2921
 2013TIP3   OH2 5991   6.489   7.312   1.863  0.2836  0.0551 -0.2492
 2013TIP3    H1 5992   6.424   7.359   1.915  0.0244  0.9433 -1.3873
 2013TIP3    H2 5993   6.553   7.378   1.838  0.3857 -0.3593 -1.1145
 2014TIP3   OH2 5994   5.781   0.846   1.944 -0.7861 -0.0484  0.1227
 2014TIP3    H1 5995   5.784   0.864   2.038  0.3648 -0.8206  0.2525
 2014TIP3    H2 5996   5.848   0.779   1.931 -0.4398  0.5715 -1.3618
 2015TIP3   OH2 5997   3.558   1.069   1.238 -0.0031  0.1074  0.2312
 2015TIP3    H1 5998   3.632   1.010   1.253 -0.2946 -0.4869 -0.6318
 2015TIP3    H2 5999   3.527   1.090   1.326 -0.2322 -1.4691  0.5379
 2016TIP3   OH2 6000   5.103   3.011   2.863 -0.1829  0.2301  0.3067
 2016TIP3    H1 6001   5.048   2.987   2.938 -3.1270  2.3727 -1.0805
 2016TIP3    H2 6002   5.056   2.979   2.787  0.3829  2.2132 -0.9216
 2017TIP3   OH2 6003   7.207   1.323   4.176 -0.3880 -0.2453 -0.2227
 2017TIP3    H1 6004   7.273   1.318   4.106 -1.4491  1.7641 -1.4134
 2017TIP3    H2 6005   7.124   1.307   4.131 -0.9223 -0.7078  0.9189
 2018TIP3   OH2 6006   5.859   0.995   5.057 -0.7378 -0.3818  0.6280
 2018TIP3    H1 6007   5.914   1.073   5.043 -0.2245 -0.7150  0.7710
 2018TIP3    H2 6008   5.918   0.921   5.041 -0.6303 -0.7640  2.6643
 2019TIP3   OH2 6009   7.238   1.645   3.467  1.0428 -0.1518  0.3428
 2019TIP3    H1 6010   7.314   1.588   3.477  1.2305 -0.0036 -0.2246
 2019TIP3    H2 6011   7.171   1.605   3.522  1.2276 -0.8165  0.0894
 2020TIP3   OH2 6012   7.149   2.071   2.456  0.1974 -0.1220  0.2174
 2020TIP3    H1 6013   7.122   2.102   2.370  0.0866  0.1578  0.3519
 2020TIP3    H2 6014   7.235   2.111   2.470 -0.1992  0.5957  0.6361
 2021TIP3   OH2 6015   0.888   1.283   3.143 -0.2314 -0.1106 -0.1054
 2021TIP3    H1 6016   0.883   1.253   3.233  1.0686  0.1395  0.0604
 2021TIP3    H2 6017   0.981   1.274   3.119 -0.0478  2.4112 -0.5014
 2022TIP3   OH2 6018   4.971   1.841   1.384 -0.7042 -1.0115 -0.0040
 2022TIP3    H1 6019   5.058   1.867   1.352 -1.4124  0.2682 -0.9759
 2022TIP3    H2 6020   4.983   1.753   1.419  1.1098 -0.6213  0.4116
 2023TIP3   OH2 6021   6.744   2.486   0.758  0.1630 -0.1286  0.8084
 2023TIP3    H1 6022   6.728   2.564   0.706  0.6500  0.3762  1.4058
 2023TIP3    H2 6023   6.728   2.413   0.698  0.6835  0.4415 -0.0347
 2024TIP3   OH2 6024   0.234   1.746   2.223 -0.5666 -0.0409  0.4181
 2024TIP3    H1 6025   0.233   1.833   2.263 -0.7919  1.2189 -2.1732
 2024TIP3    H2 6026   0.145   1.734   2.190  0.5152  0.6231 -2.9537
 2025TIP3   OH2 6027   5.801   1.110   3.602  0.0316  0.1587 -0.4903
 2025TIP3    H1 6028   5.852   1.057   3.663 -0.0197  2.0587  1.2567
 2025TIP3    H2 6029   5.860   1.183   3.580 -0.3395  0.0497 -1.9341
 2026TIP3   OH2 6030   3.343   5.970   2.049 -0.4665 -0.0161  0.1236
 2026TIP3    H1 6031   3.324   6.063   2.037 -1.3280 -0.4990 -2.6090
 2026TIP3    H2 6032   3.259   5.926   2.036  0.3131 -1.3336 -0.5842
 2027TIP3   OH2 6033   7.025   0.823   2.408 -0.5231 -0.2824  0.1327
 2027TIP3    H1 6034   7.098   0.785   2.457  0.3930  1.0786 -0.1394
 2027TIP3    H2 6035   6.952   0.764   2.424  0.2191 -0.8063  1.7085
 2028TIP3   OH2 6036   1.778   7.288   3.781 -0.1581 -0.0937 -0.0794
 2028TIP3    H1 6037   1.817   7.363   3.736 -0.3989 -0.3467 -0.7103
 2028TIP3    H2 6038   1.733   7.326   3.856 -0.6990  0.4508 -0.6705
 2029TIP3   OH2 6039   6.755   1.506   1.378  0.2187 -0.3043  0.2264
 2029TIP3    H1 6040   6.837   1.542   1.412  0.5350 -0.6707 -0.1486
 2029TIP3    H2 6041   6.687   1.554   1.426  0.6285  1.1474 -0.6158
 2030TIP3   OH2 6042   7.838   1.665   2.385 -0.1645  0.3197  0.1120
 2030TIP3    H1 6043   7.758   1.709   2.414 -1.8337 -1.7402 -1.2517
 2030TIP3    H2 6044   7.872   1.720   2.315 -1.0230  0.5921 -0.0935
 2031TIP3   OH2 6045   6.157   3.915   2.047 -0.0378 -0.2201 -0.1080
 2031TIP3    H1 6046   6.226   3.979   2.034  0.2873 -0.8491 -1.6617
 2031TIP3    H2 6047   6.078   3.967   2.061  0.6621  0.5018  1.1707
 2032TIP3   OH2 6048   5.570   5.136   3.129  0.2107 -0.0211  0.1197
 2032TIP3    H1 6049   5.557   5.217   3.177  0.9868  0.2566 -0.1427
 2032TIP3    H2 6050   5.489   5.086   3.144  0.4688  0.0410  1.7502
 2033TIP3   OH2 6051   7.805   3.390   1.148 -0.8970  0.2688  0.2445
 2033TIP3    H1 6052   7.898   3.397   1.172 -0.5401 -4.5651  0.8275
 2033TIP3    H2 6053   7.806   3.379   1.053 -0.4523 -3.4239  0.5832
 2034TIP3   OH2 6054   5.414   2.395   0.096 -0.4959 -0.3365 -0.7226
 2034TIP3    H1 6055   5.430   2.455   0.024  2.7102 -0.4852 -0.2187
 2034TIP3    H2 6056   5.424   2.449   0.175  1.6597 -1.3090 -0.2881
 2035TIP3   OH2 6057   5.506   6.281   1.458 -0.4899  0.0583  0.0583
 2035TIP3    H1 6058   5.433   6.308   1.402  0.5273  1.2654 -0.6955
 2035TIP3    H2 6059   5.584   6.310   1.411  0.5064 -1.5203  0.6941
 2036TIP3   OH2 6060   5.224   0.997   1.095  0.3901  0.0164 -0.1621
 2036TIP3    H1 6061   5.310   1.022   1.061 -0.1701  1.0311 -0.8662
 2036TIP3    H2 6062   5.177   0.964   1.019 -0.1098  0.2054  0.0599
 2037TIP3   OH2 6063   4.005   7.175   2.027  0.2549 -0.0055  0.0258
 2037TIP3    H1 6064   3.964   7.112   1.968 -0.3781 -0.3933  0.8603
 2037TIP3    H2 6065   3.944   7.181   2.101  0.1653  1.8179 -0.1865
 2038TIP3   OH2 6066   3.165   6.796   0.239 -0.1352  0.0351 -0.4937
 2038TIP3    H1 6067   3.216   6.796   0.158  1.0358 -0.1799  0.2167
 2038TIP3    H2 6068   3.092   6.737   0.223  0.8812 -1.1177 -0.9186
 2039TIP3   OH2 6069   7.438   2.058   3.318 -0.0895  0.1489  0.4070
 2039TIP3    H1 6070   7.450   2.107   3.400 -0.7384  0.3236  0.4017
 2039TIP3    H2 6071   7.372   1.993   3.340 -1.3748  1.1692 -0.3913
 2040TIP3   OH2 6072   4.569   6.048   0.362 -0.2317  0.1136 -0.4816
 2040TIP3    H1 6073   4.595   6.020   0.450  0.5157  0.9792 -0.4237
 2040TIP3    H2 6074   4.499   5.987   0.338 -1.1896  0.5405  1.1330
 2041TIP3   OH2 6075   0.539   2.104   1.844 -0.0001  0.1251  0.0473
 2041TIP3    H1 6076   0.474   2.055   1.794 -0.3276  1.6468 -1.0808
 2041TIP3    H2 6077   0.597   2.038   1.881 -2.2108 -1.2547  1.1033
 2042TIP3   OH2 6078   6.180   0.853   4.260  0.2431  0.0574  0.4559
 2042TIP3    H1 6079   6.118   0.909   4.214 -0.2184 -1.1442 -0.4090
 2042TIP3    H2 6080   6.266   0.882   4.229  0.0765  1.1649  1.0228
 2043TIP3   OH2 6081   5.828   2.930   4.343  0.4107  0.3239  0.2100
 2043TIP3    H1 6082   5.739   2.945   4.375  0.6731 -1.2137  1.7244
 2043TIP3    H2 6083   5.881   2.996   4.389  0.5442 -0.8846  1.8326
 2044TIP3   OH2 6084   0.324   0.475   2.102 -0.6379  0.0239  0.4763
 2044TIP3    H1 6085   0.231   0.499   2.101 -0.3560  1.1005 -1.0960
 2044TIP3    H2 6086   0.343   0.450   2.011  0.8391  0.7090  0.5951
 2045TIP3   OH2 6087   7.806   1.221   0.711  0.1267 -0.2019  0.1508
 2045TIP3    H1 6088   7.822   1.191   0.621 -0.4719 -0.5979  0.1724
 2045TIP3    H2 6089   7.847   1.307   0.715  2.5687 -1.3371  0.3086
 2046TIP3   OH2 6090   5.513   0.614   3.851  0.0335 -0.9098  0.0812
 2046TIP3    H1 6091   5.493   0.673   3.924 -0.3018  0.1298 -0.8351
 2046TIP3    H2 6092   5.590   0.653   3.810  0.8211 -2.0299  0.4517
 2047TIP3   OH2 6093   6.295   2.143   3.545  0.4981  0.0446  0.5345
 2047TIP3    H1 6094   6.339   2.066   3.510 -0.0942  0.1129 -0.3673
 2047TIP3    H2 6095   6.356   2.215   3.529  1.3488 -0.3209  1.9874
 2048TIP3   OH2 6096   4.833   1.534   1.140  0.0223 -0.2492 -0.1344
 2048TIP3    H1 6097   4.840   1.611   1.083 -0.4223  0.5576  0.8749
 2048TIP3    H2 6098   4.782   1.565   1.216 -0.2281 -1.5580  0.2478
 2049TIP3   OH2 6099   7.423   2.379   1.059 -0.9957 -0.0034 -0.3188
 2049TIP3    H1 6100   7.465   2.294   1.067 -1.0869 -0.1510 -1.2950
 2049TIP3    H2 6101   7.330   2.362   1.069 -1.0813 -0.1411 -1.2422
 2050TIP3   OH2 6102   4.972   1.570   0.611 -0.0933  0.4937 -0.5067
 2050TIP3    H1 6103   4.983   1.665   0.612  1.2130  0.3471 -0.3223
 2050TIP3    H2 6104   5.057   1.536   0.586 -0.8024 -0.6060 -1.4922
 2051TIP3   OH2 6105   6.090   1.022   3.493 -0.0675 -0.0287 -0.1250
 2051TIP3    H1 6106   6.145   0.993   3.420 -0.9497  0.9469 -1.1996
 2051TIP3    H2 6107   6.081   0.944   3.548  2.3001 -0.2436  0.0400
 2052TIP3   OH2 6108   4.286   1.767   2.757 -0.0546 -0.0039  0.5277
 2052TIP3    H1 6109   4.370   1.795   2.720 -0.4838  0.5597 -0.0121
 2052TIP3    H2 6110   4.311   1.705   2.826  1.0987  3.8019  3.7651
 2053TIP3   OH2 6111   0.880   3.525   0.427 -0.3997  0.2807  0.2859
 2053TIP3    H1 6112   0.839   3.557   0.346  0.3944 -1.5613 -0.8808
 2053TIP3    H2 6113   0.971   3.554   0.419 -0.0415 -0.9246 -0.0538
 2054TIP3   OH2 6114   0.396   1.675   3.756 -0.4817 -0.0333  0.0070
 2054TIP3    H1 6115   0.398   1.579   3.751 -1.0994 -0.2461  2.8107
 2054TIP3    H2 6116   0.486   1.699   3.780 -0.3131  0.1039 -0.7529
 2055TIP3   OH2 6117   6.914   2.626   2.099 -0.0373  0.1429  0.1020
 2055TIP3    H1 6118   6.839   2.567   2.096  0.2439 -0.1773 -0.7535
 2055TIP3    H2 6119   6.923   2.658   2.009  0.4960  0.6233  0.3226
 2056TIP3   OH2 6120   5.095   0.847   3.337 -0.1092 -0.4606  0.0049
 2056TIP3    H1 6121   5.127   0.771   3.287  0.0750 -0.8162  0.6620
 2056TIP3    H2 6122   5.014   0.816   3.377 -0.9269  0.2217 -1.0935
 2057TIP3   OH2 6123   0.041   0.261   1.658  0.1527 -0.1489 -0.8600
 2057TIP3    H1 6124   0.112   0.247   1.596  0.4839  0.8479 -0.7120
 2057TIP3    H2 6125   0.003   0.345   1.633 -0.8546 -0.5794 -0.8177
 2058TIP3   OH2 6126   3.601   6.990   1.716  0.4059 -0.4612  0.3592
 2058TIP3    H1 6127   3.525   7.047   1.707 -0.7595 -2.1457 -0.7852
 2058TIP3    H2 6128   3.592   6.952   1.803  0.7438  0.4492  0.8003
 2059TIP3   OH2 6129   3.419   1.308   5.368 -0.1040 -0.2795  0.4100
 2059TIP3    H1 6130   3.465   1.330   5.287  0.8611 -1.7702  0.5316
 2059TIP3    H2 6131   3.481   1.328   5.437 -1.1079  1.4498  0.8164
 2060TIP3   OH2 6132   5.019   5.934   5.270  0.7797 -0.2923  0.3110
 2060TIP3    H1 6133   5.014   6.013   5.217 -1.6649 -1.5039 -1.3046
 2060TIP3    H2 6134   5.023   5.966   5.360 -0.7953  1.6605 -0.2926
 2061TIP3   OH2 6135   6.439   2.112   0.966 -0.2816  0.1536 -0.6781
 2061TIP3    H1 6136   6.369   2.061   1.007 -1.4160  3.1012  1.3020
 2061TIP3    H2 6137   6.404   2.135   0.880 -1.1789  0.4116 -0.2543
 2062TIP3   OH2 6138   6.048   0.281   3.791  0.3016 -0.8150  0.2270
 2062TIP3    H1 6139   6.076   0.239   3.873  0.6866  0.2159  0.6318
 2062TIP3    H2 6140   6.057   0.374   3.807  0.0292 -0.5853 -0.8783
 2063TIP3   OH2 6141   7.606   0.338   2.337  0.5414 -0.3054  0.0093
 2063TIP3    H1 6142   7.684   0.289   2.310 -1.0939 -2.7538 -0.2960
 2063TIP3    H2 6143   7.533   0.279   2.322 -1.2951  1.5307  1.4420
 2064TIP3   OH2 6144   3.706   7.337   2.702 -0.0641  0.6732  0.1085
 2064TIP3    H1 6145   3.794   7.316   2.670  0.0694  0.4875  0.5994
 2064TIP3    H2 6146   3.713   7.426   2.735  0.0890  0.4413  0.7021
 2065TIP3   OH2 6147   7.158   1.110   3.068 -0.0743 -0.5338 -0.8130
 2065TIP3    H1 6148   7.215   1.152   3.004 -0.4636  0.6018 -0.4356
 2065TIP3    H2 6149   7.100   1.180   3.098  1.1631 -0.6295  1.9852
 2066TIP3   OH2 6150   2.703   6.665   5.011 -0.1635 -0.3776  0.8980
 2066TIP3    H1 6151   2.644   6.620   5.072 -0.2283 -0.7657  0.5512
 2066TIP3    H2 6152   2.723   6.599   4.944  1.0060 -0.3883  1.2484
 2067TIP3   OH2 6153   3.579   7.182   2.445 -0.2305 -0.4067 -0.5220
 2067TIP3    H1 6154   3.627   7.265   2.450 -1.1565  0.0903  0.4163
 2067TIP3    H2 6155   3.516   7.195   2.375 -1.2347  0.1650  0.4623
 2068TIP3   OH2 6156   6.572   1.100   1.557  0.0958  0.2431  0.0851
 2068TIP3    H1 6157   6.624   1.151   1.619  0.2882  2.3095 -1.7261
 2068TIP3    H2 6158   6.482   1.108   1.587  0.1920  1.2286  0.1166
 2069TIP3   OH2 6159   3.462   5.986   3.321  0.6960 -0.0022 -0.4767
 2069TIP3    H1 6160   3.400   6.055   3.296  1.2085  0.9454  0.8349
 2069TIP3    H2 6161   3.407   5.909   3.335 -0.0857  0.5913 -0.2514
 2070TIP3   OH2 6162   2.401   5.099   1.256  0.1643 -0.4360 -0.2477
 2070TIP3    H1 6163   2.430   5.190   1.260 -0.0638 -0.3145 -1.3655
 2070TIP3    H2 6164   2.410   5.068   1.346  1.5020  0.2976 -0.1179
 2071TIP3   OH2 6165   4.494   6.936   2.627 -0.0351  0.3794 -0.1976
 2071TIP3    H1 6166   4.428   6.868   2.613  2.5751 -2.1605 -0.6615
 2071TIP3    H2 6167   4.498   6.946   2.722  1.1419 -1.8127  0.0201
 2072TIP3   OH2 6168   4.290   6.803   3.221  0.0026  0.2695  0.0552
 2072TIP3    H1 6169   4.363   6.864   3.212  1.0213 -0.7927  0.9480
 2072TIP3    H2 6170   4.247   6.828   3.303 -0.1818  0.4019 -0.0793
 2073TIP3   OH2 6171   6.808   0.682   2.475 -0.3549  0.0573 -0.2218
 2073TIP3    H1 6172   6.801   0.676   2.570 -0.3823  1.0518 -0.1562
 2073TIP3    H2 6173   6.823   0.592   2.446  0.2618 -0.1659  0.7768
 2074TIP3   OH2 6174   7.281   1.196   3.902  0.4047  0.2613  0.1580
 2074TIP3    H1 6175   7.374   1.181   3.918  0.5798  1.6462  0.5164
 2074TIP3    H2 6176   7.253   1.123   3.847  1.5447 -0.5248  0.6204
 2075TIP3   OH2 6177   3.429   7.440   2.023 -0.2612  0.0035 -0.0517
 2075TIP3    H1 6178   3.524   7.449   2.021 -0.3163  0.5865 -0.1031
 2075TIP3    H2 6179   3.408   7.390   1.944 -0.1979  1.8006 -1.2290
 2076TIP3   OH2 6180   5.503   0.428   1.499 -0.0800 -0.1542  0.5337
 2076TIP3    H1 6181   5.498   0.506   1.554 -2.1618 -0.6597  1.1063
 2076TIP3    H2 6182   5.433   0.439   1.435 -0.6629 -1.7257  0.8746
 2077TIP3   OH2 6183   4.312   5.955   4.085  0.2715 -0.1927  0.2734
 2077TIP3    H1 6184   4.316   6.032   4.028 -1.6443  0.4904  1.0193
 2077TIP3    H2 6185   4.321   5.881   4.026 -1.0137  0.5261 -0.8519
 2078TIP3   OH2 6186   5.568   6.870   2.665  0.0335 -1.0602 -0.3239
 2078TIP3    H1 6187   5.612   6.919   2.734 -1.4554 -0.6948  0.3912
 2078TIP3    H2 6188   5.595   6.913   2.583  0.5016 -0.4676  0.1387
 2079TIP3   OH2 6189   0.879   2.267   3.309 -0.0034  0.2370  0.0044
 2079TIP3    H1 6190   0.784   2.278   3.316  0.0914  0.5268  0.8911
 2079TIP3    H2 6191   0.914   2.315   3.384  0.6578 -2.6819  1.6606
 2080TIP3   OH2 6192   4.390   1.059   2.578 -0.0126  0.1147  0.1311
 2080TIP3    H1 6193   4.404   0.979   2.628 -1.0948  0.1121  0.4510
 2080TIP3    H2 6194   4.330   1.111   2.633  1.3555  1.5132  0.3366
 2081TIP3   OH2 6195   7.344   0.345   1.870 -0.4952  0.1319 -0.0155
 2081TIP3    H1 6196   7.351   0.441   1.870 -0.1340  0.1135 -0.7423
 2081TIP3    H2 6197   7.435   0.315   1.873 -0.6215 -0.1915  0.5164
 2082TIP3   OH2 6198   7.434   2.078   3.829 -0.4039 -0.3187  0.3111
 2082TIP3    H1 6199   7.371   2.148   3.845 -0.9004 -0.4812 -0.8428
 2082TIP3    H2 6200   7.389   1.998   3.856 -1.0857 -0.5453 -1.4090
 2083TIP3   OH2 6201   5.815   2.426   2.602 -0.1142  0.3527 -0.5128
 2083TIP3    H1 6202   5.721   2.445   2.595 -0.1762  0.0347 -0.6052
 2083TIP3    H2 6203   5.822   2.365   2.675  0.2298  1.6906  0.5752
 2084TIP3   OH2 6204   6.852   2.161   2.373 -0.2603 -0.2720 -0.4447
 2084TIP3    H1 6205   6.910   2.226   2.333 -1.0621  0.8943  0.2739
 2084TIP3    H2 6206   6.899   2.133   2.452 -0.7603  0.8027  0.2312
 2085TIP3   OH2 6207   5.563   5.992   4.800 -0.1849 -0.4945 -0.5233
 2085TIP3    H1 6208   5.539   6.082   4.779  0.8262 -0.3184 -0.9301
 2085TIP3    H2 6209   5.614   5.962   4.724  2.6978 -0.1640  1.2398
 2086TIP3   OH2 6210   6.537   1.766   4.471 -0.3844  0.6555 -0.4731
 2086TIP3    H1 6211   6.485   1.799   4.398  0.4883 -0.0935 -1.4461
 2086TIP3    H2 6212   6.499   1.808   4.549 -2.8597 -0.3686 -1.0863
 2087TIP3   OH2 6213   7.847   1.524   0.870 -0.3089  0.2993  0.3656
 2087TIP3    H1 6214   7.892   1.602   0.837  0.2089 -0.1710 -0.0522
 2087TIP3    H2 6215   7.887   1.508   0.955  0.6234 -0.3685 -0.1928
 2088TIP3   OH2 6216   6.135   0.020   0.865 -0.7700  0.2720  0.0811
 2088TIP3    H1 6217   6.110   0.061   0.948 -2.1891 -1.1519  0.3626
 2088TIP3    H2 6218   6.114  -0.072   0.876  1.0465 -0.3081 -1.0936
 2089TIP3   OH2 6219   5.347   2.553   5.242  0.1297  0.4135 -0.3435
 2089TIP3    H1 6220   5.289   2.477   5.234 -0.3030  0.6649  0.3083
 2089TIP3    H2 6221   5.374   2.553   5.334  1.8925 -0.2153 -0.8543
 2090TIP3   OH2 6222   6.481   4.219   1.020  0.3299  0.2274  0.4066
 2090TIP3    H1 6223   6.440   4.157   1.081 -0.4195  0.7941  0.4781
 2090TIP3    H2 6224   6.410   4.279   0.996  0.6812  0.1593 -0.8225
 2091TIP3   OH2 6225   6.330   1.194   1.683 -0.0368  0.9576  0.2345
 2091TIP3    H1 6226   6.264   1.260   1.704  1.2796  2.7119 -1.0271
 2091TIP3    H2 6227   6.386   1.190   1.761 -0.6122  0.7135  0.6364
 2092TIP3   OH2 6228   5.234   6.469   3.601  0.3483  0.1007 -0.4537
 2092TIP3    H1 6229   5.324   6.498   3.590  0.4595 -0.8318 -2.2069
 2092TIP3    H2 6230   5.237   6.412   3.678  0.8532  1.6272  0.6849
 2093TIP3   OH2 6231   6.492   2.070   2.096 -0.0986  0.1485 -0.5272
 2093TIP3    H1 6232   6.464   1.985   2.130  0.1884  1.3118  2.8277
 2093TIP3    H2 6233   6.587   2.067   2.101 -0.1100  0.8847  0.2400
 2094TIP3   OH2 6234   6.596   1.569   3.897  0.1012  0.0157 -0.1693
 2094TIP3    H1 6235   6.584   1.477   3.922 -2.1139 -0.0201 -1.2249
 2094TIP3    H2 6236   6.625   1.612   3.978 -1.0096 -1.2070  0.9162
 2095TIP3   OH2 6237   5.407   6.402   1.676 -0.6404 -0.7552  0.3524
 2095TIP3    H1 6238   5.448   6.363   1.598 -2.5405 -0.6899 -0.7059
 2095TIP3    H2 6239   5.479   6.446   1.721  0.2103  0.5479 -2.1947
 2096TIP3   OH2 6240   5.090   2.189   3.068 -0.1311  0.1666  0.3167
 2096TIP3    H1 6241   5.039   2.176   3.148 -0.6799  0.4383  0.0068
 2096TIP3    H2 6242   5.032   2.162   2.997  0.1966  0.3565 -0.0252
 2097TIP3   OH2 6243   5.378   2.049   2.416  0.0436 -0.0121  0.3827
 2097TIP3    H1 6244   5.402   2.021   2.328 -1.0782  0.2677 -0.0141
 2097TIP3    H2 6245   5.392   1.972   2.471  0.6491 -0.2121 -0.0530
 2098TIP3   OH2 6246   2.667   6.628   2.241  0.5262 -0.2346 -0.2661
 2098TIP3    H1 6247   2.660   6.710   2.192 -1.4765  0.2455  0.7554
 2098TIP3    H2 6248   2.706   6.654   2.324 -1.8810  0.0806  0.8287
 2099TIP3   OH2 6249   7.374   2.965   4.138  0.2531  0.6949  0.5435
 2099TIP3    H1 6250   7.455   3.004   4.105  0.2452 -0.1311 -0.4566
 2099TIP3    H2 6251   7.356   2.893   4.079 -0.7203  0.2924  1.3178
 2100TIP3   OH2 6252   5.766   1.984   2.140  0.3958 -0.4517 -0.3879
 2100TIP3    H1 6253   5.704   1.950   2.204 -0.3587  0.1220 -0.8086
 2100TIP3    H2 6254   5.715   1.996   2.060  1.1651 -0.4792 -0.8875
 2101TIP3   OH2 6255   6.825   2.077   1.474  0.1391 -0.3417 -0.0623
 2101TIP3    H1 6256   6.897   2.072   1.536 -1.3161  1.0046  1.8239
 2101TIP3    H2 6257   6.758   2.019   1.510 -0.8794  0.7599 -0.1210
 2102TIP3   OH2 6258   4.088   4.621   0.924  0.2523 -0.7665  0.0579
 2102TIP3    H1 6259   4.119   4.537   0.959  1.0210  0.3661  2.2072
 2102TIP3    H2 6260   4.161   4.681   0.935 -1.0843  0.7865  0.8079
 2103TIP3   OH2 6261   4.118   0.255   4.088  0.0449  0.4251  0.4077
 2103TIP3    H1 6262   4.065   0.213   4.021  1.5009  1.8538 -1.7138
 2103TIP3    H2 6263   4.090   0.215   4.170 -2.0361 -1.1011 -1.0054
 2104TIP3   OH2 6264   5.076   2.527   2.045 -0.0248  0.4208 -0.5186
 2104TIP3    H1 6265   5.163   2.489   2.053  0.2908  0.8167 -1.9664
 2104TIP3    H2 6266   5.039   2.487   1.966 -1.6167 -0.6323  0.7185
 2105TIP3   OH2 6267   7.352   2.404   3.900 -0.5712  0.3656  0.5209
 2105TIP3    H1 6268   7.380   2.421   3.810 -0.3462 -0.4471  0.4283
 2105TIP3    H2 6269   7.353   2.490   3.943  0.0376  0.6489 -0.0536
 2106TIP3   OH2 6270   7.025   0.046   0.758  0.2100 -0.0184  0.2362
 2106TIP3    H1 6271   7.116   0.032   0.784  0.3465 -0.3178 -0.3980
 2106TIP3    H2 6272   7.024   0.030   0.664 -0.5545 -0.2794  0.2869
 2107TIP3   OH2 6273   3.575   6.488   1.850 -0.3341  0.2392  0.0706
 2107TIP3    H1 6274   3.543   6.424   1.787 -0.3843  0.9510 -0.6504
 2107TIP3    H2 6275   3.637   6.541   1.799  0.5360  0.0641  0.9418
 2108TIP3   OH2 6276   1.249   1.869   1.452 -0.0816 -0.0863  0.0516
 2108TIP3    H1 6277   1.317   1.835   1.509  0.6646  0.7161 -0.3593
 2108TIP3    H2 6278   1.211   1.791   1.411 -0.7630 -0.6808  1.7708
 2109TIP3   OH2 6279   6.323   1.528   2.853 -0.5204 -0.6620  0.4650
 2109TIP3    H1 6280   6.380   1.587   2.802  2.1171 -2.7539  0.9038
 2109TIP3    H2 6281   6.255   1.586   2.887 -0.9325  1.2595 -3.2849
 2110TIP3   OH2 6282   7.103   3.465   3.440  0.2880  0.2023  0.0095
 2110TIP3    H1 6283   7.182   3.473   3.494 -0.6952 -0.3189  1.5356
 2110TIP3    H2 6284   7.135   3.478   3.350  2.2651 -0.9156  0.5100
 2111TIP3   OH2 6285   5.792   0.825   3.991 -0.5751 -0.7244 -0.2818
 2111TIP3    H1 6286   5.806   0.731   3.977  0.4988 -0.4046 -1.4798
 2111TIP3    H2 6287   5.697   0.835   3.995 -0.7847 -1.5109 -2.7694
 2112TIP3   OH2 6288   5.586   2.065   1.954  0.1354 -0.4797 -0.1009
 2112TIP3    H1 6289   5.500   2.103   1.974  1.0326  1.8487 -0.5380
 2112TIP3    H2 6290   5.572   2.018   1.871 -0.6780  0.0440 -0.2711
 2113TIP3   OH2 6291   6.887   3.688   2.732 -0.3830  0.2051 -0.2060
 2113TIP3    H1 6292   6.793   3.684   2.750 -0.1824  0.2850  0.8528
 2113TIP3    H2 6293   6.893   3.738   2.650 -1.3161 -0.5510 -0.7606
 2114TIP3   OH2 6294   3.384   6.214   2.455 -0.1447 -0.0732 -0.1310
 2114TIP3    H1 6295   3.337   6.262   2.387  0.7621 -1.4472 -1.7744
 2114TIP3    H2 6296   3.403   6.280   2.522  0.7140  1.7735 -2.1374
 2115TIP3   OH2 6297   3.405   7.349   4.022  0.1051 -0.1459  0.8064
 2115TIP3    H1 6298   3.344   7.422   4.014 -0.2910 -0.4297  1.2203
 2115TIP3    H2 6299   3.482   7.377   3.973 -0.1839  0.4018  0.6621
 2116TIP3   OH2 6300   0.151   1.072   0.261 -0.0496 -0.2575  0.0252
 2116TIP3    H1 6301   0.204   1.073   0.182  1.5576  0.6770  1.0923
 2116TIP3    H2 6302   0.197   1.013   0.320 -1.2053 -0.9046  0.2795
 2117TIP3   OH2 6303   7.698   2.123   4.629  0.0845 -0.8329  0.0348
 2117TIP3    H1 6304   7.721   2.208   4.591  1.0943 -1.3154 -0.4488
 2117TIP3    H2 6305   7.630   2.089   4.572 -1.0779  0.1132  0.8329
 2118TIP3   OH2 6306   7.592   0.978   2.690 -0.2893 -0.3693 -0.0882
 2118TIP3    H1 6307   7.599   1.072   2.707 -0.8480 -0.4716  0.7299
 2118TIP3    H2 6308   7.507   0.967   2.649 -0.0671 -0.4728 -0.5237
 2119TIP3   OH2 6309   3.845   7.114   3.884  0.1896 -0.0230  0.3271
 2119TIP3    H1 6310   3.784   7.084   3.952  0.3392 -0.5721  0.2283
 2119TIP3    H2 6311   3.928   7.127   3.929  0.4174 -0.8587  0.1778
 2120TIP3   OH2 6312   3.973   7.021   2.517  0.0316 -0.0581 -0.2425
 2120TIP3    H1 6313   3.887   6.988   2.543 -0.0174  0.4614  0.2452
 2120TIP3    H2 6314   4.023   7.028   2.598  0.1153  0.8591 -0.3705
 2121TIP3   OH2 6315   4.393   7.275   0.168 -0.1811  0.1678 -0.1815
 2121TIP3    H1 6316   4.384   7.311   0.079  0.0961 -2.0266 -1.1314
 2121TIP3    H2 6317   4.304   7.281   0.204 -0.3451  0.8667 -0.6751
 2122TIP3   OH2 6318   7.569   3.217   2.142 -0.3935  0.2007  0.3175
 2122TIP3    H1 6319   7.492   3.190   2.192 -0.7638 -0.3292 -0.5434
 2122TIP3    H2 6320   7.632   3.145   2.154 -0.4921  0.0601  0.0053
 2123TIP3   OH2 6321   6.466   2.557   4.334 -0.6031  0.6443 -0.3845
 2123TIP3    H1 6322   6.423   2.600   4.407 -0.3901 -0.1830  0.2449
 2123TIP3    H2 6323   6.448   2.464   4.347 -0.7619  0.5024 -1.5216
 2124TIP3   OH2 6324   6.015   0.778   3.614 -0.2929  0.0806  0.0646
 2124TIP3    H1 6325   6.050   0.727   3.687  0.5379  1.8137  0.9230
 2124TIP3    H2 6326   5.957   0.718   3.568 -1.2741 -0.9092  2.4836
 2125TIP3   OH2 6327   5.186   7.376   4.929 -0.3355 -0.3797  0.3170
 2125TIP3    H1 6328   5.270   7.392   4.973  0.0053  1.8892 -1.0859
 2125TIP3    H2 6329   5.135   7.328   4.994  1.7338 -1.0591  1.5232
 2126TIP3   OH2 6330   0.439   1.065   2.699  0.0511 -0.2692 -0.3742
 2126TIP3    H1 6331   0.446   1.010   2.777 -1.7745  0.4936  0.3395
 2126TIP3    H2 6332   0.526   1.106   2.691  0.7642 -1.6215  0.2777
 2127TIP3   OH2 6333   4.285   5.950   0.305 -0.2408  1.2143 -0.5786
 2127TIP3    H1 6334   4.221   5.897   0.353  0.7185 -0.1957 -0.8303
 2127TIP3    H2 6335   4.232   6.017   0.262 -1.3375  1.2689  0.7923
 2128TIP3   OH2 6336   4.812   6.875   4.988 -0.0614  0.1677  0.0129
 2128TIP3    H1 6337   4.756   6.860   4.911  0.8853 -4.2503  0.0817
 2128TIP3    H2 6338   4.764   6.833   5.060  0.6872  1.3055  1.1825
 2129TIP3   OH2 6339   3.773   7.040   3.003  0.4503  0.2832 -0.3682
 2129TIP3    H1 6340   3.696   7.032   3.059  1.8987 -3.3071  1.2622
 2129TIP3    H2 6341   3.828   7.105   3.047 -0.2089  0.4578  0.2066
 2130TIP3   OH2 6342   6.458   1.029   3.444 -0.2471  0.5821 -0.4890
 2130TIP3    H1 6343   6.397   0.956   3.441  0.4569 -0.0498  0.3971
 2130TIP3    H2 6344   6.455   1.066   3.356  0.5017 -1.4389 -1.3891
 2131TIP3   OH2 6345   6.745   1.244   1.704 -0.4064 -0.0523 -0.0532
 2131TIP3    H1 6346   6.836   1.217   1.695 -0.7440 -0.5844 -2.0915
 2131TIP3    H2 6347   6.748   1.340   1.706  0.1165 -0.0475 -1.1274
 2132TIP3   OH2 6348   6.382   0.278   0.465  0.0807  0.0769  0.0094
 2132TIP3    H1 6349   6.316   0.210   0.475  1.6649 -1.2187  2.2996
 2132TIP3    H2 6350   6.460   0.231   0.435  0.9736  0.9815  0.8731
 2133TIP3   OH2 6351   6.287   0.607   2.827 -0.4205  0.0437  0.1126
 2133TIP3    H1 6352   6.297   0.656   2.745 -1.5253  0.7816  0.4109
 2133TIP3    H2 6353   6.296   0.515   2.802  2.4499  0.4060 -0.3440
 2134TIP3   OH2 6354   7.108   1.056   3.364 -0.1891  0.6662  0.2653
 2134TIP3    H1 6355   7.125   1.124   3.299 -4.0430  0.8987 -0.6592
 2134TIP3    H2 6356   7.115   0.974   3.315 -3.1139  0.8423 -0.5514
 2135TIP3   OH2 6357   7.793   1.283   4.666 -0.0810  0.0319  0.1159
 2135TIP3    H1 6358   7.722   1.326   4.713  0.6820  0.5689  0.7847
 2135TIP3    H2 6359   7.850   1.247   4.735  0.2981 -0.3961 -0.4101
 2136TIP3   OH2 6360   0.233   0.285   0.934 -0.1214 -1.0415 -0.5566
 2136TIP3    H1 6361   0.243   0.223   0.862 -0.9753 -0.4167 -1.2254
 2136TIP3    H2 6362   0.172   0.351   0.900  1.3987  0.6031 -0.1714
 2137TIP3   OH2 6363   6.914   1.415   2.893  0.3261  0.7290 -0.0887
 2137TIP3    H1 6364   6.939   1.390   2.982 -1.0629  0.7267  0.3046
 2137TIP3    H2 6365   6.939   1.507   2.887 -2.3543  1.6219  1.3723
 2138TIP3   OH2 6366   6.403   0.470   2.381 -0.0440  0.2776  0.5691
 2138TIP3    H1 6367   6.429   0.562   2.389 -1.4243  1.0064 -2.5027
 2138TIP3    H2 6368   6.476   0.421   2.418  1.2091  2.5510  1.2405
 2139TIP3   OH2 6369   7.140   1.981   2.098  0.1244 -0.6890 -0.2970
 2139TIP3    H1 6370   7.096   1.925   2.035 -0.7007 -0.8703  0.4421
 2139TIP3    H2 6371   7.085   2.060   2.103 -0.0156 -0.8318  0.4745
 2140TIP3   OH2 6372   4.589   2.312   2.984 -0.2437  0.3735 -0.4358
 2140TIP3    H1 6373   4.580   2.406   2.971  0.5984  0.3887 -0.9354
 2140TIP3    H2 6374   4.669   2.288   2.937 -0.1366 -0.4942  0.1655
 2141TIP3   OH2 6375   3.814   0.599   4.153  0.4457  0.4294 -0.0468
 2141TIP3    H1 6376   3.752   0.603   4.226  0.0886  2.8277 -0.4359
 2141TIP3    H2 6377   3.759   0.605   4.075  0.9676 -0.3464 -0.4809
 2142TIP3   OH2 6378   7.333   0.022   1.965  0.9449 -0.1839 -0.0892
 2142TIP3    H1 6379   7.296   0.027   1.877  1.6586 -0.9611 -0.4365
 2142TIP3    H2 6380   7.277   0.079   2.018 -0.4663 -0.9738 -0.7050
 2143TIP3   OH2 6381   4.528   6.483   3.731 -0.3608  0.1467  0.1315
 2143TIP3    H1 6382   4.466   6.428   3.683  0.6589  0.2758 -1.3708
 2143TIP3    H2 6383   4.612   6.469   3.686  0.2140  1.7927  0.6617
 2144TIP3   OH2 6384   4.730   1.697   2.399 -0.1103  0.0627  0.2849
 2144TIP3    H1 6385   4.644   1.671   2.432 -0.7437  0.8665 -0.6868
 2144TIP3    H2 6386   4.765   1.617   2.359 -0.9862  0.0606 -0.5012
 2145TIP3   OH2 6387   6.743   1.368   3.689 -0.1741  0.3978 -0.7842
 2145TIP3    H1 6388   6.747   1.462   3.673 -0.8786  0.4963 -0.4057
 2145TIP3    H2 6389   6.793   1.329   3.617  0.9075  1.1085 -0.4307
 2146TIP3   OH2 6390   6.382   3.884   3.970 -0.5720  0.6267  0.1269
 2146TIP3    H1 6391   6.350   3.893   3.880 -1.7264 -0.3819  0.4364
 2146TIP3    H2 6392   6.477   3.872   3.960 -0.2849  3.2826 -0.8024
 2147TIP3   OH2 6393   0.508   3.369   2.762  0.0510 -0.0505 -0.1339
 2147TIP3    H1 6394   0.516   3.368   2.857  0.6292  0.3080 -0.1746
 2147TIP3    H2 6395   0.590   3.409   2.731 -0.9049  1.5410 -0.6790
 2148TIP3   OH2 6396   6.726   1.309   3.284 -0.0875 -0.3313 -0.2661
 2148TIP3    H1 6397   6.791   1.359   3.234 -0.3149 -0.5746 -0.8122
 2148TIP3    H2 6398   6.700   1.367   3.355  0.1779  0.0493 -0.4784
 2149TIP3   OH2 6399   7.477   2.684   2.208 -0.0226  0.0824  0.8386
 2149TIP3    H1 6400   7.466   2.692   2.113  1.1652 -1.5787  0.5512
 2149TIP3    H2 6401   7.570   2.667   2.221 -0.0552  0.9302  2.3632
 2150TIP3   OH2 6402   0.709   2.961   2.014  0.3539  0.1679  0.6079
 2150TIP3    H1 6403   0.755   2.960   2.097  1.5582 -0.1809 -0.0548
 2150TIP3    H2 6404   0.704   3.054   1.990  2.4482  0.0734 -0.2572
 2151TIP3   OH2 6405   7.248   2.620   1.681 -0.1590  0.1993  0.3733
 2151TIP3    H1 6406   7.321   2.661   1.727 -1.2902  1.6132  0.9381
 2151TIP3    H2 6407   7.254   2.654   1.591 -0.1507  0.3408  0.4278
 2152TIP3   OH2 6408   6.809   3.423   5.303  0.4735 -0.4114  0.1954
 2152TIP3    H1 6409   6.813   3.487   5.232 -2.7035  1.0398  1.2560
 2152TIP3    H2 6410   6.824   3.339   5.260  3.3734  0.8539 -1.4079
 2153TIP3   OH2 6411   5.950   1.340   3.648 -0.0245  0.0107  0.1177
 2153TIP3    H1 6412   5.921   1.415   3.595 -1.7190 -0.4492  0.3636
 2153TIP3    H2 6413   5.885   1.334   3.718  0.7482 -0.9941  0.7479
 2154TIP3   OH2 6414   7.789   0.700   2.141  0.1025  0.4110 -0.3857
 2154TIP3    H1 6415   7.837   0.678   2.221 -0.5824 -3.5036 -0.9190
 2154TIP3    H2 6416   7.847   0.759   2.093  1.4347  1.1356  2.0312
 2155TIP3   OH2 6417   6.563   0.747   2.965  0.2464  0.7719 -1.1349
 2155TIP3    H1 6418   6.597   0.776   3.050 -1.3838  1.8714 -0.8440
 2155TIP3    H2 6419   6.550   0.827   2.915 -2.1376  0.4223 -1.1410
 2156TIP3   OH2 6420   3.622   1.335   3.979  0.0321 -0.4452 -0.0315
 2156TIP3    H1 6421   3.683   1.262   3.979 -0.1417 -0.6077  1.3201
 2156TIP3    H2 6422   3.651   1.390   4.052 -0.2844  0.4547 -0.5754
 2157TIP3   OH2 6423   7.223   0.435   2.519  0.1602 -0.1461  0.5119
 2157TIP3    H1 6424   7.292   0.395   2.467  0.4305  1.0871 -0.1147
 2157TIP3    H2 6425   7.146   0.380   2.505  0.4395 -0.2736 -0.5697
 2158TIP3   OH2 6426   3.790   6.140   3.980  0.0123 -0.5569  0.6731
 2158TIP3    H1 6427   3.734   6.138   3.902  2.5509 -0.8060 -1.1802
 2158TIP3    H2 6428   3.872   6.099   3.953  3.1086  4.4943  1.7430
 2159TIP3   OH2 6429   2.830   7.221   3.357 -0.3542  0.2158  0.2786
 2159TIP3    H1 6430   2.863   7.158   3.420 -0.4669 -0.2737 -0.1450
 2159TIP3    H2 6431   2.842   7.306   3.399 -0.3250 -0.0960  0.9052
 2160TIP3   OH2 6432   7.857   2.121   2.358  0.0409  0.0442 -0.2853
 2160TIP3    H1 6433   7.887   2.141   2.269 -0.1954 -0.1743 -0.4126
 2160TIP3    H2 6434   7.761   2.121   2.351 -0.0320  1.9980  0.3788
 2161TIP3   OH2 6435   7.496   1.391   1.879 -0.3963  0.0144 -0.0364
 2161TIP3    H1 6436   7.552   1.392   1.801 -1.6385  2.6363 -0.9471
 2161TIP3    H2 6437   7.554   1.419   1.950 -0.0047  0.6001 -0.5795
 2162TIP3   OH2 6438   1.734   3.148   3.618  0.5158  0.6050  0.2497
 2162TIP3    H1 6439   1.703   3.183   3.702 -1.0929  2.1995 -0.9650
 2162TIP3    H2 6440   1.676   3.074   3.600  0.8488  0.2746  0.5170
 2163TIP3   OH2 6441   0.256   2.500   2.917 -0.2832 -0.0842 -0.0079
 2163TIP3    H1 6442   0.330   2.444   2.943  0.4916  0.7224 -0.4622
 2163TIP3    H2 6443   0.274   2.524   2.827 -1.9303 -1.1811 -0.6601
 2164TIP3   OH2 6444   7.583   3.686   3.596 -0.3771 -0.3335 -0.1280
 2164TIP3    H1 6445   7.573   3.777   3.569  0.7143 -0.3611 -0.6360
 2164TIP3    H2 6446   7.653   3.651   3.540  0.6095 -0.9234  1.4405
 2165TIP3   OH2 6447   1.784   2.883   5.123  0.4626 -0.0815  0.1480
 2165TIP3    H1 6448   1.710   2.843   5.077 -0.7683  0.7019  1.3957
 2165TIP3    H2 6449   1.860   2.830   5.098 -0.1150  0.5053 -2.9736
 2166TIP3   OH2 6450   0.329   1.971   3.468  0.5737  0.1673 -0.0833
 2166TIP3    H1 6451   0.414   1.927   3.468  0.3897 -0.1840  0.4209
 2166TIP3    H2 6452   0.350   2.063   3.451  1.0772  0.1365  0.3635
 2167TIP3   OH2 6453   0.075   4.401   4.601  0.1058  0.2264 -0.0377
 2167TIP3    H1 6454   0.094   4.475   4.543 -1.8886  0.7887 -0.0277
 2167TIP3    H2 6455   0.111   4.325   4.556 -0.8316  0.7448 -1.7007
 2168TIP3   OH2 6456   0.223   1.925   1.479 -0.2470  0.2659 -0.4652
 2168TIP3    H1 6457   0.173   2.005   1.466 -0.2479  0.1905 -0.9432
 2168TIP3    H2 6458   0.270   1.938   1.561 -0.9276  0.4050 -0.0890
 2169TIP3   OH2 6459   0.833   0.120   3.463  0.3602  0.2991 -0.0336
 2169TIP3    H1 6460   0.907   0.059   3.453 -0.4956 -1.0360  1.4622
 2169TIP3    H2 6461   0.797   0.099   3.549 -3.2601 -0.7709 -1.7271
 2170TIP3   OH2 6462   0.760   3.276   4.669 -0.2263 -0.2833  0.5313
 2170TIP3    H1 6463   0.812   3.252   4.745  0.8110  2.0131  0.5711
 2170TIP3    H2 6464   0.722   3.193   4.639  2.5274 -1.8245  1.1552
 2171TIP3   OH2 6465   7.690   2.349   3.342  0.0114  0.0433  0.4918
 2171TIP3    H1 6466   7.760   2.316   3.397  1.5135 -0.8036 -1.8600
 2171TIP3    H2 6467   7.733   2.373   3.259 -2.8263 -3.4317 -2.1720
 2172TIP3   OH2 6468   6.131   2.664   3.827 -0.1652  0.4392  0.1266
 2172TIP3    H1 6469   6.179   2.583   3.839 -0.6731  0.1930  0.5201
 2172TIP3    H2 6470   6.148   2.690   3.737 -0.1929 -0.2253 -0.0677
 2173TIP3   OH2 6471   2.784   0.921   1.525  0.1406  0.0986  0.2922
 2173TIP3    H1 6472   2.867   0.935   1.481  0.0328  1.2616  0.4470
 2173TIP3    H2 6473   2.776   0.826   1.532  1.2440 -0.0270 -0.1170
 2174TIP3   OH2 6474   7.563   1.471   0.393  0.2040 -0.0449  0.6521
 2174TIP3    H1 6475   7.567   1.434   0.481  0.9085  0.3571  0.7981
 2174TIP3    H2 6476   7.548   1.396   0.336 -0.1873 -0.3149  1.1082
 2175TIP3   OH2 6477   6.564   1.049   1.146 -0.1680  0.0323 -0.3495
 2175TIP3    H1 6478   6.599   1.124   1.194 -0.4230 -0.3142  0.3812
 2175TIP3    H2 6479   6.559   0.979   1.211 -2.6918  0.2070 -0.3155
 2176TIP3   OH2 6480   1.489   3.283   4.546 -0.5492 -0.0968 -0.4882
 2176TIP3    H1 6481   1.550   3.287   4.473  1.5060  0.4368  1.2163
 2176TIP3    H2 6482   1.444   3.199   4.535  0.8011 -0.7066 -1.5362
 2177TIP3   OH2 6483   7.701   0.924   4.229 -0.5077 -0.0221 -0.5910
 2177TIP3    H1 6484   7.725   0.971   4.309 -2.7301 -1.4676  1.0001
 2177TIP3    H2 6485   7.635   0.980   4.187 -0.4794  0.0147 -0.5854
 2178TIP3   OH2 6486   7.592   2.369   2.696  0.2776 -0.4998 -0.1877
 2178TIP3    H1 6487   7.657   2.426   2.655 -2.2274 -0.0212 -3.7313
 2178TIP3    H2 6488   7.560   2.419   2.771  1.5107  0.7080 -0.4449
 2179TIP3   OH2 6489   2.477   0.962   1.184 -0.2649  1.2524 -0.0684
 2179TIP3    H1 6490   2.486   0.976   1.278 -0.7897 -0.6188  0.2857
 2179TIP3    H2 6491   2.556   0.914   1.159  0.6383  3.1411 -0.8920
 2180TIP3   OH2 6492   4.510   1.169   3.385  0.3423 -0.0619  0.2758
 2180TIP3    H1 6493   4.526   1.083   3.425  0.0421  0.7854  2.2591
 2180TIP3    H2 6494   4.565   1.229   3.434 -1.3276  1.2705  0.5645
 2181TIP3   OH2 6495   6.861   0.691   3.415  0.1454  0.3411 -0.2605
 2181TIP3    H1 6496   6.876   0.784   3.403  1.4801  0.3493  1.3637
 2181TIP3    H2 6497   6.938   0.649   3.376 -0.6637 -0.1311 -1.4049
 2182TIP3   OH2 6498   5.652   7.243   4.805 -0.0800  0.4672 -0.5753
 2182TIP3    H1 6499   5.605   7.192   4.871 -0.0346 -0.3861 -1.1979
 2182TIP3    H2 6500   5.583   7.288   4.756 -0.2157 -0.2611 -1.0601
 2183TIP3   OH2 6501   3.707   2.191   3.241  0.4232 -0.1577  0.2581
 2183TIP3    H1 6502   3.794   2.157   3.265  0.2684  0.1831  1.3195
 2183TIP3    H2 6503   3.653   2.113   3.233  0.8340 -0.3777 -0.4580
 2184TIP3   OH2 6504   6.213   2.157   2.682 -0.1032 -0.1925 -0.5208
 2184TIP3    H1 6505   6.141   2.159   2.619 -1.1535 -0.6069  0.6582
 2184TIP3    H2 6506   6.250   2.069   2.674  1.1591  0.4337 -2.0711
 2185TIP3   OH2 6507   0.347   0.807   2.311  0.1945  0.5078 -0.5513
 2185TIP3    H1 6508   0.339   0.828   2.404  0.0046 -1.2260 -0.1569
 2185TIP3    H2 6509   0.328   0.889   2.266 -0.2011  1.2458  0.9265
 2186TIP3   OH2 6510   1.762   3.432   2.748 -0.4337  0.1869  0.4736
 2186TIP3    H1 6511   1.743   3.457   2.839  0.7548  1.1716  0.4650
 2186TIP3    H2 6512   1.839   3.375   2.755 -0.2400  0.3964  0.0768
 2187TIP3   OH2 6513   0.730   0.146   2.582 -0.2971  0.2528  0.0588
 2187TIP3    H1 6514   0.821   0.174   2.595 -0.2586  0.5695 -0.8871
 2187TIP3    H2 6515   0.737   0.053   2.560 -0.2720  0.0424  0.9282
 2188TIP3   OH2 6516   2.004   2.824   4.912  0.3301 -0.0645 -0.2435
 2188TIP3    H1 6517   2.084   2.873   4.896  0.2062  0.0731 -0.4528
 2188TIP3    H2 6518   2.027   2.761   4.981  0.7402 -0.3238 -0.6102
 2189TIP3   OH2 6519   1.504   2.102   2.071 -0.4695 -0.2868 -0.2999
 2189TIP3    H1 6520   1.574   2.052   2.113 -1.9653 -2.5586 -0.4014
 2189TIP3    H2 6521   1.491   2.178   2.128  2.1102  0.2057 -0.3290
 2190TIP3   OH2 6522   2.360   1.610   2.718  0.4922 -0.0823  0.0456
 2190TIP3    H1 6523   2.364   1.593   2.812 -0.6681 -1.7633 -0.1854
 2190TIP3    H2 6524   2.266   1.624   2.700  0.3607 -2.3881 -1.2660
 2191TIP3   OH2 6525   0.604   1.997   3.519  0.3374  0.0320  0.0253
 2191TIP3    H1 6526   0.646   1.912   3.537  0.0785 -0.0205  0.3900
 2191TIP3    H2 6527   0.656   2.034   3.448  1.5447  0.3525  1.0495
 2192TIP3   OH2 6528   4.439   3.998   0.330 -0.4254 -0.1449 -0.1956
 2192TIP3    H1 6529   4.411   4.017   0.420  0.8760 -1.5259  0.5357
 2192TIP3    H2 6530   4.378   3.932   0.299  0.6709 -1.5665  0.6200
 2193TIP3   OH2 6531   1.373   2.087   3.259  0.1787  0.2234 -0.1208
 2193TIP3    H1 6532   1.299   2.033   3.230  1.8953 -1.1482 -2.1539
 2193TIP3    H2 6533   1.362   2.094   3.353 -0.4769 -3.1711  0.1201
 2194TIP3   OH2 6534   0.120   2.542   4.381  0.4608 -0.0916 -0.0668
 2194TIP3    H1 6535   0.081   2.455   4.372  0.4042 -0.1022  0.2879
 2194TIP3    H2 6536   0.082   2.592   4.309 -0.4363 -0.0227  0.4474
 2195TIP3   OH2 6537   6.918   6.739   3.295 -0.0931 -0.1248  0.1541
 2195TIP3    H1 6538   7.012   6.752   3.286  0.3093 -3.3179 -0.8682
 2195TIP3    H2 6539   6.899   6.764   3.385  1.9601 -0.6986  0.7718
 2196TIP3   OH2 6540   0.656   1.438   4.561 -0.1448  0.0148  0.3537
 2196TIP3    H1 6541   0.564   1.431   4.586 -0.1470 -3.0399 -0.3362
 2196TIP3    H2 6542   0.691   1.505   4.619 -2.2868 -0.3207  2.1173
 2197TIP3   OH2 6543   0.746   5.200   4.194  0.1174 -0.2785  0.1811
 2197TIP3    H1 6544   0.819   5.259   4.209  0.4340 -0.3723 -0.9519
 2197TIP3    H2 6545   0.783   5.112   4.202 -0.5130 -0.3623  2.6566
 2198TIP3   OH2 6546   6.834   3.713   1.335  0.2408 -0.7543 -0.3982
 2198TIP3    H1 6547   6.906   3.743   1.279  0.3657  0.1138  0.2110
 2198TIP3    H2 6548   6.760   3.702   1.275  0.7387 -1.1769 -0.9503
 2199TIP3   OH2 6549   7.328   2.769   5.882 -0.0368  0.0853  0.2419
 2199TIP3    H1 6550   7.255   2.812   5.925 -0.5650 -1.7545  1.2388
 2199TIP3    H2 6551   7.294   2.683   5.857  0.3201  0.9899 -3.7003
 2200TIP3   OH2 6552   0.479   4.548   4.303  0.4779 -0.2811  0.1008
 2200TIP3    H1 6553   0.536   4.519   4.374  0.3594 -0.1206  0.2636
 2200TIP3    H2 6554   0.417   4.607   4.345 -0.1258 -0.8547  0.0095
 2201TIP3   OH2 6555   7.932   0.733   5.962  0.6831  0.2115  0.2315
 2201TIP3    H1 6556   7.892   0.712   5.878  0.2034  0.1849  0.4666
 2201TIP3    H2 6557   7.860   0.766   6.016  1.0265  0.4256  0.5642
 2202TIP3   OH2 6558   0.420   2.499   1.201  0.4137  0.1799  0.1549
 2202TIP3    H1 6559   0.353   2.550   1.155  0.2309 -0.3921 -0.2178
 2202TIP3    H2 6560   0.375   2.462   1.277 -0.3933 -2.3650 -1.5085
 2203TIP3   OH2 6561   3.240   0.044   1.264  0.2167  0.1109  0.2571
 2203TIP3    H1 6562   3.211  -0.035   1.309 -1.1224  1.2320  1.3894
 2203TIP3    H2 6563   3.265   0.014   1.177 -0.2216 -1.5721  0.7012
 2204TIP3   OH2 6564   1.029   5.528   0.692  0.8868 -0.0295 -0.0635
 2204TIP3    H1 6565   1.049   5.598   0.755  0.9682  0.6008 -0.7891
 2204TIP3    H2 6566   1.034   5.448   0.744 -1.0790  0.6415  1.1965
 2205TIP3   OH2 6567   6.039   2.177   2.468 -0.5592 -0.3706 -0.2785
 2205TIP3    H1 6568   5.996   2.177   2.383 -0.5412 -0.1586 -0.2880
 2205TIP3    H2 6569   5.989   2.114   2.520  0.3588 -1.6458 -0.9142
 2206TIP3   OH2 6570   7.799   1.924   2.989  0.1008 -0.0986  0.1240
 2206TIP3    H1 6571   7.768   1.919   3.079 -0.0085  0.1620  0.1037
 2206TIP3    H2 6572   7.750   1.998   2.951 -0.3869 -0.6587 -0.3556
 2207TIP3   OH2 6573   1.712   1.659   4.869  0.1154 -0.1228 -1.1456
 2207TIP3    H1 6574   1.740   1.735   4.921 -1.3103  0.0986 -0.6555
 2207TIP3    H2 6575   1.793   1.618   4.840  0.9167  1.5723 -1.3742
 2208TIP3   OH2 6576   2.448   1.786   5.737 -0.1983  0.3887 -0.3963
 2208TIP3    H1 6577   2.505   1.823   5.669  1.2466  1.4131  1.3464
 2208TIP3    H2 6578   2.506   1.768   5.811 -1.9954  0.7145  1.1339
 2209TIP3   OH2 6579   2.111   4.377   3.837 -0.0573  0.2709  0.2316
 2209TIP3    H1 6580   2.070   4.291   3.845  1.5750 -0.4085  1.7140
 2209TIP3    H2 6581   2.095   4.419   3.921 -1.5469  1.7594 -0.7764
 2210TIP3   OH2 6582   0.835   1.529   3.060  0.1970 -0.1843 -0.4903
 2210TIP3    H1 6583   0.847   1.435   3.073  1.1737 -0.1339 -0.9702
 2210TIP3    H2 6584   0.834   1.540   2.965 -2.4307 -0.0115 -0.4630
 2211TIP3   OH2 6585   0.829   3.160   2.535  0.2455 -0.1199  0.1568
 2211TIP3    H1 6586   0.756   3.138   2.594  0.0079  0.1826 -0.0199
 2211TIP3    H2 6587   0.878   3.078   2.525  0.5698 -0.0477  1.1636
 2212TIP3   OH2 6588   1.255   6.987   4.861  0.2476  0.0830  0.2004
 2212TIP3    H1 6589   1.174   6.952   4.825  0.2247 -0.5463  0.8435
 2212TIP3    H2 6590   1.281   7.056   4.801  0.2628 -1.0200 -1.0775
 2213TIP3   OH2 6591   0.576   2.710   4.153  0.0349  0.7881  0.1371
 2213TIP3    H1 6592   0.627   2.658   4.090  0.2652  0.2567  0.7661
 2213TIP3    H2 6593   0.497   2.735   4.104  1.3042  2.3940 -1.1562
 2214TIP3   OH2 6594   0.302   1.419   4.913 -0.0345 -0.0692 -0.1509
 2214TIP3    H1 6595   0.369   1.393   4.977  0.3475  0.8941 -0.1560
 2214TIP3    H2 6596   0.343   1.490   4.863  0.1011 -1.5662 -2.2309
 2215TIP3   OH2 6597   7.334   0.930   2.566  0.1063  0.1593 -0.1447
 2215TIP3    H1 6598   7.265   0.869   2.591 -1.2884  1.9512  0.4649
 2215TIP3    H2 6599   7.302   0.971   2.486  1.2481 -0.2156 -0.8067
 2216TIP3   OH2 6600   0.107   3.158   4.727  0.3415 -0.3264  0.0400
 2216TIP3    H1 6601   0.058   3.148   4.809  0.9251 -1.7568  0.2413
 2216TIP3    H2 6602   0.162   3.080   4.723  3.6787  1.8966  0.5466
 2217TIP3   OH2 6603   3.253   2.457   3.527 -0.4680 -0.2194  0.2360
 2217TIP3    H1 6604   3.240   2.516   3.453 -0.1223  0.1961  0.5051
 2217TIP3    H2 6605   3.175   2.469   3.581 -1.9145 -2.3464 -1.2832
 2218TIP3   OH2 6606   1.181   0.876   5.056  0.1241 -0.6075  0.0280
 2218TIP3    H1 6607   1.247   0.946   5.052  0.9524 -1.3299  0.7176
 2218TIP3    H2 6608   1.230   0.797   5.030 -0.9527 -0.8379 -1.3744
 2219TIP3   OH2 6609   5.140   6.929   4.558 -0.4798  0.5478 -0.1450
 2219TIP3    H1 6610   5.055   6.962   4.587 -0.3450 -0.9818  2.1516
 2219TIP3    H2 6611   5.132   6.834   4.567  0.8677  0.2831 -1.6623
 2220TIP3   OH2 6612   3.477   6.156   3.604 -0.6134 -0.1825  0.0075
 2220TIP3    H1 6613   3.477   6.247   3.632 -3.2689 -0.2892  0.4500
 2220TIP3    H2 6614   3.460   6.159   3.510  2.5608 -0.1185 -0.6426
 2221TIP3   OH2 6615   1.498   0.829   6.004 -0.0482  0.4155 -0.2792
 2221TIP3    H1 6616   1.584   0.850   5.968 -0.6798 -0.4006 -2.3410
 2221TIP3    H2 6617   1.512   0.751   6.057  0.3163 -0.3267 -1.4432
 2222TIP3   OH2 6618   1.347   1.799   2.154  0.1334  0.3631  0.0179
 2222TIP3    H1 6619   1.424   1.819   2.101 -0.3333 -1.0651 -1.2490
 2222TIP3    H2 6620   1.354   1.857   2.230  2.6828 -0.0680  0.1576
 2223TIP3   OH2 6621   6.488   2.872   5.914  0.7334 -0.2104 -0.4233
 2223TIP3    H1 6622   6.490   2.896   5.821  1.6959 -0.3276 -0.4463
 2223TIP3    H2 6623   6.432   2.794   5.918 -0.1113  0.3768 -0.7568
 2224TIP3   OH2 6624   1.688   1.706   4.063  0.5025  0.5673 -0.5138
 2224TIP3    H1 6625   1.656   1.718   4.153  0.9357 -0.0766 -0.2723
 2224TIP3    H2 6626   1.712   1.614   4.058  2.4687  1.0586 -0.6417
 2225TIP3   OH2 6627   5.761   1.818   4.543  0.4671  0.1589  0.6029
 2225TIP3    H1 6628   5.767   1.900   4.495  0.3894  0.7267  1.5578
 2225TIP3    H2 6629   5.704   1.763   4.488  1.8566  0.1393 -0.8487
 2226TIP3   OH2 6630   4.663   6.549   2.116 -0.0798  0.2998  0.3947
 2226TIP3    H1 6631   4.611   6.550   2.036  1.5590 -0.3498 -0.7221
 2226TIP3    H2 6632   4.641   6.631   2.161 -0.9608  0.7070 -0.7644
 2227TIP3   OH2 6633   0.841   4.111   2.038  0.0684 -0.0145  0.4702
 2227TIP3    H1 6634   0.787   4.178   1.997  1.5176 -0.7842 -2.8826
 2227TIP3    H2 6635   0.785   4.034   2.042  0.3616 -0.3702 -1.5804
 2228TIP3   OH2 6636   5.736   1.579   3.268  0.6164 -0.2060 -0.1575
 2228TIP3    H1 6637   5.720   1.672   3.250  0.5587 -0.2065 -0.1072
 2228TIP3    H2 6638   5.655   1.548   3.308  0.3868 -0.4432 -0.8077
 2229TIP3   OH2 6639   6.513   3.510   6.149 -0.1790 -0.3385 -0.2596
 2229TIP3    H1 6640   6.536   3.424   6.112  0.4576 -0.9836  1.5581
 2229TIP3    H2 6641   6.597   3.556   6.155 -0.6573  0.8906 -2.2899
 2230TIP3   OH2 6642   5.630   6.690   4.165  0.1502  0.2076  0.2628
 2230TIP3    H1 6643   5.660   6.614   4.214 -0.7266 -0.3377 -0.0444
 2230TIP3    H2 6644   5.674   6.684   4.080  0.1461  0.0937  0.2697
 2231TIP3   OH2 6645   1.510   2.410   3.661 -0.3155 -0.0443  0.0918
 2231TIP3    H1 6646   1.431   2.375   3.703  0.0582 -1.8133 -0.6128
 2231TIP3    H2 6647   1.507   2.376   3.572  0.9264  0.3797 -0.1254
 2232TIP3   OH2 6648   5.045   2.237   1.061 -0.0902  0.3492  0.0028
 2232TIP3    H1 6649   5.072   2.315   1.110  0.6685  0.6935 -0.9412
 2232TIP3    H2 6650   4.993   2.186   1.123  2.4632 -0.1658  1.8075
 2233TIP3   OH2 6651   1.078   2.191   2.564 -0.3771 -0.4227  0.1876
 2233TIP3    H1 6652   1.052   2.242   2.641  3.7374  0.2615  1.2697
 2233TIP3    H2 6653   1.026   2.226   2.492 -3.2675 -0.0741  2.3811
 2234TIP3   OH2 6654   0.532   1.609   2.405  0.0278 -0.7404  0.2893
 2234TIP3    H1 6655   0.449   1.656   2.390 -1.6118 -3.6331 -0.1688
 2234TIP3    H2 6656   0.595   1.652   2.347 -1.5515  0.5009 -0.5498
 2235TIP3   OH2 6657   6.810   7.081   2.978 -0.5119 -0.2668  0.0829
 2235TIP3    H1 6658   6.799   7.070   2.883 -1.2139  0.2275  0.1020
 2235TIP3    H2 6659   6.763   7.007   3.016  0.4297 -0.9028  0.0290
 2236TIP3   OH2 6660   0.417   3.052   2.974 -0.2003 -0.0102 -0.1791
 2236TIP3    H1 6661   0.475   2.976   2.977  0.5300  0.4938 -1.4414
 2236TIP3    H2 6662   0.438   3.100   3.054  0.4919 -0.2956 -0.1844
 2237TIP3   OH2 6663   6.436   2.453   3.260 -0.1180 -0.2838  0.4691
 2237TIP3    H1 6664   6.453   2.547   3.254  0.7971 -0.4518  0.2684
 2237TIP3    H2 6665   6.517   2.413   3.228 -1.5575 -1.1519 -2.1509
 2238TIP3   OH2 6666   0.876   2.310   2.418 -0.1203  0.3133 -0.1720
 2238TIP3    H1 6667   0.849   2.397   2.389  1.1333  0.1033 -2.0527
 2238TIP3    H2 6668   0.814   2.251   2.375 -0.9612  0.2367  1.0913
 2239TIP3   OH2 6669   2.430   2.387   5.077  0.7417  0.1520 -0.1494
 2239TIP3    H1 6670   2.441   2.347   4.991  0.1085 -0.2740 -0.0372
 2239TIP3    H2 6671   2.435   2.313   5.138 -0.9766  0.1548  0.0224
 2240TIP3   OH2 6672   0.505   7.323   0.714  0.0849  0.7777 -0.3356
 2240TIP3    H1 6673   0.545   7.402   0.751  2.4901 -0.1035 -0.9975
 2240TIP3    H2 6674   0.575   7.281   0.665 -1.3009 -1.5241 -0.4153
 2241TIP3   OH2 6675   1.470   2.549   2.964 -0.0768 -0.2633 -0.1353
 2241TIP3    H1 6676   1.496   2.472   2.912 -1.3711 -0.6347 -0.2412
 2241TIP3    H2 6677   1.534   2.552   3.035 -0.2230 -1.6556  0.0799
 2242TIP3   OH2 6678   5.998   3.323   3.489  0.2324 -0.3332 -0.7150
 2242TIP3    H1 6679   5.972   3.240   3.449 -0.2016  0.6018 -2.4036
 2242TIP3    H2 6680   5.926   3.345   3.547  0.0992 -0.8515 -0.6799
 2243TIP3   OH2 6681   0.883   0.884   3.141  0.2150  0.3957 -0.2178
 2243TIP3    H1 6682   0.801   0.921   3.108 -0.1672  0.5213  0.8517
 2243TIP3    H2 6683   0.858   0.834   3.219  1.2005  0.7817  0.3643
 2244TIP3   OH2 6684   1.322   3.383   3.418  0.2542 -0.1132 -0.1326
 2244TIP3    H1 6685   1.237   3.345   3.398  0.1652  0.0943 -0.1467
 2244TIP3    H2 6686   1.343   3.351   3.506 -0.3288  0.7017  0.3123
 2245TIP3   OH2 6687   7.747   3.965   5.571  0.1434  0.3690 -0.4986
 2245TIP3    H1 6688   7.682   3.914   5.522  0.8294 -0.8126 -0.1925
 2245TIP3    H2 6689   7.697   4.001   5.645 -0.3923  0.2906 -0.8163
 2246TIP3   OH2 6690   0.447   3.116   5.273 -0.2606  0.4714 -0.1045
 2246TIP3    H1 6691   0.441   3.154   5.185 -1.3698  0.6220  0.0339
 2246TIP3    H2 6692   0.526   3.062   5.270 -0.5286  0.1325 -1.3324
 2247TIP3   OH2 6693   0.845   3.928   3.337  0.1474 -0.6757  0.1339
 2247TIP3    H1 6694   0.769   3.928   3.395  1.0846  1.0971  1.3924
 2247TIP3    H2 6695   0.920   3.941   3.395  0.9803  2.8297 -1.5861
 2248TIP3   OH2 6696   0.423   2.479   5.308 -0.1313  0.6378  0.5426
 2248TIP3    H1 6697   0.495   2.542   5.301 -0.4784  0.9747 -0.1143
 2248TIP3    H2 6698   0.404   2.475   5.402  1.1038  0.1245  0.7767
 2249TIP3   OH2 6699   1.973   3.569   2.105  0.3436  0.4413  0.3253
 2249TIP3    H1 6700   1.995   3.626   2.180  1.1128  1.3672 -0.5829
 2249TIP3    H2 6701   2.043   3.586   2.042  0.1768 -1.0034 -0.2476
 2250TIP3   OH2 6702   7.119   2.207   4.587  1.0058 -0.0823  0.0868
 2250TIP3    H1 6703   7.203   2.176   4.619  1.1194 -0.7305 -0.8137
 2250TIP3    H2 6704   7.139   2.286   4.537  1.2280 -0.8668 -1.0809
 2251TIP3   OH2 6705   2.530   1.666   2.508 -0.7887 -0.1804  0.4012
 2251TIP3    H1 6706   2.524   1.583   2.461  0.7074  0.1619 -0.4239
 2251TIP3    H2 6707   2.468   1.657   2.580 -3.0510 -0.7663 -1.5493
 2252TIP3   OH2 6708   5.697   2.667   3.798 -0.4656 -0.2447 -0.1458
 2252TIP3    H1 6709   5.740   2.659   3.883 -1.3588  0.4682  0.3885
 2252TIP3    H2 6710   5.731   2.748   3.761  1.2429 -1.4401 -1.2556
 2253TIP3   OH2 6711   6.380   3.961   3.303 -0.1646 -0.1906 -0.5146
 2253TIP3    H1 6712   6.320   3.893   3.273 -2.4014  1.3006  0.4098
 2253TIP3    H2 6713   6.406   4.007   3.223 -0.1193 -0.9479 -0.9417
 2254TIP3   OH2 6714   2.140   1.797   1.729  0.5705 -0.6592  0.0154
 2254TIP3    H1 6715   2.051   1.761   1.726  0.0744  0.6650 -2.7813
 2254TIP3    H2 6716   2.163   1.795   1.821 -2.7739 -0.0475  0.9401
 2255TIP3   OH2 6717   2.246   0.377   4.349  0.1384  0.0252 -0.1168
 2255TIP3    H1 6718   2.331   0.337   4.328  0.3990  0.7794 -0.5054
 2255TIP3    H2 6719   2.204   0.390   4.264 -0.6077 -0.8445  0.1035
 2256TIP3   OH2 6720   2.058   0.680   2.075  0.2388  0.4260 -0.0383
 2256TIP3    H1 6721   2.136   0.627   2.060  0.7316  1.2572 -0.4249
 2256TIP3    H2 6722   2.081   0.736   2.150  0.8137  2.2321 -1.5448
 2257TIP3   OH2 6723   0.955   3.361   3.162  0.2043  0.1527 -0.0925
 2257TIP3    H1 6724   1.000   3.445   3.162 -0.0661  0.2980  0.2231
 2257TIP3    H2 6725   0.934   3.345   3.070  2.4843 -0.7769 -0.4765
 2258TIP3   OH2 6726   7.478   2.511   3.151 -0.0493  0.0100 -0.6389
 2258TIP3    H1 6727   7.473   2.534   3.058 -0.3365 -1.1084 -0.9075
 2258TIP3    H2 6728   7.492   2.416   3.152  1.3432  0.2088  0.4421
 2259TIP3   OH2 6729   0.114   0.977   1.588 -0.2041 -0.2694 -0.2209
 2259TIP3    H1 6730   0.151   0.895   1.621  0.4768  0.3976  0.7349
 2259TIP3    H2 6731   0.170   1.001   1.514 -0.8141 -1.0147 -0.9143
 2260TIP3   OH2 6732   7.833   1.751   2.777 -0.5722  0.5055  0.3815
 2260TIP3    H1 6733   7.831   1.821   2.843 -1.4733  2.0416 -1.2345
 2260TIP3    H2 6734   7.925   1.731   2.767 -0.3539  0.9144  1.4383
 2261TIP3   OH2 6735   7.369   1.976   3.059  0.5282  0.4346 -0.2830
 2261TIP3    H1 6736   7.299   1.945   3.117 -0.3304  1.2409 -0.8587
 2261TIP3    H2 6737   7.441   1.998   3.118  0.6881 -1.4086  0.2255
 2262TIP3   OH2 6738   1.786   0.239   3.261  0.3080 -0.3659  0.4144
 2262TIP3    H1 6739   1.873   0.270   3.288 -0.8323  1.6123  2.0264
 2262TIP3    H2 6740   1.801   0.189   3.181  3.0002 -0.5840  1.0304
 2263TIP3   OH2 6741   0.265   0.867   3.564  0.1542  0.4306 -0.4118
 2263TIP3    H1 6742   0.322   0.824   3.627 -0.7237 -0.0129  0.0984
 2263TIP3    H2 6743   0.308   0.951   3.546  1.5069 -0.3564 -0.8783
 2264TIP3   OH2 6744   2.773   1.902   1.894 -0.0715  0.1807 -0.1627
 2264TIP3    H1 6745   2.830   1.908   1.971  0.2477 -1.9177 -0.2060
 2264TIP3    H2 6746   2.710   1.834   1.916  0.1679 -0.6069 -1.8299
 2265TIP3   OH2 6747   0.037   1.417   2.330  0.4732  0.2582 -0.2775
 2265TIP3    H1 6748   0.019   1.510   2.341  0.5915  0.2979 -0.4218
 2265TIP3    H2 6749   0.099   1.395   2.400  0.2466  0.2295 -0.0834
 2266TIP3   OH2 6750   2.618   4.253   1.954 -0.2031 -0.1546 -0.6483
 2266TIP3    H1 6751   2.595   4.295   1.871 -1.2869  0.0516 -0.2529
 2266TIP3    H2 6752   2.591   4.162   1.943  0.3375 -0.3023 -0.7854
 2267TIP3   OH2 6753   0.104   4.013   5.614 -0.1023 -0.8952 -0.1973
 2267TIP3    H1 6754   0.019   3.978   5.588 -1.1065  0.7939  0.7547
 2267TIP3    H2 6755   0.084   4.074   5.686  1.5113  1.9762 -2.0893
 2268TIP3   OH2 6756   1.457   1.838   4.292 -0.5418  0.3994  0.0113
 2268TIP3    H1 6757   1.384   1.849   4.232 -0.1924 -2.0701 -0.9156
 2268TIP3    H2 6758   1.478   1.927   4.321 -1.6801  1.4792 -2.3427
 2269TIP3   OH2 6759   0.561   2.042   4.678  0.0432  0.4450 -0.6032
 2269TIP3    H1 6760   0.582   1.978   4.610  0.5844  1.5108 -1.4561
 2269TIP3    H2 6761   0.583   1.998   4.760 -1.7578 -1.2987 -1.0328
 2270TIP3   OH2 6762   2.210   1.838   4.146 -0.0382 -0.1853 -0.0477
 2270TIP3    H1 6763   2.214   1.820   4.240 -1.5910 -0.3535 -0.0017
 2270TIP3    H2 6764   2.195   1.752   4.107  0.4910 -0.0959 -0.4522
 2271TIP3   OH2 6765   5.337   7.161   4.480 -0.3713 -0.2842 -0.0188
 2271TIP3    H1 6766   5.283   7.082   4.484  0.0518 -0.6002 -0.5169
 2271TIP3    H2 6767   5.384   7.163   4.563 -0.5963 -0.4041  0.1095
 2272TIP3   OH2 6768   2.072   0.446   5.782  0.2293  0.2314 -0.4924
 2272TIP3    H1 6769   2.062   0.369   5.839 -0.9549 -0.6937 -1.9005
 2272TIP3    H2 6770   2.144   0.422   5.723 -1.0854 -0.3869 -1.8544
 2273TIP3   OH2 6771   1.465   2.142   4.348 -0.2382  0.2435  0.4501
 2273TIP3    H1 6772   1.433   2.170   4.262 -1.0954  0.6043  0.8842
 2273TIP3    H2 6773   1.393   2.160   4.408  0.3614  0.0057  1.2555
 2274TIP3   OH2 6774   0.210   2.731   2.217  0.3352 -0.0969  0.3422
 2274TIP3    H1 6775   0.262   2.811   2.209  1.7344 -0.8945  1.2319
 2274TIP3    H2 6776   0.262   2.664   2.174  0.1794 -0.9712  1.4982
 2275TIP3   OH2 6777   0.897   2.016   4.290  0.2249  0.1962  0.3573
 2275TIP3    H1 6778   0.834   2.080   4.321 -0.9479 -0.9575  0.4100
 2275TIP3    H2 6779   0.981   2.046   4.325 -0.2034  1.9866 -0.0872
 2276TIP3   OH2 6780   3.053   4.071   2.306  0.2005 -0.0135  0.2276
 2276TIP3    H1 6781   3.030   4.104   2.393 -1.5576  0.5049 -0.4114
 2276TIP3    H2 6782   3.093   3.986   2.322 -1.8355 -0.7951  1.4468
 2277TIP3   OH2 6783   0.863   1.411   3.682 -0.2217 -0.3531  0.3203
 2277TIP3    H1 6784   0.892   1.374   3.765  0.5292 -1.1960 -0.3171
 2277TIP3    H2 6785   0.927   1.481   3.664 -0.7873  0.2966  0.7871
 2278TIP3   OH2 6786   0.907   0.524   4.320  0.0889 -0.0922 -0.2906
 2278TIP3    H1 6787   0.832   0.479   4.281  0.4719 -0.1394 -0.9642
 2278TIP3    H2 6788   0.867   0.588   4.380 -0.4538 -1.4163  0.7905
 2279TIP3   OH2 6789   0.862   0.211   3.190  0.2021 -0.0887  0.0311
 2279TIP3    H1 6790   0.856   0.178   3.280 -1.1620  2.9865  1.1597
 2279TIP3    H2 6791   0.786   0.173   3.145 -0.4144  0.1813  0.8311
 2280TIP3   OH2 6792   4.405   3.246   0.701 -0.1689  0.4984  0.3051
 2280TIP3    H1 6793   4.401   3.253   0.796  1.0547  2.1257  0.2412
 2280TIP3    H2 6794   4.344   3.175   0.680 -0.9022  0.5356  2.2436
 2281TIP3   OH2 6795   1.379   4.884   5.374  0.1246  0.1068  0.0884
 2281TIP3    H1 6796   1.288   4.894   5.344 -0.1949  0.4172  1.1646
 2281TIP3    H2 6797   1.372   4.846   5.461  0.9841  1.5164  0.7827
 2282TIP3   OH2 6798   7.413   0.268   3.608  0.3678  0.3484  0.4036
 2282TIP3    H1 6799   7.328   0.291   3.572  0.7852 -1.5514 -1.8976
 2282TIP3    H2 6800   7.476   0.319   3.557  0.7248  0.3902  0.8823
 2283TIP3   OH2 6801   0.627   2.054   4.072  0.1784  0.0262 -0.3226
 2283TIP3    H1 6802   0.620   2.025   4.163 -0.4587 -1.9120 -0.9581
 2283TIP3    H2 6803   0.545   2.100   4.054  1.0728  2.0563  0.6051
 2284TIP3   OH2 6804   0.407   2.494   2.691 -0.2562 -0.8011  0.5744
 2284TIP3    H1 6805   0.484   2.464   2.643  0.5954  1.5373  0.4315
 2284TIP3    H2 6806   0.358   2.546   2.628 -1.2827 -1.1689  1.0559
 2285TIP3   OH2 6807   0.611   0.389   3.620 -0.3500  0.0033  0.1975
 2285TIP3    H1 6808   0.647   0.300   3.623  2.5830  1.1673  1.1766
 2285TIP3    H2 6809   0.619   0.421   3.710 -2.3072  0.9585  0.0650
 2286TIP3   OH2 6810   2.211   3.990   5.231  0.4724 -0.0605 -0.3276
 2286TIP3    H1 6811   2.259   3.954   5.157  1.5254 -0.1654  0.3940
 2286TIP3    H2 6812   2.160   3.917   5.265  0.7545 -0.2622 -0.3399
 2287TIP3   OH2 6813   7.336   6.795   5.004  0.6863  0.1864  0.0780
 2287TIP3    H1 6814   7.241   6.805   5.002  0.4924 -1.6105 -1.0347
 2287TIP3    H2 6815   7.356   6.777   5.095 -0.1104 -0.0041  0.2224
 2288TIP3   OH2 6816   0.152   3.412   1.743  0.2235  0.5121 -0.0731
 2288TIP3    H1 6817   0.097   3.384   1.816  0.8289  2.0249  0.9772
 2288TIP3    H2 6818   0.233   3.362   1.754  0.7651  1.5922  0.9893
 2289TIP3   OH2 6819   2.146   1.570   4.132  0.1075 -0.0094 -0.0725
 2289TIP3    H1 6820   2.087   1.551   4.205  0.3683 -0.4618  0.0290
 2289TIP3    H2 6821   2.090   1.569   4.054 -0.1619  0.4137  0.1116
 2290TIP3   OH2 6822   7.334   7.073   4.220  0.4053  0.0190 -0.2936
 2290TIP3    H1 6823   7.343   7.162   4.188  1.1290 -0.9467 -2.9116
 2290TIP3    H2 6824   7.422   7.049   4.249 -0.0765  0.6066  1.7187
 2291TIP3   OH2 6825   5.910   7.211   4.163  0.6579 -0.3279 -0.1436
 2291TIP3    H1 6826   5.980   7.157   4.126  1.2558  0.4492 -0.1805
 2291TIP3    H2 6827   5.949   7.299   4.169 -0.6452  0.3315 -1.0987
 2292TIP3   OH2 6828   0.819   2.803   1.384  0.0216  0.1065 -0.4487
 2292TIP3    H1 6829   0.742   2.748   1.370  1.3256 -1.6555 -0.9635
 2292TIP3    H2 6830   0.819   2.821   1.478 -0.9726  0.0471 -0.4356
 2293TIP3   OH2 6831   0.849   4.264   5.762 -0.0766 -0.0818  0.1943
 2293TIP3    H1 6832   0.825   4.183   5.807 -0.0665 -1.3662 -2.0725
 2293TIP3    H2 6833   0.777   4.281   5.702  2.5258 -1.6936 -3.6185
 2294TIP3   OH2 6834   6.019   3.042   5.819  0.5268  0.3039 -0.0054
 2294TIP3    H1 6835   6.047   2.992   5.896 -0.3263  0.7978  0.6205
 2294TIP3    H2 6836   6.082   3.114   5.813  1.2038 -0.3048 -0.3736
 2295TIP3   OH2 6837   0.214   3.380   2.954 -0.6382  0.0835 -0.1287
 2295TIP3    H1 6838   0.300   3.414   2.980  0.3467 -1.7858 -0.7898
 2295TIP3    H2 6839   0.173   3.452   2.906 -0.4651  1.8479  2.3133
 2296TIP3   OH2 6840   2.577   0.273   3.403 -0.0612 -0.1499  0.5374
 2296TIP3    H1 6841   2.594   0.179   3.398  1.5453  0.1732 -0.4006
 2296TIP3    H2 6842   2.628   0.302   3.479 -0.4223 -0.0130  0.7255
 2297TIP3   OH2 6843   1.743   1.375   3.594 -0.0431  0.7802 -0.2899
 2297TIP3    H1 6844   1.796   1.424   3.657 -0.3460  0.8400 -0.0830
 2297TIP3    H2 6845   1.807   1.335   3.535  0.4457 -2.0701  2.0617
 2298TIP3   OH2 6846   6.578   3.311   5.089 -0.0344 -0.2459  0.2974
 2298TIP3    H1 6847   6.655   3.299   5.034  1.2243 -0.2498  2.0124
 2298TIP3    H2 6848   6.583   3.402   5.118 -0.7095 -0.2277  0.3616
 2299TIP3   OH2 6849   1.087   0.939   3.964 -0.3608 -0.1350 -0.2058
 2299TIP3    H1 6850   0.997   0.951   3.995 -0.6599  0.2425 -1.1988
 2299TIP3    H2 6851   1.078   0.917   3.872  0.4708 -2.3443  0.1934
 2300TIP3   OH2 6852   2.203   3.212   0.742  0.0957  0.6288 -0.4276
 2300TIP3    H1 6853   2.260   3.137   0.762 -0.4932 -0.2332 -1.9542
 2300TIP3    H2 6854   2.197   3.214   0.647 -0.6676  2.0590 -0.3690
 2301TIP3   OH2 6855   1.226   0.728   2.084 -0.0333 -0.0672 -0.0107
 2301TIP3    H1 6856   1.190   0.673   2.014 -0.4180  0.7586 -0.4703
 2301TIP3    H2 6857   1.150   0.774   2.119  0.4781  1.2486 -0.5945
 2302TIP3   OH2 6858   2.860   1.075   2.983 -0.4274 -0.0053  0.0232
 2302TIP3    H1 6859   2.766   1.070   3.001 -0.2333  0.5194  1.2699
 2302TIP3    H2 6860   2.884   0.987   2.952 -0.6242 -1.3274  3.3538
 2303TIP3   OH2 6861   2.657   0.567   3.440  0.1997 -0.3686  0.0279
 2303TIP3    H1 6862   2.677   0.485   3.485  1.0748 -0.4885 -0.5690
 2303TIP3    H2 6863   2.686   0.553   3.350  1.8710  1.1697  0.3036
 2304TIP3   OH2 6864   2.010   2.743   2.911 -0.9008 -0.7383 -0.1632
 2304TIP3    H1 6865   2.014   2.648   2.910 -0.3471 -0.7194  0.5901
 2304TIP3    H2 6866   2.060   2.770   2.834 -1.4374 -1.0642 -0.6332
 2305TIP3   OH2 6867   7.217   2.652   4.297  0.2934  0.2112  0.5650
 2305TIP3    H1 6868   7.144   2.708   4.272 -0.0448  0.3924  1.9211
 2305TIP3    H2 6869   7.272   2.648   4.218 -0.0549  1.8410  0.2149
 2306TIP3   OH2 6870   1.030   2.785   3.666  0.8985 -0.4996  0.2192
 2306TIP3    H1 6871   1.104   2.775   3.726  0.6739  1.0447  0.7969
 2306TIP3    H2 6872   1.036   2.876   3.636 -1.4092  0.0080  1.1627
 2307TIP3   OH2 6873   1.488   0.646   4.740 -0.6156 -0.3540  0.4469
 2307TIP3    H1 6874   1.547   0.685   4.676 -1.1382  2.3092  1.4896
 2307TIP3    H2 6875   1.429   0.590   4.689 -0.6562  1.2591 -1.3220
 2308TIP3   OH2 6876   3.705   1.926   4.314 -0.1478  0.1052 -0.1947
 2308TIP3    H1 6877   3.650   1.999   4.285 -0.2733  0.5425  1.1264
 2308TIP3    H2 6878   3.646   1.851   4.317 -0.6306  0.5363  1.0538
 2309TIP3   OH2 6879   1.350   2.150   2.976 -0.0072  0.2096 -0.3253
 2309TIP3    H1 6880   1.300   2.232   2.974  1.9378  1.4556  0.3120
 2309TIP3    H2 6881   1.365   2.133   3.069  0.4869 -0.3141 -0.4967
 2310TIP3   OH2 6882   4.957   7.043   5.741 -0.0120  0.2248  1.0705
 2310TIP3    H1 6883   4.894   6.991   5.791  0.0039 -0.3786  0.4761
 2310TIP3    H2 6884   4.904   7.092   5.679 -0.0078  0.7678  1.4911
 2311TIP3   OH2 6885   1.196   6.622   3.992 -0.6330 -0.5927 -0.1079
 2311TIP3    H1 6886   1.263   6.607   3.926 -1.0131  0.2423 -0.6899
 2311TIP3    H2 6887   1.244   6.648   4.071 -0.0558 -3.3200  0.4806
 2312TIP3   OH2 6888   7.823   2.562   2.600  0.3375  0.2645  0.0644
 2312TIP3    H1 6889   7.821   2.656   2.619 -1.6210  0.3223 -0.3850
 2312TIP3    H2 6890   7.881   2.554   2.524  0.1842  1.1497 -0.1504
 2313TIP3   OH2 6891   5.638   6.380   3.072 -0.0676  0.3589 -0.6129
 2313TIP3    H1 6892   5.550   6.346   3.088 -0.1376  0.4924 -0.7144
 2313TIP3    H2 6893   5.661   6.347   2.985  0.4705 -0.6971 -0.0829
 2314TIP3   OH2 6894   3.252   2.262   3.109  0.1916 -0.2062  0.5959
 2314TIP3    H1 6895   3.172   2.257   3.161  1.0104  0.1757  1.8904
 2314TIP3    H2 6896   3.306   2.328   3.153  0.8265  0.2591 -0.8236
 2315TIP3   OH2 6897   0.811   2.500   2.236 -0.1493  0.1057 -0.2665
 2315TIP3    H1 6898   0.807   2.428   2.174  1.1535  0.2190 -0.4860
 2315TIP3    H2 6899   0.751   2.566   2.200 -0.3442 -0.3276 -0.7393
 2316TIP3   OH2 6900   0.592   2.966   3.435 -0.6562 -0.2929  0.4941
 2316TIP3    H1 6901   0.520   2.948   3.495 -1.0711  1.0128  0.4007
 2316TIP3    H2 6902   0.654   3.018   3.487 -0.6648  0.1876  0.0350
 2317TIP3   OH2 6903   7.060   2.468   4.137 -0.1006 -0.3200 -0.3150
 2317TIP3    H1 6904   7.017   2.514   4.066 -1.2120 -0.5482  0.2016
 2317TIP3    H2 6905   7.095   2.537   4.194 -2.5571 -0.0816  0.9486
 2318TIP3   OH2 6906   7.028   4.571   5.978  0.4494 -0.1185 -0.3922
 2318TIP3    H1 6907   7.003   4.555   6.070  1.3541  0.7178  0.0096
 2318TIP3    H2 6908   7.027   4.666   5.970 -0.4290 -0.2205 -1.4895
 2319TIP3   OH2 6909   0.504   2.690   4.824 -0.3157  0.1746 -0.3048
 2319TIP3    H1 6910   0.431   2.680   4.885  0.1795 -0.2281  0.2223
 2319TIP3    H2 6911   0.485   2.629   4.753  0.3290 -1.1474  0.6279
 2320TIP3   OH2 6912   7.326   1.574   1.150  0.1776  0.1274 -0.6328
 2320TIP3    H1 6913   7.244   1.540   1.113  0.1828  1.6452 -2.0826
 2320TIP3    H2 6914   7.369   1.496   1.186 -1.0449 -0.9910 -1.5007
 2321TIP3   OH2 6915   1.330   0.758   3.392  0.3987  0.0925  0.2669
 2321TIP3    H1 6916   1.396   0.691   3.374  0.2797  0.1262 -0.2855
 2321TIP3    H2 6917   1.277   0.762   3.313  0.6758  1.1563  0.1326
 2322TIP3   OH2 6918   0.498   2.779   6.363  0.1456 -0.3718 -0.0971
 2322TIP3    H1 6919   0.559   2.852   6.371  0.0724 -0.3262  0.0405
 2322TIP3    H2 6920   0.551   2.701   6.378  0.8075 -0.5254 -2.9175
 2323TIP3   OH2 6921   0.807   3.831   4.294  0.8345 -0.4731  0.3116
 2323TIP3    H1 6922   0.847   3.844   4.208  1.9300  0.6595  0.9711
 2323TIP3    H2 6923   0.727   3.883   4.292  0.4713 -1.0446 -0.2723
 2324TIP3   OH2 6924   1.994   3.364   3.394 -0.3086  0.5502 -0.1614
 2324TIP3    H1 6925   2.033   3.447   3.422  0.5088 -0.1777  0.8920
 2324TIP3    H2 6926   1.899   3.381   3.394 -0.1491  1.4810  0.0491
 2325TIP3   OH2 6927   2.359   5.023   4.514 -0.5614  0.9093 -0.0165
 2325TIP3    H1 6928   2.274   5.018   4.470 -0.7754  0.2853  0.4606
 2325TIP3    H2 6929   2.408   4.948   4.481 -0.9159  0.1269  1.1841
 2326TIP3   OH2 6930   0.930   2.146   1.648 -0.2035 -0.0867  0.2143
 2326TIP3    H1 6931   1.024   2.161   1.643 -0.2684  0.0250 -0.8125
 2326TIP3    H2 6932   0.919   2.052   1.634 -0.1923 -0.2176  1.0784
 2327TIP3   OH2 6933   0.193   1.673   2.859  0.2801 -0.4896 -0.2588
 2327TIP3    H1 6934   0.209   1.755   2.906 -1.6227 -0.2222 -0.0503
 2327TIP3    H2 6935   0.142   1.620   2.920 -0.5720 -0.8796 -1.3012
 2328TIP3   OH2 6936   1.619   2.661   3.215 -0.5798  0.2792  0.3757
 2328TIP3    H1 6937   1.571   2.743   3.230 -0.3963  0.2762  0.9977
 2328TIP3    H2 6938   1.710   2.683   3.233 -0.6858 -0.3637  1.7317
 2329TIP3   OH2 6939   1.163   2.629   5.507 -0.5980 -0.2142 -0.3223
 2329TIP3    H1 6940   1.222   2.699   5.536 -0.4344 -1.5677  2.7723
 2329TIP3    H2 6941   1.180   2.620   5.413  1.9322  1.4714 -0.0587
 2330TIP3   OH2 6942   5.401   6.151   3.538  0.2513  0.4006 -0.0183
 2330TIP3    H1 6943   5.340   6.107   3.596  0.0651 -0.2729 -0.7135
 2330TIP3    H2 6944   5.388   6.109   3.453  0.8901  1.0107 -0.4268
 2331TIP3   OH2 6945   1.476   1.203   2.593 -0.8275  0.1248 -0.4775
 2331TIP3    H1 6946   1.445   1.247   2.513 -0.1840 -0.0566 -0.8327
 2331TIP3    H2 6947   1.571   1.196   2.581 -0.6827  0.4043  0.4622
 2332TIP3   OH2 6948   5.741   6.742   2.055  0.1808 -0.0902  0.1233
 2332TIP3    H1 6949   5.791   6.729   1.974  0.1206  1.7159 -0.2194
 2332TIP3    H2 6950   5.661   6.690   2.042 -0.4941  1.2933 -1.6005
 2333TIP3   OH2 6951   7.243   3.754   4.566 -0.1101 -0.5293 -0.0819
 2333TIP3    H1 6952   7.328   3.709   4.560  0.7921  1.1863 -0.6933
 2333TIP3    H2 6953   7.259   3.838   4.524 -1.6951  0.4552  1.2652
 2334TIP3   OH2 6954   0.338   2.755   4.013  0.4248  0.1075 -0.0370
 2334TIP3    H1 6955   0.345   2.850   4.014  0.3591  0.1210 -0.7416
 2334TIP3    H2 6956   0.256   2.736   3.967  1.7522 -0.3389 -2.2862
 2335TIP3   OH2 6957   1.091   3.654   4.100 -0.9614  0.0274 -0.2080
 2335TIP3    H1 6958   1.176   3.634   4.140 -1.8796 -0.0817  1.7562
 2335TIP3    H2 6959   1.028   3.600   4.150 -2.2541  0.5924 -1.2103
 2336TIP3   OH2 6960   0.712   2.176   2.907  0.3791 -0.2756 -0.5555
 2336TIP3    H1 6961   0.773   2.101   2.903  1.1461  0.3310 -0.3638
 2336TIP3    H2 6962   0.717   2.216   2.820  1.2046  0.5130 -0.1517
 2337TIP3   OH2 6963   1.716   3.631   4.977 -0.2160  0.6051 -0.1523
 2337TIP3    H1 6964   1.772   3.676   4.912  1.1001 -1.2302 -0.3332
 2337TIP3    H2 6965   1.746   3.540   4.975 -1.8880  0.0069  1.2250
 2338TIP3   OH2 6966   7.895   0.107   1.931 -0.0999  0.6523 -0.0318
 2338TIP3    H1 6967   7.815   0.063   1.904  1.3713 -2.2767  0.1580
 2338TIP3    H2 6968   7.953   0.100   1.854  0.7249  0.7686  0.5716
 2339TIP3   OH2 6969   3.033   0.371   4.249  0.0423 -0.1509  0.1085
 2339TIP3    H1 6970   3.042   0.446   4.191  0.1371  0.8391  1.3646
 2339TIP3    H2 6971   3.123   0.351   4.277 -0.1378  0.3040  1.0376
 2340TIP3   OH2 6972   0.459   2.488   3.147  0.1415  0.3572 -0.4273
 2340TIP3    H1 6973   0.451   2.415   3.208 -0.2206  0.3232 -0.5152
 2340TIP3    H2 6974   0.549   2.482   3.114  0.2752  0.2615 -0.0429
 2341TIP3   OH2 6975   3.036   2.468   1.555 -0.4453  0.1409 -0.2133
 2341TIP3    H1 6976   3.065   2.378   1.539  0.5362  0.4079  0.0284
 2341TIP3    H2 6977   3.063   2.487   1.645 -0.6504  0.6712 -0.2607
 2342TIP3   OH2 6978   1.602   2.238   4.580  0.0695 -0.2871 -0.3684
 2342TIP3    H1 6979   1.510   2.261   4.564 -0.1314 -0.1107  0.9861
 2342TIP3    H2 6980   1.608   2.146   4.554 -0.4499 -0.2539 -0.6136
 2343TIP3   OH2 6981   2.725   2.127   3.929 -0.1120  0.0597  0.3086
 2343TIP3    H1 6982   2.651   2.094   3.981 -1.5971 -0.0103 -1.7804
 2343TIP3    H2 6983   2.730   2.220   3.952 -1.0545  0.1376  0.2340
 2344TIP3   OH2 6984   0.581   2.322   2.281 -0.3165  0.4448 -0.7060
 2344TIP3    H1 6985   0.581   2.238   2.236 -0.9644  0.0677  0.0003
 2344TIP3    H2 6986   0.550   2.384   2.214 -0.1550  0.0810 -1.1246
 2345TIP3   OH2 6987   1.901   2.256   1.094 -0.3909 -0.3664  0.7423
 2345TIP3    H1 6988   1.821   2.295   1.059  1.3457  1.5764 -1.2111
 2345TIP3    H2 6989   1.957   2.331   1.114  2.4321 -1.7532 -1.6266
 2346TIP3   OH2 6990   1.511   0.864   2.368  0.3843 -0.5687 -0.3362
 2346TIP3    H1 6991   1.495   0.885   2.276  1.6869 -2.4518 -0.9999
 2346TIP3    H2 6992   1.434   0.899   2.413 -0.3855  0.1581 -2.1476
 2347TIP3   OH2 6993   1.219   0.905   2.415  0.0086  0.1402  0.4511
 2347TIP3    H1 6994   1.174   0.827   2.384  0.0771  0.5500 -0.6875
 2347TIP3    H2 6995   1.163   0.978   2.387 -0.6070  0.4748  2.4169
 2348TIP3   OH2 6996   3.491   1.067   2.044 -0.7459  0.1053 -0.8233
 2348TIP3    H1 6997   3.494   0.974   2.066  1.6468  0.0141 -1.3814
 2348TIP3    H2 6998   3.497   1.112   2.128  0.6428 -0.2677 -0.7031
 2349TIP3   OH2 6999   3.349   0.911   0.207 -0.4655  0.1801  0.1521
 2349TIP3    H1 7000   3.415   0.952   0.151 -0.5704 -0.0744 -0.1576
 2349TIP3    H2 7001   3.397   0.844   0.256 -0.1111  1.2644  1.3111
 2350TIP3   OH2 7002   4.997   3.176   3.233 -0.0906 -0.2286 -0.2110
 2350TIP3    H1 7003   5.085   3.143   3.215  0.6233  0.8846  1.1108
 2350TIP3    H2 7004   4.994   3.262   3.191  0.0891  0.4896  1.1900
 2351TIP3   OH2 7005   2.865   1.033   4.117 -0.1022  0.5170  0.1660
 2351TIP3    H1 7006   2.894   1.026   4.026 -0.6728  0.0461  0.0210
 2351TIP3    H2 7007   2.935   0.992   4.168 -0.5497 -0.6903 -0.1859
 2352TIP3   OH2 7008   0.170   1.913   3.001 -0.0223 -0.4695 -0.3069
 2352TIP3    H1 7009   0.188   1.998   3.040  0.3190 -1.3762  1.5887
 2352TIP3    H2 7010   0.076   1.914   2.983 -0.3946 -0.3466  1.4707
 2353TIP3   OH2 7011   1.237   0.588   3.699  0.2289  0.5634 -0.2295
 2353TIP3    H1 7012   1.165   0.613   3.641 -0.5646 -0.5786  0.2605
 2353TIP3    H2 7013   1.303   0.551   3.640 -0.2028  0.2275 -0.5019
 2354TIP3   OH2 7014   0.094   2.128   2.840  0.1731 -0.1494  0.0747
 2354TIP3    H1 7015   0.065   2.149   2.752 -1.4224 -1.9136  0.1317
 2354TIP3    H2 7016   0.022   2.156   2.896  1.6242  1.9496  0.9580
 2355TIP3   OH2 7017   3.160   1.852   3.365 -0.1453  0.1240  0.1430
 2355TIP3    H1 7018   3.233   1.878   3.421  0.2336  1.3298 -0.9006
 2355TIP3    H2 7019   3.185   1.766   3.332 -1.4611 -1.7365  3.6892
 2356TIP3   OH2 7020   0.744   7.092   4.125 -0.2517 -0.4022 -0.1724
 2356TIP3    H1 7021   0.789   7.098   4.209 -0.4070 -0.3246 -0.0964
 2356TIP3    H2 7022   0.689   7.014   4.132 -0.1628 -0.4726 -0.2503
 2357TIP3   OH2 7023   6.622   1.552   3.379  0.3615 -0.3660 -0.0534
 2357TIP3    H1 7024   6.566   1.564   3.456  1.1088 -2.6379  0.8894
 2357TIP3    H2 7025   6.700   1.603   3.397  0.5017 -0.8314  0.6875
 2358TIP3   OH2 7026   6.140   1.346   2.360 -0.1112  0.2554  0.0440
 2358TIP3    H1 7027   6.056   1.365   2.402 -0.6914  0.5186 -1.2050
 2358TIP3    H2 7028   6.190   1.298   2.426 -1.5893 -0.7027  0.4868
 2359TIP3   OH2 7029   2.382   0.917   5.369 -0.1232  0.0031  0.5610
 2359TIP3    H1 7030   2.421   1.004   5.382  2.1150 -0.9070  0.1278
 2359TIP3    H2 7031   2.398   0.871   5.452  0.8297 -0.7740 -0.0414
 2360TIP3   OH2 7032   4.230   2.554   4.387  0.4178  0.1868 -0.1633
 2360TIP3    H1 7033   4.184   2.512   4.314 -2.2934  0.9679  1.0372
 2360TIP3    H2 7034   4.264   2.482   4.439 -1.5708 -0.5069  0.2263
 2361TIP3   OH2 7035   1.406   3.569   2.780  0.0680 -0.4350  0.0941
 2361TIP3    H1 7036   1.371   3.657   2.769  1.1382 -0.1817 -1.4872
 2361TIP3    H2 7037   1.472   3.578   2.849 -0.6402 -0.2428  0.7503
 2362TIP3   OH2 7038   2.802   4.278   3.755 -0.1253 -0.2787  0.2556
 2362TIP3    H1 7039   2.849   4.287   3.673 -0.6921  1.1620  0.0747
 2362TIP3    H2 7040   2.723   4.331   3.744 -1.0483 -1.4362  1.1046
 2363TIP3   OH2 7041   0.703   2.840   2.847  0.2007  0.0326 -0.3009
 2363TIP3    H1 7042   0.706   2.749   2.816 -0.1554  0.9586 -3.2112
 2363TIP3    H2 7043   0.784   2.850   2.898  0.1244 -1.9729  0.2795
 2364TIP3   OH2 7044   4.278   0.808   3.100  0.1056  0.4638  0.3998
 2364TIP3    H1 7045   4.312   0.735   3.049  0.4652  1.6358 -1.0881
 2364TIP3    H2 7046   4.223   0.768   3.167 -1.1344 -1.0669 -1.4915
 2365TIP3   OH2 7047   2.797   2.287   3.571 -0.0596 -0.9906 -0.0855
 2365TIP3    H1 7048   2.786   2.352   3.640  1.3251 -2.5117  1.6215
 2365TIP3    H2 7049   2.713   2.287   3.525 -0.4904  1.1132  0.6571
 2366TIP3   OH2 7050   7.706   0.509   2.731  0.4282  0.5426 -0.1371
 2366TIP3    H1 7051   7.780   0.506   2.792 -0.5409 -0.4133  1.0289
 2366TIP3    H2 7052   7.699   0.419   2.699 -0.4615  0.5343  0.0697
 2367TIP3   OH2 7053   4.012   0.452   3.046 -0.2890  0.3530 -0.2439
 2367TIP3    H1 7054   3.972   0.372   3.013  1.9624 -0.1941 -1.7470
 2367TIP3    H2 7055   4.025   0.435   3.139 -1.2230 -0.4170 -0.2448
 2368TIP3   OH2 7056   2.512   2.424   2.439 -0.2596 -0.2559 -0.2809
 2368TIP3    H1 7057   2.590   2.445   2.387 -0.7007  0.6095 -0.6048
 2368TIP3    H2 7058   2.545   2.370   2.511  0.7659  0.8142  0.0610
 2369TIP3   OH2 7059   1.601   0.678   1.795 -0.4978  0.0895  0.0417
 2369TIP3    H1 7060   1.538   0.610   1.772 -1.7739  0.7602  1.4803
 2369TIP3    H2 7061   1.685   0.632   1.800 -1.6282 -1.7777  2.8502
 2370TIP3   OH2 7062   2.226   1.935   2.473 -0.0919 -0.1592  0.1551
 2370TIP3    H1 7063   2.175   1.914   2.395  2.4059 -1.9053 -1.0742
 2370TIP3    H2 7064   2.230   2.030   2.474 -1.5289 -0.0595 -0.9148
 2371TIP3   OH2 7065   3.326   0.755   2.732  0.0681 -0.1852  0.2105
 2371TIP3    H1 7066   3.243   0.707   2.732 -0.3736  0.5629  1.0297
 2371TIP3    H2 7067   3.303   0.842   2.764  1.0486  0.2469 -0.2488
 2372TIP3   OH2 7068   3.290   1.653   5.523  0.2217  0.4712  0.1695
 2372TIP3    H1 7069   3.265   1.668   5.432 -0.6725  1.4054  0.5490
 2372TIP3    H2 7070   3.224   1.593   5.556  0.9894 -0.4752 -0.0026
 2373TIP3   OH2 7071   2.943   1.401   2.576 -0.7604  0.9322 -0.4614
 2373TIP3    H1 7072   2.924   1.362   2.491  0.1865 -1.1730  0.2597
 2373TIP3    H2 7073   2.878   1.364   2.635 -2.0180  3.1210 -0.4186
 2374TIP3   OH2 7074   2.943   2.309   2.567  0.0421  0.2441  0.0686
 2374TIP3    H1 7075   3.006   2.238   2.576  1.5216  1.6007  0.5566
 2374TIP3    H2 7076   2.881   2.296   2.639  0.5480 -0.2895  0.4054
 2375TIP3   OH2 7077   1.864   2.431   3.212 -0.1393 -0.0923  0.5273
 2375TIP3    H1 7078   1.835   2.387   3.133 -0.9061 -1.5325  1.5760
 2375TIP3    H2 7079   1.792   2.489   3.236  0.3401  0.7815 -0.1598
 2376TIP3   OH2 7080   4.027   6.464   6.093 -0.7948  0.2113 -0.2445
 2376TIP3    H1 7081   4.022   6.488   6.185 -0.4689  0.4912 -0.2994
 2376TIP3    H2 7082   4.024   6.548   6.046  1.4632  0.2626 -0.3935
 2377TIP3   OH2 7083   5.412   7.137   4.184 -0.2128 -0.3810  0.8079
 2377TIP3    H1 7084   5.482   7.198   4.207 -1.4863  2.2639 -2.0086
 2377TIP3    H2 7085   5.340   7.160   4.243 -0.7573  1.0261 -0.3785
 2378TIP3   OH2 7086   1.400   3.713   4.314 -0.5095 -0.0151  0.1813
 2378TIP3    H1 7087   1.481   3.763   4.321 -0.4746 -0.2093  1.3016
 2378TIP3    H2 7088   1.338   3.760   4.369 -1.7101  1.1794 -2.1334
 2379TIP3   OH2 7089   3.525   2.769   4.675 -0.2673  0.5852 -0.7525
 2379TIP3    H1 7090   3.494   2.681   4.656 -1.1517  0.5901  0.5795
 2379TIP3    H2 7091   3.592   2.786   4.609 -0.2498 -0.9927 -1.1543
 2380TIP3   OH2 7092   1.291   1.890   2.938  0.3558  0.5266  0.3034
 2380TIP3    H1 7093   1.330   1.975   2.959  0.7423  0.0265  1.7015
 2380TIP3    H2 7094   1.355   1.826   2.970 -1.1577 -0.3019  1.7209
 2381TIP3   OH2 7095   2.631   2.917   3.032  1.0090 -0.0142 -0.1023
 2381TIP3    H1 7096   2.682   2.841   3.063  2.0902  0.1962 -1.2955
 2381TIP3    H2 7097   2.691   2.991   3.041 -0.3122  0.8592  1.7893
 2382TIP3   OH2 7098   2.678   2.350   4.747  0.1112  0.4558 -0.1559
 2382TIP3    H1 7099   2.679   2.444   4.761 -1.2483  0.4973 -0.2452
 2382TIP3    H2 7100   2.588   2.324   4.767  0.5738 -0.8814  0.2549
 2383TIP3   OH2 7101   1.691   3.907   3.325  0.1729 -0.2936 -0.2901
 2383TIP3    H1 7102   1.724   3.889   3.413  0.2411  0.5159 -0.1385
 2383TIP3    H2 7103   1.726   3.837   3.271  0.3235 -0.6678  0.2868
 2384TIP3   OH2 7104   4.551   1.827   3.252 -0.1131  0.4955 -0.3190
 2384TIP3    H1 7105   4.547   1.831   3.157 -0.8000 -0.8983 -0.3478
 2384TIP3    H2 7106   4.460   1.834   3.281  0.1272  1.4345  0.2747
 2385TIP3   OH2 7107   1.455   3.130   3.059  0.5071 -0.0234 -0.1551
 2385TIP3    H1 7108   1.444   3.220   3.088 -0.0182 -0.1585  0.0541
 2385TIP3    H2 7109   1.367   3.093   3.057  0.7536 -0.6426  0.1028
 2386TIP3   OH2 7110   3.331   0.198   3.177 -0.2054  0.1003 -0.2748
 2386TIP3    H1 7111   3.375   0.248   3.108 -0.1270 -1.2849 -1.2577
 2386TIP3    H2 7112   3.338   0.252   3.255  0.7241  1.1756 -1.0968
 2387TIP3   OH2 7113   2.018   2.177   2.556  0.0786  0.4073 -0.2684
 2387TIP3    H1 7114   2.102   2.206   2.520  0.1897  0.3290 -0.0719
 2387TIP3    H2 7115   1.956   2.243   2.527  0.6370  1.8765  1.7578
 2388TIP3   OH2 7116   5.341   5.560   0.830 -0.5330 -0.1903  0.4839
 2388TIP3    H1 7117   5.278   5.552   0.901 -0.6629  2.4560  0.7285
 2388TIP3    H2 7118   5.391   5.639   0.851  1.0362 -0.6986 -1.1296
 2389TIP3   OH2 7119   3.531   3.300   5.383  0.1490  0.1471  0.3055
 2389TIP3    H1 7120   3.471   3.375   5.388  0.2394  0.2922 -0.7139
 2389TIP3    H2 7121   3.484   3.236   5.330  1.2577  0.6234 -1.3077
 2390TIP3   OH2 7122   3.650   1.931   2.316  0.0436 -0.1992  0.2747
 2390TIP3    H1 7123   3.584   1.971   2.373  0.7321 -0.1736  1.0734
 2390TIP3    H2 7124   3.732   1.975   2.341  0.2076  0.4404 -1.3706
 2391TIP3   OH2 7125   2.037   1.900   2.245 -0.0884  0.1119  0.2841
 2391TIP3    H1 7126   1.993   1.839   2.186  0.2029  0.1861 -0.0103
 2391TIP3    H2 7127   2.099   1.947   2.189  0.8846 -0.5059  0.8368
 2392TIP3   OH2 7128   1.977   3.208   0.537  0.0654  0.0639 -0.3700
 2392TIP3    H1 7129   1.933   3.290   0.561 -0.4489 -0.2092 -0.3766
 2392TIP3    H2 7130   2.068   3.234   0.520 -0.4415  0.8928 -1.9211
 2393TIP3   OH2 7131   3.468   1.343   2.640  0.3317  0.1537  0.1221
 2393TIP3    H1 7132   3.381   1.307   2.657  0.3169  0.5921  0.9801
 2393TIP3    H2 7133   3.486   1.319   2.549 -0.7755  0.2533 -0.1288
 2394TIP3   OH2 7134   2.004   2.007   4.623 -0.7056 -0.6158 -0.1439
 2394TIP3    H1 7135   1.934   1.976   4.566 -0.2605  1.6368 -1.9854
 2394TIP3    H2 7136   2.003   2.103   4.613  0.1771 -0.2495  2.7006
 2395TIP3   OH2 7137   2.305   2.182   3.253 -0.4383  0.1738 -0.1789
 2395TIP3    H1 7138   2.276   2.204   3.342  0.8834 -0.1205  0.3515
 2395TIP3    H2 7139   2.346   2.096   3.262 -1.6416 -0.5284 -1.3734
 2396TIP3   OH2 7140   0.173   7.149   3.662 -0.6515  0.5418  0.2074
 2396TIP3    H1 7141   0.163   7.230   3.711  1.7182  0.3512  1.1038
 2396TIP3    H2 7142   0.262   7.153   3.627 -1.1464 -0.8502 -1.2839
 2397TIP3   OH2 7143   3.898   0.790   2.064  0.2280 -0.2182  0.2459
 2397TIP3    H1 7144   3.904   0.699   2.093 -0.8677  0.2994  2.1672
 2397TIP3    H2 7145   3.989   0.819   2.056  0.5710 -1.2758  0.2325
 2398TIP3   OH2 7146   3.751   4.140   5.126  0.2538 -0.4228 -0.1598
 2398TIP3    H1 7147   3.757   4.074   5.057  0.9572 -0.0048 -0.5074
 2398TIP3    H2 7148   3.816   4.206   5.101 -0.3445  0.3317  0.2560
 2399TIP3   OH2 7149   3.573   1.482   2.356 -0.1935  0.4214 -0.3637
 2399TIP3    H1 7150   3.494   1.430   2.344 -0.9559  1.2838  0.8423
 2399TIP3    H2 7151   3.548   1.570   2.328  0.6417  0.4834 -0.9469
 2400TIP3   OH2 7152   1.195   1.471   3.046  0.5892  0.5204  0.2367
 2400TIP3    H1 7153   1.209   1.391   2.995 -0.2782  0.5503 -0.0607
 2400TIP3    H2 7154   1.281   1.513   3.050  0.7398  0.3203 -0.8714
 2401TIP3   OH2 7155   4.619   1.306   2.762  0.2478 -0.0820 -0.2197
 2401TIP3    H1 7156   4.657   1.246   2.697 -0.0384 -0.5257  0.0175
 2401TIP3    H2 7157   4.693   1.330   2.818  0.1774 -1.0008  0.2824
 2402TIP3   OH2 7158   1.909   0.633   3.058  0.0100 -0.3327  0.6098
 2402TIP3    H1 7159   1.822   0.669   3.074 -0.1990 -0.2059 -0.7483
 2402TIP3    H2 7160   1.894   0.539   3.048 -0.1662 -0.1468 -0.9517
 2403TIP3   OH2 7161   3.132   0.991   3.657  0.1315 -0.6096  0.0509
 2403TIP3    H1 7162   3.152   0.904   3.622 -2.8035 -0.5269 -2.0962
 2403TIP3    H2 7163   3.168   1.052   3.593 -1.4904 -0.3700 -0.6686
 2404TIP3   OH2 7164   3.011   1.036   2.710 -0.1585 -0.3585  0.1249
 2404TIP3    H1 7165   2.989   0.946   2.735 -0.3262  0.5953  3.5974
 2404TIP3    H2 7166   3.072   1.066   2.777  1.2937  1.5796 -1.9540
 2405TIP3   OH2 7167   7.711   6.909   2.011  0.1820  0.2116 -0.1984
 2405TIP3    H1 7168   7.658   6.875   2.083 -0.3774  1.0890 -0.1897
 2405TIP3    H2 7169   7.799   6.914   2.046 -0.0695  0.5403  0.3987
 2406TIP3   OH2 7170   6.712   2.305   3.209 -0.1426  0.3845  0.1508
 2406TIP3    H1 7171   6.798   2.345   3.226  0.6778 -0.3453 -2.0484
 2406TIP3    H2 7172   6.733   2.219   3.172 -1.8540 -0.3837  0.9377
 2407TIP3   OH2 7173   2.391   0.511   1.594  0.2386  0.8261  0.1821
 2407TIP3    H1 7174   2.461   0.505   1.529  0.5602 -1.8821  0.7501
 2407TIP3    H2 7175   2.333   0.438   1.575 -1.0916  1.5468  1.3291
 2408TIP3   OH2 7176   3.954   2.341   0.332 -0.4627 -0.0737 -0.4608
 2408TIP3    H1 7177   3.916   2.270   0.280 -0.5224 -0.9306  0.7247
 2408TIP3    H2 7178   3.901   2.417   0.312 -0.2560 -0.3029 -1.9342
 2409TIP3   OH2 7179   7.529   1.392   4.176 -0.1283  0.1791  0.3104
 2409TIP3    H1 7180   7.514   1.411   4.269  1.8456 -1.6668  1.0498
 2409TIP3    H2 7181   7.614   1.432   4.157  0.7722 -1.7874  0.0621
 2410TIP3   OH2 7182   7.385   6.591   3.808  0.0857  0.1406  0.5561
 2410TIP3    H1 7183   7.470   6.632   3.827 -0.6051  2.1881 -0.6039
 2410TIP3    H2 7184   7.407   6.511   3.760  1.3916  0.1231  1.1632
 2411TIP3   OH2 7185   4.879   5.830   4.381 -0.5458  0.4227 -0.5855
 2411TIP3    H1 7186   4.953   5.873   4.340 -0.6914 -0.1227 -1.4391
 2411TIP3    H2 7187   4.820   5.901   4.407  0.1831  0.8428 -0.0849
 2412TIP3   OH2 7188   3.143   2.034   5.429 -0.2243  0.1897 -0.1053
 2412TIP3    H1 7189   3.113   2.056   5.340  1.3578 -0.3623 -0.7991
 2412TIP3    H2 7190   3.145   2.118   5.474 -1.7308  0.3880 -0.3545
 2413TIP3   OH2 7191   6.432   5.225   3.542  0.3304 -0.4642  0.3003
 2413TIP3    H1 7192   6.486   5.213   3.464  0.0398  0.0686  0.0184
 2413TIP3    H2 7193   6.404   5.317   3.539 -1.7014 -1.0787 -0.2543
 2414TIP3   OH2 7194   4.046   0.898   2.922 -0.1147 -0.3430 -0.1197
 2414TIP3    H1 7195   3.993   0.832   2.967  1.6464 -1.6612  0.0758
 2414TIP3    H2 7196   4.135   0.884   2.955  0.6948  0.5932 -1.8377
 2415TIP3   OH2 7197   3.128   0.681   1.398  0.1007  0.4275  0.1776
 2415TIP3    H1 7198   3.197   0.734   1.358  0.6740  1.1269  2.0532
 2415TIP3    H2 7199   3.126   0.601   1.345  0.8026  1.3531 -1.2667
 2416TIP3   OH2 7200   3.365   2.370   4.286 -0.1372 -0.3593 -0.0507
 2416TIP3    H1 7201   3.455   2.402   4.288 -0.1824 -0.2665  1.7576
 2416TIP3    H2 7202   3.324   2.417   4.213  0.4106  2.1306  1.1640
 2417TIP3   OH2 7203   1.035   2.146   3.086  0.7212 -0.3650 -0.3656
 2417TIP3    H1 7204   1.018   2.191   3.169 -1.8770 -1.4032 -0.3050
 2417TIP3    H2 7205   1.081   2.066   3.111  0.0418 -0.6219  0.0671
 2418TIP3   OH2 7206   2.499   0.756   2.566  0.5631 -0.5091  0.0732
 2418TIP3    H1 7207   2.531   0.830   2.516  0.1554 -0.8816 -0.7474
 2418TIP3    H2 7208   2.415   0.785   2.602  0.2895 -0.6561 -0.4459
 2419TIP3   OH2 7209   1.027   1.114   2.053  0.3229 -0.4344 -0.0579
 2419TIP3    H1 7210   1.021   1.097   2.147  0.7503 -0.5529 -0.0513
 2419TIP3    H2 7211   1.022   1.028   2.012  2.5416 -0.6157 -0.0205
 2420TIP3   OH2 7212   3.009   1.835   5.118 -1.0042 -0.0781  0.2705
 2420TIP3    H1 7213   2.950   1.806   5.048 -0.8959 -1.1179  0.5981
 2420TIP3    H2 7214   3.004   1.930   5.115 -2.5308 -0.1443  0.1389
 2421TIP3   OH2 7215   4.845   6.869   1.163 -0.6287  0.1261 -0.6250
 2421TIP3    H1 7216   4.895   6.882   1.083 -1.1980 -1.2226 -1.2148
 2421TIP3    H2 7217   4.910   6.873   1.233  0.1476 -0.5045 -1.2935
 2422TIP3   OH2 7218   2.398   0.960   2.857  0.4228  0.7453  0.2827
 2422TIP3    H1 7219   2.363   1.047   2.836 -0.6412  0.0210 -1.0426
 2422TIP3    H2 7220   2.339   0.899   2.813  1.1760 -0.6612  1.1765
 2423TIP3   OH2 7221   0.551   7.289   2.462  0.0933 -0.4784  0.3523
 2423TIP3    H1 7222   0.607   7.365   2.445 -0.1074 -0.5039 -0.4816
 2423TIP3    H2 7223   0.475   7.325   2.506 -0.8966  0.1215 -1.7728
 2424TIP3   OH2 7224   3.324   3.946   4.421  0.8470  0.5226  0.2645
 2424TIP3    H1 7225   3.349   3.873   4.479 -1.4604  1.8562  3.0773
 2424TIP3    H2 7226   3.296   3.903   4.340  2.2890 -1.5411  0.7953
 2425TIP3   OH2 7227   2.025   0.432   1.362 -0.9330  0.2007 -0.1197
 2425TIP3    H1 7228   2.033   0.522   1.331  0.7144  0.5088  1.1515
 2425TIP3    H2 7229   2.104   0.417   1.414 -2.6731 -0.9447  2.2806
 2426TIP3   OH2 7230   0.699   1.260   4.375 -0.0175 -0.0497 -0.2558
 2426TIP3    H1 7231   0.784   1.217   4.389 -0.8925 -1.1412  1.8791
 2426TIP3    H2 7232   0.699   1.332   4.438 -1.0860 -0.6547  0.4400
 2427TIP3   OH2 7233   2.187   1.708   1.993 -0.0562 -0.1864 -0.0835
 2427TIP3    H1 7234   2.199   1.791   2.039  3.1982  0.5894 -2.1099
 2427TIP3    H2 7235   2.240   1.646   2.042 -1.0583 -0.6412  0.4154
 2428TIP3   OH2 7236   2.183   1.419   3.319 -0.5853 -0.2744 -0.2972
 2428TIP3    H1 7237   2.156   1.508   3.344 -1.3927 -0.3053 -1.0556
 2428TIP3    H2 7238   2.268   1.407   3.363 -0.7431  0.6531  0.2768
 2429TIP3   OH2 7239   3.099   0.504   2.222  0.1302  0.4413  0.0138
 2429TIP3    H1 7240   3.143   0.477   2.141  0.3215  1.2397 -0.1548
 2429TIP3    H2 7241   3.008   0.476   2.210  0.1987  0.3921 -0.4016
 2430TIP3   OH2 7242   2.309   2.935   3.755 -0.0510 -0.1138 -0.6275
 2430TIP3    H1 7243   2.239   2.876   3.728 -1.3556 -0.7618  3.7737
 2430TIP3    H2 7244   2.270   3.022   3.751 -1.2031 -0.4760  1.8220
 2431TIP3   OH2 7245   3.868   3.046   2.726  0.1366  0.5563  0.5349
 2431TIP3    H1 7246   3.829   3.074   2.644  2.8676  0.4860 -0.8203
 2431TIP3    H2 7247   3.870   2.950   2.720  1.7247  0.6173  0.0199
 2432TIP3   OH2 7248   2.772   3.299   4.290 -0.0875  0.1110 -0.0732
 2432TIP3    H1 7249   2.755   3.223   4.345  0.9654 -0.5872 -0.7098
 2432TIP3    H2 7250   2.689   3.314   4.243  0.3256 -1.9531 -1.5434
 2433TIP3   OH2 7251   1.158   2.767   1.995 -0.4129 -0.1498 -0.2158
 2433TIP3    H1 7252   1.112   2.699   2.044 -2.6347  0.6507 -1.1221
 2433TIP3    H2 7253   1.090   2.832   1.976  0.7678  0.3403 -2.9102
 2434TIP3   OH2 7254   1.576   2.376   1.978  0.0789  0.3621 -0.3773
 2434TIP3    H1 7255   1.624   2.415   1.905 -0.8346  0.2268 -1.0625
 2434TIP3    H2 7256   1.484   2.389   1.955 -0.2131  0.1464  0.6597
 2435TIP3   OH2 7257   2.138   2.473   3.116 -0.5725 -0.1988 -0.5669
 2435TIP3    H1 7258   2.194   2.527   3.171  0.5249 -1.3348 -0.5553
 2435TIP3    H2 7259   2.056   2.465   3.165 -0.4490  0.7428 -0.1897
 2436TIP3   OH2 7260   1.801   1.459   2.363  0.4409  0.0376  0.4817
 2436TIP3    H1 7261   1.769   1.525   2.302 -1.0370  0.1697  1.3817
 2436TIP3    H2 7262   1.771   1.376   2.327  1.3729 -0.0736 -0.0703
 2437TIP3   OH2 7263   5.541   2.488   2.928  0.5592 -0.6911  0.6304
 2437TIP3    H1 7264   5.502   2.414   2.975  1.0825 -0.0380  2.0994
 2437TIP3    H2 7265   5.574   2.546   2.996  2.7775 -0.4968 -0.5482
 2438TIP3   OH2 7266   2.470   2.015   3.669  0.4197  0.4382 -0.2690
 2438TIP3    H1 7267   2.517   2.002   3.587  0.8715  0.0956  0.0458
 2438TIP3    H2 7268   2.497   1.942   3.725  0.1418  0.6887  0.1971
 2439TIP3   OH2 7269   1.945   0.663   2.348  0.2221 -0.4586  0.6669
 2439TIP3    H1 7270   1.965   0.578   2.307  0.3420  0.1718 -0.6000
 2439TIP3    H2 7271   1.849   0.665   2.354  0.1496 -0.1839 -0.4162
 2440TIP3   OH2 7272   3.194   3.305   5.937  0.1721 -0.0768 -0.1104
 2440TIP3    H1 7273   3.224   3.273   5.852 -0.4503 -0.1465 -0.3081
 2440TIP3    H2 7274   3.116   3.357   5.917  0.0586 -0.0413  0.4127
 2441TIP3   OH2 7275   1.258   0.323   0.379  0.3909 -0.2569  0.4539
 2441TIP3    H1 7276   1.310   0.248   0.348  1.4422  0.6537 -0.0206
 2441TIP3    H2 7277   1.260   0.316   0.474  1.0813 -0.4295  0.4271
 2442TIP3   OH2 7278   0.379   1.628   4.736 -0.4308  0.5771  0.1327
 2442TIP3    H1 7279   0.293   1.608   4.697  0.5414  1.4493 -2.5671
 2442TIP3    H2 7280   0.365   1.711   4.781 -0.9317  0.8834 -0.5706
 2443TIP3   OH2 7281   3.245   2.975   2.828 -0.0191  0.4698  0.2934
 2443TIP3    H1 7282   3.335   2.947   2.810  0.2234  1.9904 -1.0069
 2443TIP3    H2 7283   3.211   3.001   2.742 -0.8905  2.1865  1.1344
 2444TIP3   OH2 7284   3.353   0.335   3.398  0.3900 -0.1272 -0.3719
 2444TIP3    H1 7285   3.315   0.266   3.453 -0.1061 -1.0898 -1.8948
 2444TIP3    H2 7286   3.421   0.374   3.453 -1.4741  0.3421  1.6938
 2445TIP3   OH2 7287   1.872   1.480   2.639 -0.3021 -0.3136 -0.0539
 2445TIP3    H1 7288   1.926   1.553   2.670  0.3965 -1.4241  1.3798
 2445TIP3    H2 7289   1.849   1.505   2.549 -0.1539  1.7082  0.4428
 2446TIP3   OH2 7290   7.737   1.477   3.560 -0.3159 -0.5725 -0.0522
 2446TIP3    H1 7291   7.757   1.453   3.469 -1.6442 -1.3046 -0.1666
 2446TIP3    H2 7292   7.713   1.394   3.601  0.0045 -0.1938  0.8919
 2447TIP3   OH2 7293   2.070   0.690   1.412  0.2483  0.3393 -0.2567
 2447TIP3    H1 7294   2.034   0.776   1.389  3.2909  1.6602 -0.3510
 2447TIP3    H2 7295   2.091   0.697   1.505  0.2656 -0.3840 -0.2063
 2448TIP3   OH2 7296   1.004   2.068   3.483  0.0695  0.5376 -0.2490
 2448TIP3    H1 7297   0.922   2.075   3.531 -1.2732 -0.4404 -2.3307
 2448TIP3    H2 7298   0.984   2.101   3.395  1.7012 -0.4279 -1.0131
 2449TIP3   OH2 7299   6.567   1.911   3.159 -0.0048 -0.1677 -0.4179
 2449TIP3    H1 7300   6.645   1.959   3.131 -0.4616  0.1479 -1.1864
 2449TIP3    H2 7301   6.583   1.821   3.130 -0.2835  0.0671 -1.3365
 2450TIP3   OH2 7302   3.974   2.333   3.300  0.2344  0.0048  0.2327
 2450TIP3    H1 7303   3.977   2.278   3.222  0.1689  1.0031 -0.4958
 2450TIP3    H2 7304   3.996   2.421   3.268  1.4819  0.1984  1.5590
 2451TIP3   OH2 7305   3.806   1.725   2.637  0.6342 -0.4999 -0.2200
 2451TIP3    H1 7306   3.801   1.701   2.729  0.8677 -0.1938 -0.1274
 2451TIP3    H2 7307   3.881   1.784   2.631 -0.9298  1.5937 -0.1163
 2452TIP3   OH2 7308   0.737   4.220   3.795 -0.1773 -0.5379 -0.5007
 2452TIP3    H1 7309   0.644   4.225   3.771 -0.3876  0.1787  0.4413
 2452TIP3    H2 7310   0.741   4.255   3.884  1.2273  1.1138 -1.1728
 2453TIP3   OH2 7311   0.144   1.038   3.994  0.1187  0.3450  0.0520
 2453TIP3    H1 7312   0.185   1.010   4.076  1.2225 -1.6749 -1.1507
 2453TIP3    H2 7313   0.208   1.016   3.927 -1.6269  0.0824 -1.5559
 2454TIP3   OH2 7314   2.313   3.103   5.221 -0.2005 -0.9655 -0.2861
 2454TIP3    H1 7315   2.264   3.130   5.143 -0.9266 -0.2508  0.3977
 2454TIP3    H2 7316   2.403   3.131   5.203 -0.1809 -1.5976 -1.2339
 2455TIP3   OH2 7317   6.954   6.419   4.209  0.7192  0.4212  0.5536
 2455TIP3    H1 7318   7.017   6.347   4.200 -2.4593 -2.0933 -2.7291
 2455TIP3    H2 7319   6.899   6.394   4.284 -0.8131 -0.9672 -1.0072
 2456TIP3   OH2 7320   3.066   2.471   3.183 -1.0455  1.1337 -0.0412
 2456TIP3    H1 7321   3.143   2.524   3.204 -0.7668  0.8073 -0.2296
 2456TIP3    H2 7322   3.010   2.478   3.260  0.2700 -0.6114  1.1276
 2457TIP3   OH2 7323   7.549   0.088   6.321  0.0049  0.0418  0.7259
 2457TIP3    H1 7324   7.526   0.029   6.248  3.1663 -0.6742  0.2386
 2457TIP3    H2 7325   7.621   0.141   6.287 -0.3675  1.6770  2.4291
 2458TIP3   OH2 7326   3.734   0.696   3.450  0.5759  0.7039 -0.0796
 2458TIP3    H1 7327   3.759   0.745   3.372  0.3493 -1.0521 -1.3082
 2458TIP3    H2 7328   3.812   0.698   3.506  1.4591  0.2533 -1.2676
 2459TIP3   OH2 7329   2.563   2.375   3.394 -0.1591 -0.4183 -0.4332
 2459TIP3    H1 7330   2.498   2.434   3.431  0.8734 -0.6364  1.7839
 2459TIP3    H2 7331   2.640   2.430   3.378 -0.0620 -0.6485 -0.7742
 2460TIP3   OH2 7332   7.288   2.283   3.151  0.6312 -0.4704  0.2384
 2460TIP3    H1 7333   7.358   2.221   3.171  0.6927 -0.1769  0.9451
 2460TIP3    H2 7334   7.251   2.306   3.236 -0.0620 -0.3111 -0.0991
 2461TIP3   OH2 7335   0.234   2.975   2.520 -0.1717  0.3871 -0.1950
 2461TIP3    H1 7336   0.260   3.051   2.571 -0.4106  0.6196 -0.4193
 2461TIP3    H2 7337   0.275   2.988   2.435 -0.4164  0.3886 -0.3130
 2462TIP3   OH2 7338   3.612   1.878   3.578  0.6350 -0.0335 -0.1696
 2462TIP3    H1 7339   3.586   1.838   3.495  0.7133 -0.5463  0.0505
 2462TIP3    H2 7340   3.626   1.803   3.637  4.2786  0.1437 -0.7509
 2463TIP3   OH2 7341   7.571   0.565   3.149  0.0833 -0.1923 -0.4422
 2463TIP3    H1 7342   7.640   0.626   3.125 -0.6076  0.0871 -1.8008
 2463TIP3    H2 7343   7.500   0.583   3.087 -0.6811 -1.3952  0.0476
 2464TIP3   OH2 7344   1.052   3.539   3.391 -0.4532  0.5915 -0.1893
 2464TIP3    H1 7345   1.086   3.579   3.311  1.7581  0.0913  0.4822
 2464TIP3    H2 7346   1.084   3.595   3.462  2.0201 -1.8615  0.7096
 2465TIP3   OH2 7347   2.283   2.591   0.605 -0.2017  0.4479 -0.3264
 2465TIP3    H1 7348   2.350   2.564   0.543 -0.2213  0.5322 -0.3839
 2465TIP3    H2 7349   2.326   2.586   0.691 -0.2718  0.0168 -0.3135
 2466TIP3   OH2 7350   2.727   2.036   5.154  0.1212  0.3928 -0.6173
 2466TIP3    H1 7351   2.649   2.023   5.101  0.0065 -0.8824 -0.1476
 2466TIP3    H2 7352   2.721   2.126   5.185 -1.1471  0.3035 -0.5957
 2467TIP3   OH2 7353   1.803   1.909   3.698  0.0840  0.6068  0.1117
 2467TIP3    H1 7354   1.779   1.955   3.778  0.0552  1.5288 -0.4192
 2467TIP3    H2 7355   1.898   1.900   3.703 -0.1157 -1.3046  1.2795
 2468TIP3   OH2 7356   0.446   4.090   3.395 -0.4863  0.5204  0.2557
 2468TIP3    H1 7357   0.432   4.087   3.300  0.6981  1.0642  0.0645
 2468TIP3    H2 7358   0.432   4.181   3.418  1.4121  0.8271  0.2613
 2469TIP3   OH2 7359   2.997   0.574   4.053 -0.4304  0.2630 -0.3783
 2469TIP3    H1 7360   2.910   0.608   4.075 -1.2341 -1.6903 -0.5035
 2469TIP3    H2 7361   3.057   0.642   4.084 -1.9600  1.2678  0.4509
 2470TIP3   OH2 7362   0.446   1.429   3.801 -0.2377  0.2807 -0.4837
 2470TIP3    H1 7363   0.375   1.399   3.857  0.1407 -0.0513 -0.1717
 2470TIP3    H2 7364   0.479   1.349   3.759 -0.2312  0.4683 -0.8379
 2471TIP3   OH2 7365   1.526   2.937   2.158  0.2972 -0.2369 -0.1050
 2471TIP3    H1 7366   1.613   2.936   2.120  0.1445  0.4442 -0.4863
 2471TIP3    H2 7367   1.467   2.947   2.083 -0.0362  0.5359  0.2436
 2472TIP3   OH2 7368   3.028   2.120   5.099  0.5779 -0.0226 -0.2129
 2472TIP3    H1 7369   3.055   2.212   5.096  1.8148 -0.3211  1.2120
 2472TIP3    H2 7370   2.932   2.124   5.106  0.5886  1.1406 -0.6280
 2473TIP3   OH2 7371   1.989   0.421   2.790 -0.2308 -0.2493  0.0462
 2473TIP3    H1 7372   2.003   0.333   2.754 -2.2244 -0.5367 -0.0639
 2473TIP3    H2 7373   1.926   0.461   2.731  0.7975  1.3367  0.0053
 2474TIP3   OH2 7374   1.300   1.492   2.649  0.0941 -0.0857  0.1562
 2474TIP3    H1 7375   1.272   1.562   2.590  1.3831 -0.3039 -0.7222
 2474TIP3    H2 7376   1.394   1.484   2.635  0.2200 -0.9440  1.3838
 2475TIP3   OH2 7377   3.604   1.985   3.916  0.0781  0.1027  0.3368
 2475TIP3    H1 7378   3.662   2.052   3.953 -0.7937  0.1750  1.6298
 2475TIP3    H2 7379   3.522   2.032   3.899  0.0530 -0.2353 -0.4805
 2476TIP3   OH2 7380   4.006   1.609   3.016  0.1595  0.0508  0.2090
 2476TIP3    H1 7381   3.992   1.638   3.106 -0.1523 -0.9035  0.4672
 2476TIP3    H2 7382   4.098   1.631   2.999  0.7454 -1.3584  1.3713
 2477TIP3   OH2 7383   1.149   0.662   2.890  0.4996 -0.2844  0.9509
 2477TIP3    H1 7384   1.083   0.599   2.861  1.4912 -1.9229  2.1992
 2477TIP3    H2 7385   1.172   0.709   2.810 -0.2574 -1.4880 -0.0074
 2478TIP3   OH2 7386   2.306   1.989   1.651 -0.2859 -0.1920  0.3880
 2478TIP3    H1 7387   2.372   1.955   1.590  0.2827  0.4515  0.6398
 2478TIP3    H2 7388   2.269   1.910   1.692  0.3650 -0.5565  0.2871
 2479TIP3   OH2 7389   3.654   1.389   4.866  0.3776 -0.3534 -0.0117
 2479TIP3    H1 7390   3.669   1.478   4.897  0.8696 -0.5405  0.3015
 2479TIP3    H2 7391   3.723   1.338   4.907 -0.8363 -1.1589  1.0469
 2480TIP3   OH2 7392   7.317   6.510   4.099  0.9635  0.2246  0.0215
 2480TIP3    H1 7393   7.346   6.537   4.012  0.9563  0.1116 -0.0157
 2480TIP3    H2 7394   7.272   6.587   4.134 -0.3985 -0.2460 -0.6884
 2481TIP3   OH2 7395   1.456   7.420   1.345  0.1457  0.5369  0.0107
 2481TIP3    H1 7396   1.464   7.352   1.412 -2.0453 -0.0246 -0.2909
 2481TIP3    H2 7397   1.539   7.415   1.297 -0.8216 -3.4287 -1.4226
 2482TIP3   OH2 7398   3.728   0.433   2.850 -0.2999 -0.0681  0.1119
 2482TIP3    H1 7399   3.793   0.484   2.801 -1.9061  0.5583 -1.4219
 2482TIP3    H2 7400   3.767   0.421   2.936  1.1604  1.6912 -0.2767
 2483TIP3   OH2 7401   2.440   1.543   3.882  0.2062 -0.3872 -0.4223
 2483TIP3    H1 7402   2.434   1.486   3.958 -0.4371  1.0990  0.6541
 2483TIP3    H2 7403   2.456   1.483   3.809  0.4207 -1.8600  0.8034
 2484TIP3   OH2 7404   2.517   2.900   4.972 -0.8144  0.0721  0.3193
 2484TIP3    H1 7405   2.431   2.869   4.999 -0.9741  0.6460  0.4748
 2484TIP3    H2 7406   2.521   2.990   5.003 -1.0407  0.7923 -1.6518
 2485TIP3   OH2 7407   4.563   1.987   2.978  0.2477 -0.0062 -0.0906
 2485TIP3    H1 7408   4.596   2.077   2.974  0.0332  0.1568  1.6498
 2485TIP3    H2 7409   4.470   1.997   2.996  0.1046 -0.5755 -0.5166
 2486TIP3   OH2 7410   1.820   0.545   3.863 -0.2648 -0.1652 -0.0771
 2486TIP3    H1 7411   1.805   0.614   3.928  1.8361  1.8484 -1.6258
 2486TIP3    H2 7412   1.855   0.472   3.914 -1.4103  0.3319  1.4490
 2487TIP3   OH2 7413   3.122   1.181   2.972 -0.2230 -0.2369  0.0042
 2487TIP3    H1 7414   3.135   1.135   3.055  0.0329 -0.3109 -0.0772
 2487TIP3    H2 7415   3.031   1.210   2.975 -0.5737 -1.3166 -0.2368
 2488TIP3   OH2 7416   2.390   1.536   4.953 -0.2872 -0.1914  0.3685
 2488TIP3    H1 7417   2.414   1.453   4.995 -2.0564 -0.2827  1.2702
 2488TIP3    H2 7418   2.355   1.590   5.025 -0.5752  0.7619 -0.4712
 2489TIP3   OH2 7419   3.025   2.763   2.546  0.4721 -0.2131 -0.0674
 2489TIP3    H1 7420   3.048   2.709   2.621  1.2937  0.0215 -0.1477
 2489TIP3    H2 7421   2.931   2.779   2.555  0.0048 -2.5134 -0.6040
 2490TIP3   OH2 7422   4.469   2.747   2.378  0.6154  0.1457  0.1251
 2490TIP3    H1 7423   4.473   2.812   2.448  0.5935 -1.2001  1.3910
 2490TIP3    H2 7424   4.399   2.778   2.321  1.8584  2.2605 -0.3473
 2491TIP3   OH2 7425   3.258   0.963   4.618  0.0215 -0.9929 -0.1622
 2491TIP3    H1 7426   3.260   0.984   4.525  0.6789 -0.0444  0.0546
 2491TIP3    H2 7427   3.281   1.045   4.661 -0.7508 -1.2973  0.8566
 2492TIP3   OH2 7428   2.001   1.588   4.358 -0.1617 -0.2223  0.5352
 2492TIP3    H1 7429   1.916   1.633   4.356  0.0448  0.1704  0.4467
 2492TIP3    H2 7430   2.044   1.621   4.436  0.9268  1.4954 -0.7399
 2493TIP3   OH2 7431   3.070   0.562   0.809  0.0835  0.2368  0.1179
 2493TIP3    H1 7432   3.126   0.493   0.775  0.1638  0.2015  0.3234
 2493TIP3    H2 7433   3.064   0.626   0.737  1.6716  1.0029  0.6575
 2494TIP3   OH2 7434   3.392   1.581   2.772 -0.0546  0.0968  0.8555
 2494TIP3    H1 7435   3.418   1.494   2.742 -3.4774 -0.1799 -1.7009
 2494TIP3    H2 7436   3.431   1.642   2.709 -1.7759 -0.0003 -0.3394
 2495TIP3   OH2 7437   0.406   2.615   1.859  0.2903 -0.1108 -0.1004
 2495TIP3    H1 7438   0.315   2.587   1.860  0.0641  0.6256  1.2558
 2495TIP3    H2 7439   0.403   2.708   1.881  1.3723 -0.1243  0.1473
 2496TIP3   OH2 7440   3.898   2.540   2.677 -0.2338 -0.2491 -0.1731
 2496TIP3    H1 7441   3.816   2.547   2.727 -0.5302  0.4416 -0.7470
 2496TIP3    H2 7442   3.870   2.513   2.590  0.1592 -0.1444 -0.3311
 2497TIP3   OH2 7443   1.430   1.734   3.100 -0.7983  0.2634  0.8642
 2497TIP3    H1 7444   1.522   1.727   3.075 -0.0217  1.0528  3.3573
 2497TIP3    H2 7445   1.426   1.696   3.188 -2.3052  2.8557  1.9488
 2498TIP3   OH2 7446   6.437   6.971   0.421  0.5347  0.2248 -0.0792
 2498TIP3    H1 7447   6.492   7.038   0.380 -1.3002  2.9211  1.7063
 2498TIP3    H2 7448   6.407   6.917   0.348  1.7302  1.5716 -1.6040
 2499TIP3   OH2 7449   2.792   4.686   5.770 -0.2256 -0.4041 -0.5996
 2499TIP3    H1 7450   2.792   4.715   5.861 -0.4812 -1.8219 -0.1246
 2499TIP3    H2 7451   2.809   4.765   5.719  1.5977  0.1117  0.7657
 2500TIP3   OH2 7452   4.572   2.382   5.285 -0.3697 -0.0993  0.4348
 2500TIP3    H1 7453   4.639   2.326   5.326  0.0687 -0.0021 -0.1450
 2500TIP3    H2 7454   4.593   2.380   5.192 -1.9454 -1.0810  0.0862
 2501TIP3   OH2 7455   5.430   0.794   1.517 -0.1729  0.0304  0.3869
 2501TIP3    H1 7456   5.458   0.877   1.556  0.0172  0.1876 -0.0817
 2501TIP3    H2 7457   5.391   0.819   1.433  0.2512 -0.3943  0.0659
 2502TIP3   OH2 7458   3.794   0.649   2.707 -0.1055 -0.1282  0.0311
 2502TIP3    H1 7459   3.794   0.630   2.613  0.9897  0.5988 -0.1209
 2502TIP3    H2 7460   3.717   0.703   2.721 -0.5736 -0.6957 -0.3623
 2503TIP3   OH2 7461   4.575   4.536   2.588 -0.1525  0.3946 -0.5070
 2503TIP3    H1 7462   4.534   4.449   2.593  0.1867  0.3089  1.4391
 2503TIP3    H2 7463   4.504   4.595   2.564 -0.6870 -0.2378 -0.4863
 2504TIP3   OH2 7464   4.758   1.568   1.582  0.7089 -0.3392  0.6149
 2504TIP3    H1 7465   4.768   1.476   1.605  1.9061  0.0656  1.7895
 2504TIP3    H2 7466   4.844   1.607   1.601  0.9308  0.5648 -2.0675
 2505TIP3   OH2 7467   3.515   3.484   2.626 -0.5002  0.6266  0.6922
 2505TIP3    H1 7468   3.442   3.510   2.683 -0.1345  0.0638  1.4380
 2505TIP3    H2 7469   3.478   3.416   2.570 -0.2995 -0.4058  1.7753
 2506TIP3   OH2 7470   1.735   1.033   1.281  0.2574  0.5775  0.1329
 2506TIP3    H1 7471   1.691   1.114   1.307  0.4946  1.0944 -1.0045
 2506TIP3    H2 7472   1.672   0.988   1.225 -0.7764 -1.1819  2.6200
 2507TIP3   OH2 7473   1.322   7.041   3.775 -0.5462 -0.5072  0.0544
 2507TIP3    H1 7474   1.363   6.999   3.699 -0.1101  2.8184 -1.6303
 2507TIP3    H2 7475   1.376   7.014   3.849  2.4331  0.6904 -1.6062
 2508TIP3   OH2 7476   4.792   1.229   2.177  0.3342  0.4285  0.1284
 2508TIP3    H1 7477   4.816   1.195   2.091 -1.0826 -1.1600  0.3442
 2508TIP3    H2 7478   4.832   1.168   2.239  0.7935  1.1909  0.5845
 2509TIP3   OH2 7479   4.362   3.691   4.248 -0.0362  0.2196  0.3668
 2509TIP3    H1 7480   4.278   3.725   4.217  0.0721  0.2074  0.0569
 2509TIP3    H2 7481   4.366   3.602   4.212  0.0160  0.1474  0.5531
 2510TIP3   OH2 7482   2.088   1.866   0.470  0.4943  1.2098  0.0859
 2510TIP3    H1 7483   2.050   1.875   0.557  0.8069  0.6574  0.2798
 2510TIP3    H2 7484   2.146   1.941   0.461  2.1933  0.0651  1.2403
 2511TIP3   OH2 7485   6.742   1.019   2.127 -0.3594  0.3568  0.0470
 2511TIP3    H1 7486   6.664   0.977   2.091 -0.8125  1.2528 -0.0046
 2511TIP3    H2 7487   6.712   1.103   2.160  0.6284  0.8122 -0.1967
 2512TIP3   OH2 7488   1.434   0.841   1.971 -0.0947  0.2889 -0.4374
 2512TIP3    H1 7489   1.372   0.791   2.025 -0.5735 -0.8434 -2.0022
 2512TIP3    H2 7490   1.490   0.774   1.932  0.9740  1.1845 -0.4490
 2513TIP3   OH2 7491   1.572   0.935   0.627 -0.3191 -0.1471 -0.3938
 2513TIP3    H1 7492   1.601   0.863   0.571  2.0677  1.7530 -1.7379
 2513TIP3    H2 7493   1.652   0.964   0.671 -1.5568  0.6137  1.3897
 2514TIP3   OH2 7494   4.780   2.386   4.126  0.3114  0.2625 -0.6372
 2514TIP3    H1 7495   4.758   2.299   4.160 -1.1044  0.6530 -0.4938
 2514TIP3    H2 7496   4.875   2.387   4.121  0.4070 -0.8172  0.6489
 2515TIP3   OH2 7497   0.847   1.120   2.868  0.3087  0.0976  0.6631
 2515TIP3    H1 7498   0.829   1.170   2.948  0.9969  0.6748  0.4676
 2515TIP3    H2 7499   0.778   1.147   2.807 -0.4765 -0.6724  1.1980
 2516TIP3   OH2 7500   3.361   2.539   4.531  0.4354  0.2411  0.2155
 2516TIP3    H1 7501   3.278   2.560   4.572  0.7346  1.1422  0.3688
 2516TIP3    H2 7502   3.365   2.443   4.532 -0.9206  0.1597 -0.4430
 2517TIP3   OH2 7503   0.610   0.777   1.111 -0.3634 -0.1778  0.3623
 2517TIP3    H1 7504   0.663   0.725   1.172  1.6518 -1.9547 -2.7338
 2517TIP3    H2 7505   0.665   0.852   1.090  0.0727 -0.8676 -1.1112
 2518TIP3   OH2 7506   7.258   7.376   2.847  0.5339 -0.0774 -0.3035
 2518TIP3    H1 7507   7.345   7.337   2.841  0.1038 -1.2405  0.8828
 2518TIP3    H2 7508   7.199   7.302   2.858 -0.3833  0.8286  1.0647
 2519TIP3   OH2 7509   2.044   2.359   1.471  0.1251  0.3021  0.0079
 2519TIP3    H1 7510   2.061   2.368   1.565 -1.0397 -1.0702  0.3684
 2519TIP3    H2 7511   2.074   2.271   1.450 -1.0334  0.0498 -0.5914
 2520TIP3   OH2 7512   2.704   2.439   1.750 -0.2398 -0.1034  0.2670
 2520TIP3    H1 7513   2.629   2.386   1.722 -0.1116 -0.5499  0.7608
 2520TIP3    H2 7514   2.780   2.391   1.718 -0.1457  0.1392  0.1237
 2521TIP3   OH2 7515   5.679   6.267   5.633  0.5319  0.0031  0.1420
 2521TIP3    H1 7516   5.748   6.299   5.576  1.3701  1.3567  1.8761
 2521TIP3    H2 7517   5.704   6.297   5.721 -1.3072 -1.0508  1.0603
 2522TIP3   OH2 7518   1.989   3.333   3.678 -0.1093  0.4296  0.1999
 2522TIP3    H1 7519   1.954   3.377   3.601  0.1827  1.3802  0.5932
 2522TIP3    H2 7520   1.915   3.283   3.713 -0.5625  0.9393 -0.0243
 2523TIP3   OH2 7521   3.721   2.434   3.743  0.6408 -0.4551  0.0481
 2523TIP3    H1 7522   3.763   2.437   3.829  2.2498 -2.1068 -0.6634
 2523TIP3    H2 7523   3.730   2.343   3.715  0.6244  0.2038 -2.1307
 2524TIP3   OH2 7524   2.188   1.171   4.330  0.1214  0.3781  0.3304
 2524TIP3    H1 7525   2.241   1.244   4.363 -1.3531  1.1853  0.9481
 2524TIP3    H2 7526   2.227   1.149   4.246  0.7716  1.6611  0.2850
 2525TIP3   OH2 7527   1.526   3.422   3.673  0.4178  0.1247 -0.4343
 2525TIP3    H1 7528   1.615   3.406   3.707 -0.0738 -1.4774  0.1364
 2525TIP3    H2 7529   1.477   3.452   3.749 -0.2876 -1.9484 -0.0406
 2526TIP3   OH2 7530   2.962   5.283   3.643  0.0677 -0.3704  0.1921
 2526TIP3    H1 7531   3.028   5.265   3.576  1.2691 -0.2877  1.3327
 2526TIP3    H2 7532   2.970   5.377   3.659 -2.8358  0.3919 -2.2429
 2527TIP3   OH2 7533   1.012   2.556   2.985  0.8213  0.0142 -0.5981
 2527TIP3    H1 7534   0.948   2.562   2.914  0.2320  1.3877  0.0399
 2527TIP3    H2 7535   1.049   2.643   2.992  1.0553 -0.1757  0.6179
 2528TIP3   OH2 7536   2.869   0.936   1.165 -0.0998  0.4931  0.1907
 2528TIP3    H1 7537   2.904   0.951   1.253  0.7275  2.8896 -0.5259
 2528TIP3    H2 7538   2.907   1.005   1.111 -1.8528  0.0157 -1.7363
 2529TIP3   OH2 7539   2.072   1.732   3.025 -0.0539 -0.8995  0.3397
 2529TIP3    H1 7540   2.068   1.784   3.106 -0.0777  0.8819 -0.7838
 2529TIP3    H2 7541   2.154   1.760   2.983  0.2577 -2.2544  0.0325
 2530TIP3   OH2 7542   2.071   1.891   3.272  0.2755  0.1066  0.0166
 2530TIP3    H1 7543   2.119   1.869   3.351 -0.4518  1.6692  0.9124
 2530TIP3    H2 7544   2.036   1.978   3.288 -0.6687  0.0671 -1.6554
 2531TIP3   OH2 7545   3.534   2.629   2.654 -0.2489 -0.1048  0.2015
 2531TIP3    H1 7546   3.505   2.697   2.593 -1.6762 -1.7945 -1.0672
 2531TIP3    H2 7547   3.539   2.549   2.600  1.3359 -1.0266  1.6568
 2532TIP3   OH2 7548   4.218   0.693   4.339  0.3460 -1.0263  0.1931
 2532TIP3    H1 7549   4.178   0.606   4.336 -2.1678  0.0796 -0.4981
 2532TIP3    H2 7550   4.225   0.718   4.247  1.2107 -0.5554  0.3856
 2533TIP3   OH2 7551   3.551   4.448   2.490  0.4055 -0.0275  0.2758
 2533TIP3    H1 7552   3.468   4.468   2.533  1.6654 -1.0028  3.2596
 2533TIP3    H2 7553   3.547   4.354   2.472  0.0480  0.2994 -1.4649
 2534TIP3   OH2 7554   3.792   3.102   3.285 -0.8442  0.0938  0.4032
 2534TIP3    H1 7555   3.772   3.118   3.193 -3.3653  0.0824  0.9068
 2534TIP3    H2 7556   3.719   3.048   3.317  0.3027 -0.4247  2.2577
 2535TIP3   OH2 7557   0.501   3.398   3.035 -0.2348 -0.2951  0.0155
 2535TIP3    H1 7558   0.489   3.359   3.122 -0.3315  0.4857  0.3545
 2535TIP3    H2 7559   0.510   3.492   3.052 -0.5379 -0.1091 -0.8471
 2536TIP3   OH2 7560   0.817   4.004   3.663 -0.2260  0.4579  0.7158
 2536TIP3    H1 7561   0.803   4.086   3.709 -0.4849  1.4907 -1.1370
 2536TIP3    H2 7562   0.906   3.977   3.687 -1.0853 -0.0875  3.3644
 2537TIP3   OH2 7563   3.571   1.633   3.227 -0.1244 -0.3695  0.3750
 2537TIP3    H1 7564   3.597   1.576   3.154  0.5092 -0.0090  0.3129
 2537TIP3    H2 7565   3.547   1.573   3.297 -1.0903 -0.7221 -0.2571
 2538TIP3   OH2 7566   2.914   1.180   2.075  0.0313 -0.0067 -0.4285
 2538TIP3    H1 7567   2.874   1.254   2.029  0.1299  0.5839  0.4199
 2538TIP3    H2 7568   3.005   1.208   2.090 -0.2410  0.1972  0.9290
 2539TIP3   OH2 7569   2.729   1.628   2.100  0.7335  0.2862  0.1993
 2539TIP3    H1 7570   2.743   1.686   2.176 -0.5225  1.3491 -0.3613
 2539TIP3    H2 7571   2.725   1.540   2.138  0.9490  0.7331  1.2813
 2540TIP3   OH2 7572   3.297   1.748   3.027 -0.1365 -0.2799  0.0887
 2540TIP3    H1 7573   3.286   1.680   3.093  0.0316  0.3074  0.7229
 2540TIP3    H2 7574   3.351   1.815   3.069 -0.2050  0.1988 -0.5682
 2541TIP3   OH2 7575   7.668   1.080   3.006 -0.2930 -0.3376 -0.4095
 2541TIP3    H1 7576   7.631   1.126   2.930 -1.2944  1.3350  1.0673
 2541TIP3    H2 7577   7.676   0.989   2.976  0.0342  0.4236 -2.7701
 2542TIP3   OH2 7578   0.862   0.493   5.293 -0.9044  0.3725 -0.1022
 2542TIP3    H1 7579   0.946   0.520   5.329 -0.7735 -0.5968  0.3440
 2542TIP3    H2 7580   0.814   0.457   5.368 -2.3457  2.3720 -0.0242
 2543TIP3   OH2 7581   4.880   2.564   3.865  0.1699 -0.7098 -0.1011
 2543TIP3    H1 7582   4.952   2.517   3.823 -0.5130  1.2370 -3.6019
 2543TIP3    H2 7583   4.923   2.633   3.915  0.8855 -1.5352  0.4392
 2544TIP3   OH2 7584   6.659   7.375   3.571  0.2170  0.0840 -0.0739
 2544TIP3    H1 7585   6.690   7.452   3.522 -2.3439 -0.8788 -3.4216
 2544TIP3    H2 7586   6.665   7.303   3.509 -0.2337 -1.8818  2.0870
 2545TIP3   OH2 7587   0.614   0.073   2.951  0.6611  0.2920  0.2011
 2545TIP3    H1 7588   0.538   0.108   2.997 -0.3189  0.9538 -1.8683
 2545TIP3    H2 7589   0.648   0.147   2.901  1.6076 -0.4569 -0.2816
 2546TIP3   OH2 7590   0.202   2.786   2.706 -0.0079 -0.3128 -0.3560
 2546TIP3    H1 7591   0.226   2.849   2.638 -0.3603  1.3734  1.0645
 2546TIP3    H2 7592   0.272   2.792   2.770 -1.0839  0.1157  0.7847
 2547TIP3   OH2 7593   1.764   1.862   0.971  0.1294  0.1953 -0.4236
 2547TIP3    H1 7594   1.707   1.844   0.896  0.9163 -0.8955 -0.7746
 2547TIP3    H2 7595   1.798   1.776   0.996  0.8618  0.7146  0.3861
 2548TIP3   OH2 7596   2.664   0.825   4.439  0.7552 -0.3566 -0.1706
 2548TIP3    H1 7597   2.723   0.884   4.486 -0.7472  1.1486 -0.1593
 2548TIP3    H2 7598   2.641   0.872   4.359  0.6576 -1.5260 -0.8453
 2549TIP3   OH2 7599   1.906   3.959   2.709 -0.5277  0.3236  0.1326
 2549TIP3    H1 7600   1.915   3.873   2.752  1.9326  1.5562  2.2634
 2549TIP3    H2 7601   1.856   4.012   2.771 -1.9859  0.4872 -1.1525
 2550TIP3   OH2 7602   2.307   1.831   2.990  0.1562 -0.3221  0.3840
 2550TIP3    H1 7603   2.373   1.859   3.053 -0.1123  1.1553  0.0209
 2550TIP3    H2 7604   2.343   1.854   2.905 -0.0353 -1.1680  0.0707
 2551TIP3   OH2 7605   2.100   0.169   2.747 -0.2895  0.1457 -0.1707
 2551TIP3    H1 7606   2.186   0.153   2.708  0.0938 -0.1204  0.7675
 2551TIP3    H2 7607   2.062   0.082   2.758  0.9585 -0.0817  3.0495
 2552TIP3   OH2 7608   0.150   6.915   4.039 -0.4358  0.5931 -0.0774
 2552TIP3    H1 7609   0.157   6.841   4.099 -2.0742  0.4488 -0.0494
 2552TIP3    H2 7610   0.229   6.909   3.985  0.5612  0.1534  1.3979
 2553TIP3   OH2 7611   2.250   3.606   2.684  0.0185  0.4604 -0.1080
 2553TIP3    H1 7612   2.307   3.589   2.608  0.0597 -3.3396  0.6807
 2553TIP3    H2 7613   2.165   3.626   2.646  0.1853 -0.8055 -1.1790
 2554TIP3   OH2 7614   2.406   2.192   2.020 -0.1138  0.4907 -0.1005
 2554TIP3    H1 7615   2.367   2.243   2.091 -2.3309  1.4388 -1.9214
 2554TIP3    H2 7616   2.415   2.254   1.948  1.0864 -0.7138 -1.0175
 2555TIP3   OH2 7617   2.631   0.794   2.861  0.0433 -0.5522  0.0036
 2555TIP3    H1 7618   2.604   0.751   2.780  0.0423 -1.6067  0.5461
 2555TIP3    H2 7619   2.570   0.867   2.872 -2.1613 -2.4379  0.8101
 2556TIP3   OH2 7620   5.324   3.255   2.637 -0.0879 -0.4580 -1.2648
 2556TIP3    H1 7621   5.368   3.317   2.579  2.4969 -1.5756 -0.5504
 2556TIP3    H2 7622   5.339   3.170   2.597  0.7093 -1.1166  0.4171
 2557TIP3   OH2 7623   5.993   0.868   2.527 -0.0019  0.0731 -0.0044
 2557TIP3    H1 7624   5.966   0.803   2.463 -0.7542 -0.8288  1.1962
 2557TIP3    H2 7625   5.949   0.949   2.501  0.5062 -0.0303 -1.1958
 2558TIP3   OH2 7626   2.405   2.141   5.228  0.6567  0.1730 -0.1251
 2558TIP3    H1 7627   2.426   2.071   5.167 -0.8144  0.4814 -1.0298
 2558TIP3    H2 7628   2.327   2.110   5.274  1.1838  0.3600  0.9148
 2559TIP3   OH2 7629   3.832   0.981   2.255 -0.3285 -0.1424 -0.6188
 2559TIP3    H1 7630   3.925   1.005   2.256 -0.3338 -0.1299 -0.0448
 2559TIP3    H2 7631   3.829   0.898   2.207  0.2523 -1.1923  1.1086
 2560TIP3   OH2 7632   3.785   3.342   4.999 -0.1868 -0.7770  0.1122
 2560TIP3    H1 7633   3.816   3.406   4.935  0.9688 -0.9598  0.4699
 2560TIP3    H2 7634   3.736   3.278   4.947 -0.5865 -0.0855 -0.3645
 2561TIP3   OH2 7635   2.032   1.684   2.740 -0.0441 -0.3072  0.1641
 2561TIP3    H1 7636   2.033   1.773   2.705  0.4850 -0.4849 -0.2800
 2561TIP3    H2 7637   2.044   1.695   2.835  1.0624  0.0433 -0.0113
 2562TIP3   OH2 7638   2.886   0.302   1.169 -0.1291 -0.4884  0.2564
 2562TIP3    H1 7639   2.925   0.333   1.250 -1.1809  0.4328  0.4265
 2562TIP3    H2 7640   2.816   0.364   1.151 -0.3383 -1.0690 -1.0031
 2563TIP3   OH2 7641   3.969   0.417   1.875  0.2515 -0.2533 -0.1635
 2563TIP3    H1 7642   3.883   0.417   1.833  0.2042 -1.0708 -0.0767
 2563TIP3    H2 7643   4.021   0.479   1.824 -0.5405  0.6282  0.0930
 2564TIP3   OH2 7644   4.017   3.016   1.692 -0.0686 -0.4054 -0.2306
 2564TIP3    H1 7645   4.084   3.083   1.710  2.0360 -1.5315 -3.3831
 2564TIP3    H2 7646   3.937   3.067   1.676  0.9552  1.2428 -0.3064
 2565TIP3   OH2 7647   4.994   2.480   2.429  1.2253  0.1409  0.4452
 2565TIP3    H1 7648   4.915   2.521   2.393 -0.4009 -1.5973  1.8920
 2565TIP3    H2 7649   5.060   2.549   2.429 -0.9526  2.2974  1.3123
 2566TIP3   OH2 7650   6.450   2.741   1.467 -0.6291 -0.1286 -0.5626
 2566TIP3    H1 7651   6.521   2.678   1.479 -0.3526  0.0357 -1.3039
 2566TIP3    H2 7652   6.449   2.792   1.547 -0.2810 -0.5072 -0.3160
 2567TIP3   OH2 7653   2.348   7.242   1.494  0.2284  0.1127  0.0942
 2567TIP3    H1 7654   2.316   7.324   1.456  1.1656  0.6671  0.5108
 2567TIP3    H2 7655   2.272   7.183   1.490 -0.5589  1.1091  0.1304
 2568TIP3   OH2 7656   4.356   3.056   2.859 -0.0264  0.8720 -0.0222
 2568TIP3    H1 7657   4.434   3.091   2.815 -0.4425  0.4782 -1.0809
 2568TIP3    H2 7658   4.353   2.964   2.832 -0.2031  0.5828  0.9585
 2569TIP3   OH2 7659   4.607   2.990   3.195 -0.6252  0.2550  0.5722
 2569TIP3    H1 7660   4.550   2.920   3.228 -3.2086  1.7412 -0.5389
 2569TIP3    H2 7661   4.633   2.961   3.108  0.8296 -0.6806  1.2951
 2570TIP3   OH2 7662   2.858   2.069   3.709 -0.2801  0.2401 -0.1496
 2570TIP3    H1 7663   2.849   2.144   3.651  0.7892  0.8835  0.5154
 2570TIP3    H2 7664   2.813   2.096   3.789 -0.9017 -0.2820 -0.3105
 2571TIP3   OH2 7665   3.716   2.249   2.950 -0.2603 -1.0212  0.4359
 2571TIP3    H1 7666   3.658   2.268   2.877  1.0756  2.4070  0.1687
 2571TIP3    H2 7667   3.665   2.275   3.028 -0.3864 -1.3979  0.4821
 2572TIP3   OH2 7668   4.326   0.642   2.872  0.5363 -0.3560  0.1872
 2572TIP3    H1 7669   4.364   0.555   2.861  2.0511  0.0835  1.6224
 2572TIP3    H2 7670   4.247   0.642   2.818 -0.6671 -3.3317  1.8539
 2573TIP3   OH2 7671   3.705   1.964   2.817  0.1656  0.1443 -0.2934
 2573TIP3    H1 7672   3.774   1.985   2.880 -0.7480  0.8460  0.4994
 2573TIP3    H2 7673   3.700   1.868   2.818  0.6152  0.1241  0.2181
 2574TIP3   OH2 7674   3.225   2.674   3.316  0.4024 -0.0401  0.1126
 2574TIP3    H1 7675   3.248   2.763   3.342  1.3070 -0.2886  0.1907
 2574TIP3    H2 7676   3.308   2.634   3.289 -0.1570 -0.5309 -0.9248
 2575TIP3   OH2 7677   5.133   3.492   4.300 -0.3032  0.1559  0.5867
 2575TIP3    H1 7678   5.064   3.557   4.309 -0.2342  0.3303 -0.0780
 2575TIP3    H2 7679   5.119   3.431   4.372 -1.3083  0.0428  0.2976
 2576TIP3   OH2 7680   7.287   3.907   3.435  0.3274 -0.5248 -0.3249
 2576TIP3    H1 7681   7.209   3.866   3.472  1.0610 -2.9676 -1.3920
 2576TIP3    H2 7682   7.305   3.858   3.355  1.8355  1.2721 -1.1279
 2577TIP3   OH2 7683   5.472   3.584   2.747  0.0919 -1.1360 -0.2998
 2577TIP3    H1 7684   5.452   3.671   2.782 -0.8951 -1.2788 -0.4913
 2577TIP3    H2 7685   5.508   3.536   2.821 -0.6975 -1.0116  0.1613
 2578TIP3   OH2 7686   5.743   2.132   3.368  0.3919  0.3344 -0.2680
 2578TIP3    H1 7687   5.658   2.102   3.398  1.4655 -1.4100  1.1154
 2578TIP3    H2 7688   5.765   2.205   3.426 -0.5844  1.4848 -1.2976
 2579TIP3   OH2 7689   4.613   1.538   0.250  0.1221  0.0038 -0.0703
 2579TIP3    H1 7690   4.552   1.533   0.323  0.1526  0.8431  0.0163
 2579TIP3    H2 7691   4.637   1.447   0.232  0.8654 -0.1347  1.6026
 2580TIP3   OH2 7692   3.983   2.700   3.450 -0.4218  0.2021 -0.0879
 2580TIP3    H1 7693   4.022   2.787   3.450 -0.8345  0.4021 -1.2341
 2580TIP3    H2 7694   3.984   2.674   3.358 -0.7189 -0.8175  0.1929
 2581TIP3   OH2 7695   2.921   0.254   4.477 -0.0125 -0.2448  0.0432
 2581TIP3    H1 7696   2.945   0.305   4.399  1.3396  0.3495  0.8264
 2581TIP3    H2 7697   2.999   0.201   4.495 -0.7640 -1.2723  0.2891
 2582TIP3   OH2 7698   4.712   3.070   2.471  0.3576 -0.4173  0.2779
 2582TIP3    H1 7699   4.753   3.001   2.419  0.5950 -1.0209  1.2579
 2582TIP3    H2 7700   4.620   3.043   2.479  0.1257  0.1068 -0.5344
 2583TIP3   OH2 7701   5.798   2.339   1.643 -0.1781  0.6346 -0.1442
 2583TIP3    H1 7702   5.724   2.305   1.591  0.5242 -0.7198 -0.3012
 2583TIP3    H2 7703   5.862   2.368   1.577  0.2269 -0.0011 -0.0380
 2584TIP3   OH2 7704   3.418   0.885   3.310 -0.2642 -0.7013  0.1962
 2584TIP3    H1 7705   3.512   0.892   3.290 -0.1997  0.5537  0.8806
 2584TIP3    H2 7706   3.414   0.879   3.405 -1.0654  4.1645  0.6171
 2585TIP3   OH2 7707   2.498   2.302   0.610 -0.3229 -0.5919 -0.6602
 2585TIP3    H1 7708   2.418   2.282   0.659 -1.4580  0.7252 -1.9208
 2585TIP3    H2 7709   2.519   2.392   0.635  0.0752 -0.5253 -1.2393
 2586TIP3   OH2 7710   4.836   4.208   0.154  0.3205  0.3443  0.5388
 2586TIP3    H1 7711   4.850   4.197   0.248  1.8196 -1.3477  0.1260
 2586TIP3    H2 7712   4.746   4.179   0.140 -0.0816  1.0841  1.5194
 2587TIP3   OH2 7713   4.134   2.404   1.057 -0.7205 -0.7868  0.1908
 2587TIP3    H1 7714   4.125   2.372   1.147 -0.5381 -0.0907  0.4579
 2587TIP3    H2 7715   4.085   2.341   1.004  0.3855 -1.9977  0.6064
 2588TIP3   OH2 7716   5.880   1.430   2.488  0.2263  0.3976 -0.1311
 2588TIP3    H1 7717   5.917   1.517   2.507  0.4916  0.5693 -1.4306
 2588TIP3    H2 7718   5.893   1.381   2.570  3.2115  0.5003 -0.4706
 2589TIP3   OH2 7719   3.344   1.933   3.612  0.0928 -0.1396  0.5321
 2589TIP3    H1 7720   3.311   2.022   3.630 -0.0307  0.0949 -0.7951
 2589TIP3    H2 7721   3.439   1.943   3.612  0.0837 -0.0468  0.6013
 2590TIP3   OH2 7722   4.043   3.928   1.818 -0.4202  0.1013 -0.6291
 2590TIP3    H1 7723   3.988   3.986   1.765 -0.3433 -0.8703 -1.8099
 2590TIP3    H2 7724   4.132   3.943   1.785 -0.1286  0.8301  0.4871
 2591TIP3   OH2 7725   5.512   3.261   3.287  0.2746  0.0108 -0.3321
 2591TIP3    H1 7726   5.453   3.186   3.292  0.9891 -0.5179  0.0566
 2591TIP3    H2 7727   5.453   3.337   3.293 -0.2817 -0.5133  1.0416
 2592TIP3   OH2 7728   3.325   2.245   4.591  0.0651  0.5604 -0.0736
 2592TIP3    H1 7729   3.268   2.179   4.553  1.3908 -0.3794 -0.4790
 2592TIP3    H2 7730   3.307   2.241   4.685 -0.6390  0.3828 -0.2108
 2593TIP3   OH2 7731   5.958   4.067   5.257 -0.0932 -0.6092 -0.0299
 2593TIP3    H1 7732   5.964   4.001   5.326 -0.9681 -0.5440  0.1098
 2593TIP3    H2 7733   6.028   4.130   5.278  0.8486 -1.5653 -0.2565
 2594TIP3   OH2 7734   3.098   2.798   3.019 -0.6002  0.5317 -0.4725
 2594TIP3    H1 7735   3.165   2.730   3.025 -2.1448 -1.1363 -1.7103
 2594TIP3    H2 7736   3.133   2.861   2.957  1.3550  1.5288  1.5402
 2595TIP3   OH2 7737   6.579   2.864   2.638 -0.2507  1.0934  0.5917
 2595TIP3    H1 7738   6.502   2.864   2.696 -0.4520 -0.0575  0.3392
 2595TIP3    H2 7739   6.630   2.788   2.667  0.8508  1.9116  0.8245
 2596TIP3   OH2 7740   4.457   0.796   4.915 -0.4623 -0.1447  0.2604
 2596TIP3    H1 7741   4.529   0.835   4.965  0.7891 -0.9710 -0.8423
 2596TIP3    H2 7742   4.401   0.755   4.981  0.2239  0.2874  1.1231
 2597TIP3   OH2 7743   5.919   5.217   1.476 -0.0066  0.0738  0.0855
 2597TIP3    H1 7744   5.877   5.172   1.403 -0.2234 -0.0199  0.2659
 2597TIP3    H2 7745   5.855   5.212   1.547 -0.1419  0.9138  0.0206
 2598TIP3   OH2 7746   2.694   4.262   0.081 -0.0331  0.3111  0.1488
 2598TIP3    H1 7747   2.736   4.253  -0.005 -1.6648  0.6617 -0.7085
 2598TIP3    H2 7748   2.602   4.279   0.061  0.0218  2.9838  1.9329
 2599TIP3   OH2 7749   7.581   2.075   2.299 -0.2831 -0.2470  0.0137
 2599TIP3    H1 7750   7.520   2.137   2.339 -0.5151 -0.6056  0.2206
 2599TIP3    H2 7751   7.586   2.003   2.362  1.1553  0.2489  0.4959
 2600TIP3   OH2 7752   3.643   1.977   5.378  0.0879  0.3994  0.0829
 2600TIP3    H1 7753   3.563   1.995   5.330 -0.5297  1.0535  1.3172
 2600TIP3    H2 7754   3.618   1.913   5.445  0.2462  1.6311  1.3597
 2601TIP3   OH2 7755   4.363   2.924   1.783  0.3256  0.6873  0.3797
 2601TIP3    H1 7756   4.343   2.862   1.713 -0.8203 -0.4485  1.6657
 2601TIP3    H2 7757   4.449   2.897   1.815 -0.0526 -0.0970  0.7568
 2602TIP3   OH2 7758   3.962   2.938   3.087 -0.1052 -0.0511 -0.2908
 2602TIP3    H1 7759   3.915   3.014   3.050 -1.2623 -0.3639  0.4921
 2602TIP3    H2 7760   3.894   2.871   3.095  0.3645 -0.3329  1.3740
 2603TIP3   OH2 7761   6.248   2.944   2.363 -0.0422  0.1856 -0.0473
 2603TIP3    H1 7762   6.286   2.857   2.351  1.0475  0.8269 -1.4652
 2603TIP3    H2 7763   6.321   2.997   2.395  0.2356  1.3782 -2.5382
 2604TIP3   OH2 7764   5.096   3.436   2.503  0.4616  0.6771  0.2270
 2604TIP3    H1 7765   5.085   3.344   2.527 -1.2665  0.9966  0.7652
 2604TIP3    H2 7766   5.109   3.434   2.408  0.5837 -0.1407  0.2559
 2605TIP3   OH2 7767   3.505   2.614   3.795 -0.3422 -0.5291 -0.0587
 2605TIP3    H1 7768   3.459   2.557   3.734  0.6772 -1.0250 -0.3679
 2605TIP3    H2 7769   3.583   2.565   3.820  0.0719  0.3444  0.3889
 2606TIP3   OH2 7770   4.024   2.840   0.785  0.0188  0.2240 -0.0402
 2606TIP3    H1 7771   3.932   2.858   0.803 -0.1407  0.7893 -1.3792
 2606TIP3    H2 7772   4.035   2.748   0.807 -0.5228  0.5038  1.4589
 2607TIP3   OH2 7773   4.171   2.353   2.988 -0.8160  0.6815 -0.8422
 2607TIP3    H1 7774   4.244   2.339   3.049  0.7242  0.1239 -2.7434
 2607TIP3    H2 7775   4.104   2.292   3.017  0.3654 -0.4601 -0.4303
 2608TIP3   OH2 7776   5.300   4.224   3.144 -0.3246  0.7153  0.1398
 2608TIP3    H1 7777   5.345   4.165   3.204 -2.2428 -1.7091 -0.6884
 2608TIP3    H2 7778   5.368   4.254   3.084  0.3825 -2.2642 -0.6345
 2609TIP3   OH2 7779   3.583   1.615   3.796  0.0652 -0.4689 -0.6035
 2609TIP3    H1 7780   3.498   1.658   3.806 -0.4183 -1.2435 -1.3116
 2609TIP3    H2 7781   3.574   1.532   3.841  0.7996 -0.1117  0.2241
 2610TIP3   OH2 7782   5.540   1.419   2.568  0.1595 -0.1350  0.4407
 2610TIP3    H1 7783   5.553   1.404   2.662 -0.3518  1.6068  0.7968
 2610TIP3    H2 7784   5.604   1.486   2.545  0.0348 -0.2956 -0.3817
 2611TIP3   OH2 7785   4.333   1.762   3.417  0.0210 -0.6209  0.5253
 2611TIP3    H1 7786   4.285   1.844   3.428 -0.8599 -0.7201 -2.0445
 2611TIP3    H2 7787   4.269   1.701   3.381  1.5184 -1.3981 -0.9182
 2612TIP3   OH2 7788   1.951   7.278   4.610  0.1730  0.1268 -0.3593
 2612TIP3    H1 7789   1.875   7.302   4.557 -0.8362 -1.8444  0.1440
 2612TIP3    H2 7790   2.026   7.314   4.562 -1.0831  2.5214 -0.6071
 2613TIP3   OH2 7791   3.386   2.440   3.268  0.2731  0.7259  0.5080
 2613TIP3    H1 7792   3.421   2.387   3.340  0.2666 -0.1223 -0.1103
 2613TIP3    H2 7793   3.463   2.474   3.224  0.3064 -0.2624 -0.2007
 2614TIP3   OH2 7794   4.557   0.323   2.443 -0.0963 -0.6131  0.0368
 2614TIP3    H1 7795   4.575   0.231   2.462  1.5466 -0.2915  0.1606
 2614TIP3    H2 7796   4.608   0.341   2.364 -0.3327  0.2042  0.0693
 2615TIP3   OH2 7797   4.327   1.098   3.183  0.0125  0.2060  0.3240
 2615TIP3    H1 7798   4.392   1.112   3.252  0.0051 -0.6539  0.5116
 2615TIP3    H2 7799   4.315   1.003   3.181 -0.5699  0.2938 -0.3274
 2616TIP3   OH2 7800   4.429   2.020   4.068 -0.3939 -0.6743 -0.2226
 2616TIP3    H1 7801   4.377   2.093   4.032  0.7476  0.9725  1.3862
 2616TIP3    H2 7802   4.514   2.029   4.026 -0.6108 -1.8355 -0.9281
 2617TIP3   OH2 7803   4.404   1.074   2.294 -0.1221 -0.6103  0.8532
 2617TIP3    H1 7804   4.384   1.061   2.387 -0.4757  0.5322  0.9445
 2617TIP3    H2 7805   4.400   0.986   2.256  0.3135 -1.1236  1.9707
 2618TIP3   OH2 7806   3.962   1.966   2.370  0.1932 -0.3162 -0.5431
 2618TIP3    H1 7807   3.987   1.899   2.433 -0.6793  0.9019  1.1428
 2618TIP3    H2 7808   3.999   2.047   2.404 -0.8635  0.4764 -1.2170
 2619TIP3   OH2 7809   2.769   1.135   3.267 -0.6073 -0.5979 -0.2685
 2619TIP3    H1 7810   2.723   1.065   3.222 -1.5104 -1.3260  1.7461
 2619TIP3    H2 7811   2.790   1.099   3.353 -2.1585  1.9884  1.2476
 2620TIP3   OH2 7812   2.238   1.865   3.475 -0.0354 -0.2198 -0.3545
 2620TIP3    H1 7813   2.177   1.838   3.544 -0.4284  0.1164 -0.5681
 2620TIP3    H2 7814   2.236   1.960   3.477 -0.9857 -0.1994 -1.6471
 2621TIP3   OH2 7815   3.868   1.609   1.581 -0.6119  0.1525 -0.4589
 2621TIP3    H1 7816   3.944   1.655   1.546 -0.0911  0.4038  0.9617
 2621TIP3    H2 7817   3.859   1.642   1.671  0.1559 -2.9143  0.8229
 2622TIP3   OH2 7818   2.301   3.638   2.205  0.1426 -0.1637  0.1524
 2622TIP3    H1 7819   2.319   3.560   2.257 -0.9956  0.2529  1.1918
 2622TIP3    H2 7820   2.316   3.610   2.114  3.1454 -0.6104  0.7343
 2623TIP3   OH2 7821   2.955   1.375   3.091  0.3539  0.5931  0.1392
 2623TIP3    H1 7822   2.883   1.312   3.101 -1.2323  2.3478  0.0011
 2623TIP3    H2 7823   3.007   1.364   3.171 -0.0185 -0.7134  0.2278
 2624TIP3   OH2 7824   6.690   1.682   2.898 -0.1070  0.7206 -0.1099
 2624TIP3    H1 7825   6.784   1.671   2.912  0.3231  1.3189 -2.2096
 2624TIP3    H2 7826   6.649   1.619   2.956  1.6304 -0.1108  0.2527
 2625TIP3   OH2 7827   1.357   0.975   1.332  0.3960  0.0475 -0.2500
 2625TIP3    H1 7828   1.300   1.029   1.277  0.0012  0.2106  0.3187
 2625TIP3    H2 7829   1.427   0.946   1.273  0.5770  1.1314 -0.5750
 2626TIP3   OH2 7830   4.373   2.303   2.563  0.3179  0.3857 -0.6297
 2626TIP3    H1 7831   4.303   2.366   2.543  0.1817  0.6638  0.6425
 2626TIP3    H2 7832   4.393   2.262   2.479 -1.2104  0.4811 -1.0602
 2627TIP3   OH2 7833   3.763   1.307   0.577 -0.3339 -0.0631  0.4130
 2627TIP3    H1 7834   3.785   1.395   0.545 -0.6328 -0.1823 -0.1176
 2627TIP3    H2 7835   3.668   1.309   0.588 -0.3347 -0.3055  0.4446
 2628TIP3   OH2 7836   3.217   3.237   4.494 -0.4572 -0.3091 -0.3693
 2628TIP3    H1 7837   3.242   3.227   4.403 -0.7365 -0.6196 -0.4123
 2628TIP3    H2 7838   3.247   3.157   4.537  0.4187  0.2024 -0.0216
 2629TIP3   OH2 7839   4.028   2.043   1.170  0.1002 -0.5158  0.3240
 2629TIP3    H1 7840   4.041   1.960   1.123 -0.2103 -1.2942  1.5645
 2629TIP3    H2 7841   4.065   2.026   1.257 -1.3396  0.1423  1.0831
 2630TIP3   OH2 7842   4.167   1.401   3.960  0.1126  0.4885 -0.0573
 2630TIP3    H1 7843   4.122   1.466   3.906 -0.7690  1.4320  1.7831
 2630TIP3    H2 7844   4.231   1.362   3.901 -2.2509 -0.0270 -2.4254
 2631TIP3   OH2 7845   6.127   1.965   4.345  0.0939  0.2048  0.3637
 2631TIP3    H1 7846   6.139   1.892   4.406  0.8291 -0.1539 -0.2044
 2631TIP3    H2 7847   6.036   1.992   4.358 -1.9117 -4.1982 -3.0952
 2632TIP3   OH2 7848   4.807   3.876   2.944 -0.1191  0.6618  0.2783
 2632TIP3    H1 7849   4.791   3.914   2.858 -0.1314  0.4256  0.1742
 2632TIP3    H2 7850   4.801   3.949   3.005 -0.9878  0.6844  0.1719
 2633TIP3   OH2 7851   3.766   1.521   3.398 -0.2712 -0.0087  0.1999
 2633TIP3    H1 7852   3.746   1.468   3.476 -0.0904  2.0323  1.6735
 2633TIP3    H2 7853   3.860   1.538   3.403 -0.5778  1.7085  0.5877
 2634TIP3   OH2 7854   4.350   1.518   1.402  0.1493  0.4988  0.0887
 2634TIP3    H1 7855   4.356   1.567   1.485  0.6705 -0.9822  0.9347
 2634TIP3    H2 7856   4.439   1.515   1.369 -0.2760  2.4010 -1.3256
 2635TIP3   OH2 7857   2.913   1.934   4.202  0.0592  0.9880  0.5245
 2635TIP3    H1 7858   2.904   1.924   4.107  1.9301 -0.9364  0.5174
 2635TIP3    H2 7859   2.949   2.022   4.213  3.5640 -0.1629 -0.8702
 2636TIP3   OH2 7860   2.447   3.100   2.492  0.4173 -0.4288  0.6840
 2636TIP3    H1 7861   2.532   3.061   2.470  0.4557 -0.3274  0.6537
 2636TIP3    H2 7862   2.463   3.194   2.495  0.4064 -0.4404  1.1250
 2637TIP3   OH2 7863   6.691   1.013   3.563 -0.1336  0.3806  0.1427
 2637TIP3    H1 7864   6.600   1.036   3.542 -0.3109  0.2854  0.7881
 2637TIP3    H2 7865   6.739   1.029   3.482 -0.9555 -0.8204 -0.5942
 2638TIP3   OH2 7866   2.698   4.742   2.941 -0.2294 -0.0562 -0.1734
 2638TIP3    H1 7867   2.634   4.809   2.961 -1.5720 -1.5587  0.7180
 2638TIP3    H2 7868   2.646   4.664   2.920  1.2768 -1.3828  0.8543
 2639TIP3   OH2 7869   3.600   2.779   2.892  0.4196 -0.5455  0.5096
 2639TIP3    H1 7870   3.592   2.864   2.849 -0.7728 -0.9557 -0.1263
 2639TIP3    H2 7871   3.587   2.715   2.821  1.1783 -1.2616  0.9972
 2640TIP3   OH2 7872   3.594   3.375   3.179  0.0895  0.0169  0.6798
 2640TIP3    H1 7873   3.605   3.347   3.088 -0.0153  0.3587  0.5568
 2640TIP3    H2 7874   3.518   3.326   3.210 -2.0464  2.4166 -0.5075
 2641TIP3   OH2 7875   6.169   0.272   1.806 -0.3156 -0.4879 -0.4409
 2641TIP3    H1 7876   6.232   0.324   1.855  0.6839 -0.5063 -1.6883
 2641TIP3    H2 7877   6.145   0.201   1.865 -0.4241  0.4570  0.6501
 2642TIP3   OH2 7878   3.974   1.117   4.806 -0.1206  0.5033  0.0353
 2642TIP3    H1 7879   3.919   1.061   4.750  0.2607 -1.5113  1.6470
 2642TIP3    H2 7880   4.059   1.073   4.807  0.1857  1.1365  1.3012
 2643TIP3   OH2 7881   5.335   2.887   0.393  0.1269  0.2455  0.1167
 2643TIP3    H1 7882   5.363   2.968   0.351  0.8703  0.3269  0.7551
 2643TIP3    H2 7883   5.402   2.870   0.459  0.0587 -0.9720 -0.1128
 2644TIP3   OH2 7884   2.306   3.135   2.724 -0.2732  0.2674  0.5078
 2644TIP3    H1 7885   2.334   3.179   2.805  0.3027 -0.7217  0.8613
 2644TIP3    H2 7886   2.388   3.113   2.679 -0.3747 -3.1881  1.8271
 2645TIP3   OH2 7887   1.013   5.685   6.163 -0.4274 -0.0969 -0.1354
 2645TIP3    H1 7888   1.041   5.620   6.100 -1.5196 -1.0037  0.2886
 2645TIP3    H2 7889   1.001   5.765   6.111 -3.2349 -1.3258 -1.4795
 2646TIP3   OH2 7890   6.225   3.202   3.180 -0.1039  0.6606 -0.0810
 2646TIP3    H1 7891   6.193   3.117   3.208 -0.3336  1.1186  1.0679
 2646TIP3    H2 7892   6.234   3.253   3.261 -1.8149  2.3700 -0.9140
 2647TIP3   OH2 7893   5.278   1.125   1.709  0.0679  0.1303 -0.6841
 2647TIP3    H1 7894   5.255   1.035   1.731 -0.7180  0.5496  0.2671
 2647TIP3    H2 7895   5.284   1.126   1.613  1.0098 -1.1365 -0.6366
 2648TIP3   OH2 7896   4.870   4.815   3.975  0.0810 -0.1286  0.0570
 2648TIP3    H1 7897   4.864   4.755   3.902  1.8865  0.2917 -0.4607
 2648TIP3    H2 7898   4.808   4.885   3.953  0.6261  0.0091 -1.0837
 2649TIP3   OH2 7899   1.907   1.433   1.803 -0.3896  0.3066  0.0449
 2649TIP3    H1 7900   1.927   1.339   1.803 -0.2029  0.2791  3.0347
 2649TIP3    H2 7901   1.925   1.462   1.714  0.5587 -2.2972 -0.6551
 2650TIP3   OH2 7902   1.994   3.313   2.791  0.2320  0.1070 -0.1049
 2650TIP3    H1 7903   2.024   3.324   2.881  0.9111 -1.3604 -0.1496
 2650TIP3    H2 7904   1.955   3.225   2.789 -1.6182  0.8982 -0.7356
 2651TIP3   OH2 7905   2.659   1.545   3.458 -0.1922  0.2883 -0.1338
 2651TIP3    H1 7906   2.601   1.621   3.457  0.7004  1.0078 -3.1980
 2651TIP3    H2 7907   2.737   1.574   3.411  0.9368 -1.9321  0.3316
 2652TIP3   OH2 7908   5.344   3.095   3.594 -0.2208 -0.3036 -0.6052
 2652TIP3    H1 7909   5.362   3.046   3.515  0.9531  0.5232 -0.8646
 2652TIP3    H2 7910   5.329   3.185   3.564  0.6906  0.1068  0.1451
 2653TIP3   OH2 7911   4.024   3.153   2.440 -0.2908 -0.0341 -0.1614
 2653TIP3    H1 7912   4.068   3.210   2.503  1.0728 -1.4347  0.1983
 2653TIP3    H2 7913   4.013   3.070   2.487 -0.4373 -0.6793 -1.3241
 2654TIP3   OH2 7914   5.485   2.063   3.407  0.2249  0.3166  0.2860
 2654TIP3    H1 7915   5.470   2.097   3.496 -0.5264  0.2884  0.1719
 2654TIP3    H2 7916   5.414   2.101   3.355 -0.2073 -0.8422  0.0084
 2655TIP3   OH2 7917   6.127   2.142   0.314  0.3738 -0.0112  0.1481
 2655TIP3    H1 7918   6.219   2.134   0.289 -0.0889  0.1489 -1.6170
 2655TIP3    H2 7919   6.091   2.208   0.255 -0.7279  0.4188  1.2739
 2656TIP3   OH2 7920   4.462   3.773   2.527  0.4693 -0.7298 -0.3598
 2656TIP3    H1 7921   4.531   3.707   2.526  0.5708 -0.6445  0.5710
 2656TIP3    H2 7922   4.397   3.739   2.589  1.1318  0.6509  1.1257
 2657TIP3   OH2 7923   4.216   3.466   1.341  0.2599  0.2201  0.0289
 2657TIP3    H1 7924   4.203   3.432   1.429 -1.9019 -1.1454 -0.7483
 2657TIP3    H2 7925   4.246   3.390   1.290 -3.3120 -0.3322 -1.4352
 2658TIP3   OH2 7926   1.405   7.358   4.105  0.0829  0.1007 -0.4363
 2658TIP3    H1 7927   1.381   7.267   4.090 -2.4126  0.4684  1.0309
 2658TIP3    H2 7928   1.335   7.409   4.064 -0.3513  1.2645  1.6632
 2659TIP3   OH2 7929   5.045   1.175   1.232  0.7350 -0.2565  0.0545
 2659TIP3    H1 7930   5.035   1.226   1.152 -1.7933 -1.3470 -0.3554
 2659TIP3    H2 7931   5.097   1.099   1.207 -0.4451 -0.8335 -0.6861
 2660TIP3   OH2 7932   2.910   1.289   3.897  0.1340  0.2995 -0.0356
 2660TIP3    H1 7933   2.846   1.359   3.909 -1.0640 -0.4740 -1.8064
 2660TIP3    H2 7934   2.982   1.329   3.848  1.4863  1.4058  2.7195
 2661TIP3   OH2 7935   4.513   2.175   1.674 -0.0358 -0.8325 -0.0206
 2661TIP3    H1 7936   4.501   2.152   1.582 -0.0745 -0.9752  0.0214
 2661TIP3    H2 7937   4.601   2.144   1.696  1.1197  1.7383 -0.8156
 2662TIP3   OH2 7938   1.737   2.454   1.741  0.2882 -0.4945  0.4013
 2662TIP3    H1 7939   1.755   2.440   1.648  1.9512  0.2683  0.5840
 2662TIP3    H2 7940   1.815   2.420   1.785  1.3424  2.7997  1.2404
 2663TIP3   OH2 7941   3.133   2.539   4.688 -0.7023  0.0865  0.0084
 2663TIP3    H1 7942   3.054   2.571   4.730 -0.6638  1.0800 -0.6600
 2663TIP3    H2 7943   3.159   2.462   4.739 -1.4760  0.4095  0.8805
 2664TIP3   OH2 7944   4.372   1.607   3.818 -0.1682  0.0397 -0.0603
 2664TIP3    H1 7945   4.322   1.687   3.800  0.9931  0.5539 -1.0368
 2664TIP3    H2 7946   4.402   1.618   3.908  0.2582  0.8460 -0.3000
 2665TIP3   OH2 7947   5.432   1.632   1.615 -0.6184 -0.5548 -0.0506
 2665TIP3    H1 7948   5.444   1.542   1.643 -1.7304 -0.4672  0.7554
 2665TIP3    H2 7949   5.381   1.673   1.685  2.5572  1.5749  1.1159
 2666TIP3   OH2 7950   7.064   4.021   6.212 -0.3467 -0.0309 -0.2744
 2666TIP3    H1 7951   6.980   4.032   6.255 -0.1777 -0.2873  0.1263
 2666TIP3    H2 7952   7.128   4.033   6.283  0.0422  2.6148 -1.0249
 2667TIP3   OH2 7953   4.136   1.941   3.173 -0.0289  0.2148  0.5436
 2667TIP3    H1 7954   4.203   1.948   3.105 -0.2911  0.2467  0.2926
 2667TIP3    H2 7955   4.147   2.021   3.225  2.0416 -1.0974  2.2405
 2668TIP3   OH2 7956   4.485   3.734   3.569  0.0909  0.3048 -0.8538
 2668TIP3    H1 7957   4.439   3.672   3.511 -0.0967  0.2726 -0.6724
 2668TIP3    H2 7958   4.485   3.691   3.655  0.3834  0.3453 -0.8326
 2669TIP3   OH2 7959   4.720   0.914   1.352  0.1097 -1.1936  0.4212
 2669TIP3    H1 7960   4.714   0.987   1.290  1.0435  1.6382  3.5285
 2669TIP3    H2 7961   4.803   0.871   1.331  0.0198 -0.7887 -0.8104
 2670TIP3   OH2 7962   4.160   2.462   2.548 -0.0726 -0.0710  0.3217
 2670TIP3    H1 7963   4.123   2.474   2.636 -2.9323 -0.6878 -0.7620
 2670TIP3    H2 7964   4.114   2.525   2.493 -0.0714 -1.3964 -1.2283
 2671TIP3   OH2 7965   3.762   0.524   1.031  0.4534  0.4582  0.2426
 2671TIP3    H1 7966   3.705   0.587   1.075  1.1238  1.0397  0.2819
 2671TIP3    H2 7967   3.753   0.444   1.081 -0.2568  0.5785  0.3088
 2672TIP3   OH2 7968   7.559   3.596   5.658 -0.0204  0.6204 -0.2979
 2672TIP3    H1 7969   7.532   3.580   5.748 -1.7413  1.2955 -0.6723
 2672TIP3    H2 7970   7.550   3.511   5.615 -0.6697  0.6289 -0.1870
 2673TIP3   OH2 7971   3.587   2.107   4.818 -0.4939 -0.1200  0.5062
 2673TIP3    H1 7972   3.582   2.202   4.833 -2.7297 -0.2838  1.0447
 2673TIP3    H2 7973   3.620   2.072   4.901 -0.2720  0.1345  0.5262
 2674TIP3   OH2 7974   3.444   1.456   3.391  0.1371 -0.0883 -0.5141
 2674TIP3    H1 7975   3.452   1.368   3.355  1.4368 -0.5314  0.8029
 2674TIP3    H2 7976   3.425   1.442   3.484 -0.0353  1.0291 -0.3774
 2675TIP3   OH2 7977   2.367   3.555   2.933  0.1766  0.2248 -0.0347
 2675TIP3    H1 7978   2.307   3.572   3.005  2.0011  4.2743  0.7057
 2675TIP3    H2 7979   2.314   3.566   2.854 -0.6650  1.0523  0.6386
 2676TIP3   OH2 7980   5.692   3.788   2.372  0.1748  0.6138  0.5254
 2676TIP3    H1 7981   5.729   3.772   2.459  0.2092  0.8465  0.5543
 2676TIP3    H2 7982   5.598   3.792   2.387 -0.1271 -2.8699  0.0140
 2677TIP3   OH2 7983   2.572   1.864   2.831 -0.3233 -0.1433 -0.4552
 2677TIP3    H1 7984   2.498   1.909   2.792 -0.2923 -0.7410 -1.2195
 2677TIP3    H2 7985   2.572   1.891   2.923 -0.8716  0.6501 -0.6927
 2678TIP3   OH2 7986   4.608   2.459   2.579  0.1432  0.1454  0.4406
 2678TIP3    H1 7987   4.568   2.373   2.562  0.7133  0.2222 -1.3815
 2678TIP3    H2 7988   4.588   2.477   2.670  1.3877 -2.6737  1.3216
 2679TIP3   OH2 7989   1.330   2.937   2.767 -0.2104  0.3104  0.3451
 2679TIP3    H1 7990   1.245   2.981   2.764  0.7432  2.3656  1.8498
 2679TIP3    H2 7991   1.377   2.968   2.689 -0.5390 -0.1673 -0.0406
 2680TIP3   OH2 7992   4.073   3.019   5.226  0.5258 -0.6459  0.5637
 2680TIP3    H1 7993   3.995   2.969   5.248  0.2790 -0.3345  0.4022
 2680TIP3    H2 7994   4.099   2.987   5.140 -0.1554  0.1241  0.0530
 2681TIP3   OH2 7995   2.662   2.209   2.115 -0.0706  0.3264 -0.0906
 2681TIP3    H1 7996   2.575   2.178   2.089 -0.6063  0.1693  1.7926
 2681TIP3    H2 7997   2.714   2.129   2.126 -0.1337  0.3416  0.3109
 2682TIP3   OH2 7998   3.528   2.794   3.431 -0.4711 -0.0513  0.1122
 2682TIP3    H1 7999   3.509   2.817   3.522 -1.6929 -0.0411 -0.1397
 2682TIP3    H2 8000   3.607   2.739   3.437 -0.3927  0.1514  1.1527
 2683TIP3   OH2 8001   3.884   1.698   4.164  0.0108  0.2097 -0.2028
 2683TIP3    H1 8002   3.851   1.786   4.180  0.3815  0.2742  0.2104
 2683TIP3    H2 8003   3.922   1.702   4.076  1.1220  0.7874  0.3013
 2684TIP3   OH2 8004   5.115   1.351   3.690 -0.2606 -0.4826 -0.1196
 2684TIP3    H1 8005   5.144   1.438   3.720 -1.2369 -0.8402  1.9614
 2684TIP3    H2 8006   5.021   1.350   3.707 -0.3320 -1.7811 -0.5550
 2685TIP3   OH2 8007   1.736   3.174   1.931  0.0722  0.1261  1.0110
 2685TIP3    H1 8008   1.791   3.227   1.989  0.6085 -0.1346  0.7376
 2685TIP3    H2 8009   1.741   3.086   1.967 -1.8604  0.4796  2.2360
 2686TIP3   OH2 8010   4.777   3.320   5.345 -0.3747 -0.4505 -0.1535
 2686TIP3    H1 8011   4.689   3.357   5.335 -0.4404 -0.2307  1.0984
 2686TIP3    H2 8012   4.822   3.341   5.263 -1.2104  0.2004 -0.4522
 2687TIP3   OH2 8013   5.352   2.766   2.552 -0.3012  0.1409  0.0595
 2687TIP3    H1 8014   5.343   2.762   2.647  0.1164  2.0841  0.2121
 2687TIP3    H2 8015   5.373   2.858   2.534  0.2257 -0.3262 -1.8545
 2688TIP3   OH2 8016   0.894   0.647   0.180 -0.2637 -0.1134 -0.0635
 2688TIP3    H1 8017   0.916   0.738   0.201  3.0344 -0.9266  0.3794
 2688TIP3    H2 8018   0.868   0.609   0.264  0.7565 -0.1940  0.2205
 2689TIP3   OH2 8019   3.500   1.963   1.625  0.2595 -0.3286  0.1379
 2689TIP3    H1 8020   3.536   2.030   1.566  0.8092  0.2742  1.1359
 2689TIP3    H2 8021   3.444   2.012   1.686  1.0978 -0.6866  1.2199
 2690TIP3   OH2 8022   5.077   1.720   4.076  0.0489 -0.5758  0.2588
 2690TIP3    H1 8023   4.989   1.686   4.093 -0.6358  0.2291 -1.5785
 2690TIP3    H2 8024   5.133   1.643   4.081 -1.1153 -1.5301 -1.0670
 2691TIP3   OH2 8025   5.176   0.880   1.765  0.1510  0.0136  0.3085
 2691TIP3    H1 8026   5.146   0.873   1.856  1.1447 -1.0834  0.5588
 2691TIP3    H2 8027   5.223   0.799   1.749  1.3073  0.8713 -0.7096
 2692TIP3   OH2 8028   4.110   2.920   2.574  0.1043  0.2505  0.0602
 2692TIP3    H1 8029   4.121   2.907   2.668 -0.7667 -0.5969  0.0595
 2692TIP3    H2 8030   4.197   2.942   2.542 -0.0612  3.2268  1.4587
 2693TIP3   OH2 8031   5.346   2.558   2.361  0.2228 -0.0248 -0.3817
 2693TIP3    H1 8032   5.358   2.628   2.426  0.3014  1.5592 -2.0342
 2693TIP3    H2 8033   5.270   2.586   2.310  0.4609 -0.9703 -1.2686
 2694TIP3   OH2 8034   5.097   1.959   5.427  0.1822  0.6148  0.3782
 2694TIP3    H1 8035   5.027   1.921   5.374  0.5183  2.6877 -1.6315
 2694TIP3    H2 8036   5.058   1.970   5.514 -0.7196 -1.8417  0.3314
 2695TIP3   OH2 8037   4.020   1.051   3.209 -0.2929  0.3441 -0.5397
 2695TIP3    H1 8038   4.097   1.056   3.152 -0.1659  0.3910 -0.3638
 2695TIP3    H2 8039   3.958   0.997   3.160  1.9831 -4.6237  1.7409
 2696TIP3   OH2 8040   3.174   2.217   3.780  0.3383 -0.0352  0.3394
 2696TIP3    H1 8041   3.207   2.188   3.865  2.1948  1.3711  0.1345
 2696TIP3    H2 8042   3.172   2.312   3.786 -1.9910 -0.0081 -0.3240
 2697TIP3   OH2 8043   5.571   3.333   4.100 -0.1357  0.6400 -0.2707
 2697TIP3    H1 8044   5.600   3.390   4.172  0.5521 -0.3065  0.2114
 2697TIP3    H2 8045   5.591   3.382   4.021  1.1617  0.7494  0.1199
 2698TIP3   OH2 8046   6.094   2.520   4.509  0.0155 -0.1882  0.2176
 2698TIP3    H1 8047   6.185   2.549   4.505 -0.1138  0.7935  3.2180
 2698TIP3    H2 8048   6.043   2.598   4.487 -0.1393 -0.7014 -1.3183
 2699TIP3   OH2 8049   3.426   6.267   4.377 -0.1040 -0.3203 -0.3126
 2699TIP3    H1 8050   3.469   6.202   4.433 -1.5906 -0.4985  0.6583
 2699TIP3    H2 8051   3.432   6.230   4.289 -0.0600 -1.3123  0.0963
 2700TIP3   OH2 8052   4.906   1.464   2.645  0.3663  0.4830 -0.3242
 2700TIP3    H1 8053   4.984   1.416   2.617 -0.9074 -1.8586 -0.0457
 2700TIP3    H2 8054   4.879   1.420   2.726 -0.5526  2.0267  0.2212
 2701TIP3   OH2 8055   7.350   2.560   3.661  0.2770  0.3333 -0.4730
 2701TIP3    H1 8056   7.380   2.562   3.571  0.9547 -1.8597 -0.3266
 2701TIP3    H2 8057   7.342   2.652   3.686  0.2517  0.9562 -2.6937
 2702TIP3   OH2 8058   4.798   3.296   2.309 -0.0954  0.4988  0.1105
 2702TIP3    H1 8059   4.787   3.216   2.361  0.1326 -0.7513 -1.6971
 2702TIP3    H2 8060   4.888   3.291   2.277 -0.9501 -0.0147 -2.3480
 2703TIP3   OH2 8061   7.572   4.638   3.302  0.3727 -0.1878  0.0813
 2703TIP3    H1 8062   7.533   4.633   3.215 -0.4739 -1.8720  0.5217
 2703TIP3    H2 8063   7.666   4.625   3.287  0.4258  1.0949 -0.7172
 2704TIP3   OH2 8064   7.299   3.766   5.110  0.0472 -0.5205  0.2157
 2704TIP3    H1 8065   7.296   3.706   5.184 -0.2684 -1.7820 -0.8190
 2704TIP3    H2 8066   7.350   3.721   5.043  0.0227  0.4632 -0.4822
 2705TIP3   OH2 8067   4.858   1.377   3.802 -0.3833  0.0091  0.6277
 2705TIP3    H1 8068   4.814   1.454   3.766  0.4514  0.0418 -0.3333
 2705TIP3    H2 8069   4.791   1.308   3.800  0.2845 -0.5941 -3.1115
 2706TIP3   OH2 8070   6.538   2.913   5.240 -0.6575  0.1185 -0.3225
 2706TIP3    H1 8071   6.456   2.885   5.200 -0.5273  0.9366 -1.1785
 2706TIP3    H2 8072   6.512   2.976   5.307 -0.7744 -0.0777 -0.1849
 2707TIP3   OH2 8073   2.849   4.951   1.076 -0.5666  0.3379  0.0465
 2707TIP3    H1 8074   2.923   4.900   1.042 -1.3837 -2.1659  1.8352
 2707TIP3    H2 8075   2.792   4.963   1.000  0.4688  0.0263 -0.7870
 2708TIP3   OH2 8076   2.741   1.351   2.840 -0.1440 -0.4328 -0.3161
 2708TIP3    H1 8077   2.754   1.439   2.876  0.5245 -0.3305 -0.7876
 2708TIP3    H2 8078   2.763   1.292   2.911  0.1006 -0.2238 -0.2178
 2709TIP3   OH2 8079   3.213   3.562   2.331 -0.2494  0.1056  0.5485
 2709TIP3    H1 8080   3.118   3.559   2.329 -0.2727  0.4354  1.0180
 2709TIP3    H2 8081   3.239   3.482   2.378 -0.1809 -1.3806 -1.9638
 2710TIP3   OH2 8082   7.574   4.034   0.680 -0.1018 -0.4406  0.0307
 2710TIP3    H1 8083   7.541   4.037   0.590  0.0841 -1.6080 -0.0768
 2710TIP3    H2 8084   7.587   4.126   0.703  1.1188 -0.1895 -1.5916
 2711TIP3   OH2 8085   3.101   3.901   3.331  0.2879 -0.1620 -0.3624
 2711TIP3    H1 8086   3.192   3.929   3.320  0.4392 -0.2303  0.7359
 2711TIP3    H2 8087   3.107   3.821   3.384 -0.4948  0.4315  0.6157
 2712TIP3   OH2 8088   6.189   3.150   3.640 -0.7077  0.5763  0.2598
 2712TIP3    H1 8089   6.131   3.168   3.714 -0.2169 -0.0836  0.8101
 2712TIP3    H2 8090   6.150   3.076   3.595 -1.3310  1.3570 -0.5010
 2713TIP3   OH2 8091   0.324   2.199   3.288 -0.7384  0.4051 -0.4084
 2713TIP3    H1 8092   0.254   2.160   3.235 -1.6304  1.7583 -0.2728
 2713TIP3    H2 8093   0.284   2.277   3.325  0.3954  0.3586  0.9349
 2714TIP3   OH2 8094   4.803   1.937   2.271 -0.3042 -0.8426 -0.0164
 2714TIP3    H1 8095   4.747   1.861   2.286 -1.6804 -0.0080 -0.8904
 2714TIP3    H2 8096   4.776   2.000   2.338  0.1986 -0.7565  0.1088
 2715TIP3   OH2 8097   5.653   1.631   2.961  0.5480  0.6942  0.2290
 2715TIP3    H1 8098   5.626   1.673   3.042 -0.4285  0.7514 -0.1241
 2715TIP3    H2 8099   5.645   1.699   2.895 -0.1564  0.2147 -0.1849
 2716TIP3   OH2 8100   4.868   2.138   2.054  0.3759  0.2892 -0.1135
 2716TIP3    H1 8101   4.797   2.096   2.006 -1.4386  1.2753  1.6708
 2716TIP3    H2 8102   4.862   2.103   2.142  1.0230  1.6553  0.4887
 2717TIP3   OH2 8103   1.376   3.250   5.338  0.0774  0.1267  0.1852
 2717TIP3    H1 8104   1.414   3.261   5.251 -0.7846  0.3319 -0.1754
 2717TIP3    H2 8105   1.448   3.220   5.393  0.9585  1.3323 -0.2897
 2718TIP3   OH2 8106   5.732   0.584   1.737  0.0464  0.1627  0.3240
 2718TIP3    H1 8107   5.696   0.553   1.654  0.9978  0.0438 -0.0548
 2718TIP3    H2 8108   5.819   0.544   1.741  0.5182  1.2354  0.7551
 2719TIP3   OH2 8109   4.574   0.531   4.377 -0.0293  0.5213  0.0594
 2719TIP3    H1 8110   4.666   0.547   4.398 -0.5998  2.0826  1.5361
 2719TIP3    H2 8111   4.525   0.585   4.440 -1.9580 -0.3493 -0.6291
 2720TIP3   OH2 8112   4.760   2.330   3.811 -0.6483  0.6014 -0.1574
 2720TIP3    H1 8113   4.668   2.346   3.792 -0.4887  1.3834 -0.2525
 2720TIP3    H2 8114   4.785   2.401   3.869 -0.1749  0.2284  0.0989
 2721TIP3   OH2 8115   7.138   3.047   2.709 -0.1214  0.2808 -0.1573
 2721TIP3    H1 8116   7.105   3.084   2.628 -2.1333 -1.3688 -0.1208
 2721TIP3    H2 8117   7.080   3.081   2.777  1.2387  1.2427  0.5562
 2722TIP3   OH2 8118   6.614   4.445   2.173 -0.1315 -0.3753 -0.7250
 2722TIP3    H1 8119   6.664   4.414   2.098 -1.4934  2.9052 -3.1353
 2722TIP3    H2 8120   6.556   4.373   2.196  2.0187 -2.3014 -1.2552
 2723TIP3   OH2 8121   3.442   0.781   0.453  0.9818 -0.0105  0.4961
 2723TIP3    H1 8122   3.494   0.711   0.413  1.6134  1.4633 -1.3587
 2723TIP3    H2 8123   3.507   0.842   0.489  0.4802  0.3449  0.7990
 2724TIP3   OH2 8124   4.313   2.549   2.031 -0.0791  0.3135 -0.2536
 2724TIP3    H1 8125   4.254   2.618   2.002 -2.8021 -1.7887  0.0475
 2724TIP3    H2 8126   4.318   2.560   2.126 -0.8316 -0.1312 -0.1592
 2725TIP3   OH2 8127   5.758   3.701   2.995 -0.3811 -0.1590 -0.0219
 2725TIP3    H1 8128   5.775   3.665   3.082 -1.0640  1.1745  0.6929
 2725TIP3    H2 8129   5.663   3.694   2.985 -0.1117 -2.0459 -1.4650
 2726TIP3   OH2 8130   2.410   5.048   6.191 -0.1180  0.0977 -0.7756
 2726TIP3    H1 8131   2.430   5.017   6.279 -0.0403 -1.3598 -1.2980
 2726TIP3    H2 8132   2.452   4.985   6.133 -0.8180  0.6181 -1.8609
 2727TIP3   OH2 8133   2.470   2.612   3.495  0.1427  0.9023 -0.5556
 2727TIP3    H1 8134   2.565   2.602   3.503  0.0694  0.1072 -0.6045
 2727TIP3    H2 8135   2.438   2.615   3.585  0.3807  2.9928 -0.5143
 2728TIP3   OH2 8136   6.198   3.769   3.221 -0.0785 -0.1655 -0.4222
 2728TIP3    H1 8137   6.176   3.712   3.147  0.0164  1.0212 -1.3793
 2728TIP3    H2 8138   6.167   3.721   3.298  1.0164 -2.0248 -1.1113
 2729TIP3   OH2 8139   4.763   2.648   1.896  0.0069 -0.3124  0.2236
 2729TIP3    H1 8140   4.832   2.587   1.867 -0.1242 -0.4788  0.2618
 2729TIP3    H2 8141   4.682   2.602   1.875 -0.0901 -0.9676  1.9864
 2730TIP3   OH2 8142   2.743   0.567   3.195 -0.5236 -0.5796  0.3074
 2730TIP3    H1 8143   2.746   0.492   3.136  0.0186 -1.8252  1.8743
 2730TIP3    H2 8144   2.823   0.560   3.247  0.3043  1.9640 -0.5471
 2731TIP3   OH2 8145   4.200   1.322   3.055  0.1786  0.1009  0.0281
 2731TIP3    H1 8146   4.275   1.379   3.040  2.6924 -3.1989 -0.6082
 2731TIP3    H2 8147   4.231   1.258   3.120 -1.7347 -1.8719 -0.9129
 2732TIP3   OH2 8148   7.653   2.274   5.508 -0.3760  0.1143  0.1636
 2732TIP3    H1 8149   7.621   2.363   5.492  0.6724 -0.0192 -3.0854
 2732TIP3    H2 8150   7.724   2.285   5.572 -0.8962  1.4697  0.5261
 2733TIP3   OH2 8151   5.222   2.635   3.019 -0.4053 -0.4320 -0.0468
 2733TIP3    H1 8152   5.207   2.543   2.997  1.2674 -1.1135  1.5317
 2733TIP3    H2 8153   5.154   2.656   3.083 -0.9243 -0.5139 -0.5722
 2734TIP3   OH2 8154   4.742   1.677   3.789 -0.0469  0.2775  0.3484
 2734TIP3    H1 8155   4.825   1.697   3.747  0.2889 -0.3631  0.6971
 2734TIP3    H2 8156   4.682   1.744   3.757  0.8152  1.2597  0.7685
 2735TIP3   OH2 8157   6.598   2.369   1.009  0.4745 -0.1803 -0.1769
 2735TIP3    H1 8158   6.527   2.304   1.014 -0.1294  0.5578  0.9865
 2735TIP3    H2 8159   6.574   2.426   0.936  0.1410 -0.2478 -0.1199
 2736TIP3   OH2 8160   4.188   1.737   2.112  0.3401  0.2805 -0.2962
 2736TIP3    H1 8161   4.113   1.725   2.055  0.6797 -0.4928 -0.5920
 2736TIP3    H2 8162   4.217   1.648   2.133  0.9467  0.5663  0.1035
 2737TIP3   OH2 8163   2.651   2.706   3.673  0.2163 -0.0391 -0.1109
 2737TIP3    H1 8164   2.723   2.766   3.654 -0.0803  0.2597 -0.3143
 2737TIP3    H2 8165   2.598   2.753   3.738 -0.0474 -0.0571 -0.3133
 2738TIP3   OH2 8166   2.213   3.190   3.769  0.4756 -0.1987 -0.6617
 2738TIP3    H1 8167   2.134   3.241   3.754  0.6665  0.6237  1.0593
 2738TIP3    H2 8168   2.284   3.245   3.734  0.2941 -1.0534 -2.4556
 2739TIP3   OH2 8169   2.794   2.492   3.749  0.1441  0.1808  0.0005
 2739TIP3    H1 8170   2.738   2.566   3.724  0.5249 -0.5132 -3.1559
 2739TIP3    H2 8171   2.745   2.446   3.818 -1.6876  1.3867 -0.4609
 2740TIP3   OH2 8172   6.281   6.266   4.298 -0.2888 -0.0494  0.1837
 2740TIP3    H1 8173   6.235   6.204   4.241 -2.1604  0.2575  1.3158
 2740TIP3    H2 8174   6.281   6.349   4.250 -3.1409  0.5756  1.2046
 2741TIP3   OH2 8175   4.963   0.642   3.839 -0.2217 -0.5318  0.4848
 2741TIP3    H1 8176   4.881   0.637   3.887 -0.9811 -1.6740 -0.9033
 2741TIP3    H2 8177   5.023   0.584   3.888  0.2388  1.4420  2.3433
 2742TIP3   OH2 8178   5.094   4.537   2.752 -0.4126 -0.4207 -0.2651
 2742TIP3    H1 8179   5.165   4.556   2.813  0.2162  1.7308 -1.5982
 2742TIP3    H2 8180   5.035   4.612   2.759 -0.7130 -0.5033 -1.7529
 2743TIP3   OH2 8181   3.936   1.663   1.982  0.5114 -0.1348 -0.3577
 2743TIP3    H1 8182   3.868   1.715   2.024 -0.0068 -0.0706 -1.2828
 2743TIP3    H2 8183   3.967   1.717   1.909  2.5836  0.4785  0.9201
 2744TIP3   OH2 8184   2.128   3.145   3.055  0.4319  0.2764  0.3621
 2744TIP3    H1 8185   2.212   3.174   3.018 -0.0552 -0.6941 -1.5624
 2744TIP3    H2 8186   2.134   3.169   3.148  2.7833  0.3344  0.2403
 2745TIP3   OH2 8187   4.785   2.231   2.795 -0.0847  0.3887  0.6677
 2745TIP3    H1 8188   4.834   2.308   2.765  0.2763 -0.3875 -0.7343
 2745TIP3    H2 8189   4.784   2.172   2.721 -1.1487 -0.6031  1.4507
 2746TIP3   OH2 8190   5.769   2.399   2.114  0.4456 -0.0955  0.6049
 2746TIP3    H1 8191   5.699   2.377   2.175 -0.3135 -1.5101 -0.7255
 2746TIP3    H2 8192   5.784   2.318   2.064  2.6315  0.3529  0.4766
 2747TIP3   OH2 8193   4.744   3.106   5.513 -0.9599 -0.0681  0.0805
 2747TIP3    H1 8194   4.728   3.026   5.461  0.0745 -0.0439 -0.2921
 2747TIP3    H2 8195   4.742   3.177   5.448 -0.1686  0.0179  0.1442
 2748TIP3   OH2 8196   7.779   6.704   4.591  0.4846 -0.2739  0.4934
 2748TIP3    H1 8197   7.770   6.633   4.528 -0.6179  1.9694 -1.9441
 2748TIP3    H2 8198   7.700   6.698   4.645 -0.4615  0.1752 -0.8379
 2749TIP3   OH2 8199   3.480   1.292   1.044  0.1795 -0.4001 -0.0356
 2749TIP3    H1 8200   3.531   1.367   1.075 -0.8616  0.4154 -0.2599
 2749TIP3    H2 8201   3.510   1.218   1.096 -0.0041  0.5214  1.3839
 2750TIP3   OH2 8202   5.252   2.258   3.413  0.5494 -0.0730 -0.6952
 2750TIP3    H1 8203   5.250   2.258   3.508  0.3466 -0.1156 -0.6994
 2750TIP3    H2 8204   5.242   2.350   3.388 -1.4929 -0.2854 -0.7159
 2751TIP3   OH2 8205   7.304   0.880   0.896  0.2194  0.2526 -0.3273
 2751TIP3    H1 8206   7.214   0.909   0.887 -0.1913 -1.5008 -2.1919
 2751TIP3    H2 8207   7.324   0.893   0.989 -2.0412  0.4121  0.1680
 2752TIP3   OH2 8208   6.312   2.214   3.226 -0.3009  0.9471  0.0653
 2752TIP3    H1 8209   6.378   2.146   3.208 -0.8572  0.6864 -1.0009
 2752TIP3    H2 8210   6.359   2.278   3.280 -0.1317 -0.9082  2.2113
 2753TIP3   OH2 8211   3.355   1.057   2.751  0.0463 -0.2574 -0.2610
 2753TIP3    H1 8212   3.310   1.135   2.719 -0.2950 -0.1664  0.4362
 2753TIP3    H2 8213   3.407   1.088   2.825  2.1986 -0.1324 -1.7999
 2754TIP3   OH2 8214   4.426   2.325   3.444 -0.3749  0.0624 -0.0156
 2754TIP3    H1 8215   4.488   2.346   3.513  0.4371 -1.4404 -0.2821
 2754TIP3    H2 8216   4.341   2.326   3.487  0.2015 -1.6375  1.1949
 2755TIP3   OH2 8217   3.471   2.037   2.713  0.1240  0.0505  0.4099
 2755TIP3    H1 8218   3.435   2.096   2.779  2.1419 -0.5700  2.1444
 2755TIP3    H2 8219   3.544   1.993   2.757 -0.7803 -3.1344 -1.1061
 2756TIP3   OH2 8220   5.356   0.855   2.709  0.0422  0.2592 -0.3442
 2756TIP3    H1 8221   5.399   0.777   2.673  0.8342 -0.0976  1.3472
 2756TIP3    H2 8222   5.307   0.823   2.785 -1.1767  1.1005 -0.7589
 2757TIP3   OH2 8223   0.677   6.175   4.027 -0.3512  0.2352  0.2510
 2757TIP3    H1 8224   0.598   6.226   4.012 -1.2350 -1.2214 -0.1605
 2757TIP3    H2 8225   0.707   6.149   3.940  1.7722  2.4800  0.2442
 2758TIP3   OH2 8226   6.770   0.559   1.701  0.1019  0.1897 -0.0223
 2758TIP3    H1 8227   6.769   0.654   1.713 -0.4804  0.1670  0.1649
 2758TIP3    H2 8228   6.858   0.532   1.727  0.8129  0.8750 -1.6623
 2759TIP3   OH2 8229   4.050   0.532   4.802 -0.7309 -1.1735 -0.4465
 2759TIP3    H1 8230   4.106   0.585   4.745  2.1952 -0.8996  2.5035
 2759TIP3    H2 8231   3.982   0.592   4.831  0.8346  0.2067  0.4876
 2760TIP3   OH2 8232   4.172   1.262   2.410 -0.4113 -0.2906 -0.4764
 2760TIP3    H1 8233   4.258   1.289   2.442  0.0948 -0.7094 -1.4612
 2760TIP3    H2 8234   4.113   1.331   2.438 -0.1357 -1.0276  2.0728
 2761TIP3   OH2 8235   7.362   1.887   0.005  0.7327  0.2698  0.1412
 2761TIP3    H1 8236   7.311   1.820   0.050 -0.6865  1.4866  0.4053
 2761TIP3    H2 8237   7.412   1.930   0.074  0.0623  0.8302  0.2884
 2762TIP3   OH2 8238   6.134   1.562   3.518 -0.0940  0.0183 -0.6087
 2762TIP3    H1 8239   6.220   1.570   3.475  0.1134  1.1123 -0.0015
 2762TIP3    H2 8240   6.151   1.581   3.610 -0.9590  0.0409 -0.4492
 2763TIP3   OH2 8241   4.961   1.667   3.574  0.0869 -0.3385  0.0294
 2763TIP3    H1 8242   4.890   1.649   3.512  0.7319 -0.2486 -0.7431
 2763TIP3    H2 8243   4.941   1.754   3.609  0.7813  0.4959 -1.5657
 2764TIP3   OH2 8244   3.023   3.938   1.703 -1.0943 -0.1875  0.5417
 2764TIP3    H1 8245   2.986   3.853   1.680 -0.7717 -0.2337  0.1867
 2764TIP3    H2 8246   3.117   3.921   1.715 -0.9131  0.2383 -0.2004
 2765TIP3   OH2 8247   6.535   3.164   5.327  0.0211 -0.3566  0.3575
 2765TIP3    H1 8248   6.441   3.168   5.307 -0.3905  1.5566  2.4801
 2765TIP3    H2 8249   6.573   3.237   5.278  0.3278 -0.8442 -0.1314
 2766TIP3   OH2 8250   6.881   2.895   4.789  0.8314  0.4188 -0.0195
 2766TIP3    H1 8251   6.947   2.855   4.732  1.3427  0.1759  0.7327
 2766TIP3    H2 8252   6.888   2.846   4.872 -0.0518  0.6222  0.1806
 2767TIP3   OH2 8253   5.663   2.326   3.939 -0.9975  0.4535 -0.0043
 2767TIP3    H1 8254   5.677   2.383   4.015  0.3603  0.2161 -0.0702
 2767TIP3    H2 8255   5.739   2.341   3.883 -0.4421 -1.6585  0.1337
 2768TIP3   OH2 8256   6.872   1.060   0.564  0.7415  0.2894  0.1146
 2768TIP3    H1 8257   6.890   1.117   0.638  0.2032  0.3664  0.1925
 2768TIP3    H2 8258   6.853   1.119   0.491 -0.4319  0.2187  0.3525
 2769TIP3   OH2 8259   5.900   2.291   4.459 -0.1998  0.3015  0.0013
 2769TIP3    H1 8260   5.961   2.325   4.394 -0.7457  1.2324 -0.0360
 2769TIP3    H2 8261   5.917   2.343   4.537  1.3258 -1.6642  1.0005
 2770TIP3   OH2 8262   6.781   0.167   1.298  0.4850 -0.5507 -0.3725
 2770TIP3    H1 8263   6.838   0.091   1.283  2.3932  1.2067 -2.2850
 2770TIP3    H2 8264   6.839   0.234   1.334 -1.2654 -0.0665  1.6750
 2771TIP3   OH2 8265   3.979   2.588   2.076 -0.0121  0.1645 -0.4195
 2771TIP3    H1 8266   4.039   2.592   2.002  0.4955 -0.4344 -0.0405
 2771TIP3    H2 8267   4.028   2.544   2.146 -0.6068  0.3975  0.1570
 2772TIP3   OH2 8268   7.723   4.310   3.190 -0.1826 -0.0271  0.1485
 2772TIP3    H1 8269   7.718   4.271   3.278 -2.9493 -0.1965 -0.0312
 2772TIP3    H2 8270   7.754   4.239   3.134 -0.8790 -0.6853  0.5777
 2773TIP3   OH2 8271   6.979   3.752   0.865 -0.8626  0.3433 -0.0933
 2773TIP3    H1 8272   7.073   3.731   0.866 -1.2014 -1.2209  0.0564
 2773TIP3    H2 8273   6.952   3.744   0.956 -1.2292  0.3839 -0.1994
 2774TIP3   OH2 8274   7.037   5.490   3.571 -0.1999 -0.1668 -0.1648
 2774TIP3    H1 8275   7.056   5.584   3.570 -0.1960 -0.1560  0.5155
 2774TIP3    H2 8276   7.103   5.453   3.630 -0.7733 -0.4666  0.2938
 2775TIP3   OH2 8277   5.811   1.544   4.890  0.1250 -0.3476 -0.0981
 2775TIP3    H1 8278   5.791   1.590   4.971 -0.4360 -2.0586  0.7446
 2775TIP3    H2 8279   5.861   1.467   4.917  1.3815 -0.0727 -1.5333
 2776TIP3   OH2 8280   0.488   2.676   6.058 -0.3597 -0.4330 -0.1491
 2776TIP3    H1 8281   0.423   2.664   6.127  2.0340  1.8293  2.6088
 2776TIP3    H2 8282   0.458   2.754   6.011 -0.7940 -0.6835 -0.2970
 2777TIP3   OH2 8283   5.585   2.438   1.150  0.0791  0.3703  0.1514
 2777TIP3    H1 8284   5.642   2.369   1.117 -0.1551  1.0620 -1.7620
 2777TIP3    H2 8285   5.584   2.504   1.081 -2.1262  0.9046  0.6398
 2778TIP3   OH2 8286   6.813   1.499   1.094  0.0576 -0.0922 -0.2450
 2778TIP3    H1 8287   6.731   1.452   1.080 -0.0866  0.3960 -1.0214
 2778TIP3    H2 8288   6.820   1.506   1.190 -0.5453 -0.5877 -0.1637
 2779TIP3   OH2 8289   3.974   5.905   1.908  0.0281 -0.5315  0.1731
 2779TIP3    H1 8290   3.989   5.938   1.997 -1.0043 -2.6184  1.1349
 2779TIP3    H2 8291   3.886   5.934   1.886  1.1844  2.1313 -1.1771
 2780TIP3   OH2 8292   5.407   1.818   3.631 -0.7297  0.0059 -0.1968
 2780TIP3    H1 8293   5.387   1.899   3.679 -0.1306 -0.8518  1.5556
 2780TIP3    H2 8294   5.500   1.804   3.648 -0.8553 -1.0857 -0.4246
 2781TIP3   OH2 8295   5.396   0.047   1.302 -0.0914  0.1034 -0.5667
 2781TIP3    H1 8296   5.322   0.005   1.347 -0.4169  1.6112  0.3144
 2781TIP3    H2 8297   5.451   0.081   1.372 -0.1324  1.6696 -1.2750
 2782TIP3   OH2 8298   4.454   2.384   4.135  0.2245 -0.7517 -0.1223
 2782TIP3    H1 8299   4.457   2.310   4.074 -0.2966  0.4683 -1.6414
 2782TIP3    H2 8300   4.362   2.411   4.136  0.5485  0.3739 -0.1690
 2783TIP3   OH2 8301   6.929   2.255   2.026  0.0867 -0.1080 -0.7307
 2783TIP3    H1 8302   6.978   2.277   2.105 -1.9506  1.5663  0.1144
 2783TIP3    H2 8303   6.966   2.312   1.958 -0.4809  0.9555 -0.1607
 2784TIP3   OH2 8304   6.126   4.424   3.521  0.2468 -0.0684  0.3588
 2784TIP3    H1 8305   6.134   4.486   3.448 -1.5015 -1.0677 -0.7166
 2784TIP3    H2 8306   6.048   4.454   3.569 -0.9542 -1.7525 -0.5083
 2785TIP3   OH2 8307   7.088   3.786   3.612  0.1095 -0.9847 -0.3271
 2785TIP3    H1 8308   7.091   3.829   3.697  1.4087 -1.2947 -0.1925
 2785TIP3    H2 8309   7.021   3.718   3.622 -0.1002 -0.6941  0.2866
 2786TIP3   OH2 8310   5.346   1.965   2.161  0.1432  0.2607 -0.7053
 2786TIP3    H1 8311   5.349   2.041   2.103 -1.6599  0.3797 -0.6624
 2786TIP3    H2 8312   5.253   1.944   2.168  0.5519 -1.3362  0.0892
 2787TIP3   OH2 8313   5.677   0.765   3.706  0.0596 -0.2144  0.0877
 2787TIP3    H1 8314   5.732   0.729   3.636  0.4639 -1.1703  0.8862
 2787TIP3    H2 8315   5.606   0.810   3.660 -0.4060 -1.9413 -0.9401
 2788TIP3   OH2 8316   5.713   2.883   3.649  0.2028 -0.4109  0.1877
 2788TIP3    H1 8317   5.651   2.929   3.593  1.0722 -0.4755 -0.8530
 2788TIP3    H2 8318   5.736   2.946   3.717 -1.3239 -0.5357  0.8438
 2789TIP3   OH2 8319   4.604   2.584   1.119 -0.4134 -0.5078  0.0557
 2789TIP3    H1 8320   4.563   2.613   1.200 -1.0651  0.1246 -0.4848
 2789TIP3    H2 8321   4.535   2.537   1.072 -0.5937  0.7209 -0.9435
 2790TIP3   OH2 8322   6.724   4.064   0.920  0.0032 -0.3515 -0.1414
 2790TIP3    H1 8323   6.679   4.145   0.942  0.5281 -0.1793  0.3052
 2790TIP3    H2 8324   6.715   4.056   0.825  0.5791  0.6009 -0.2768
 2791TIP3   OH2 8325   6.965   1.317   4.034 -0.4040  0.1201 -0.4958
 2791TIP3    H1 8326   6.888   1.341   4.086 -0.2841  0.8346 -0.6391
 2791TIP3    H2 8327   6.945   1.229   4.001 -1.1189  0.2617 -0.4566
 2792TIP3   OH2 8328   7.277   2.818   5.478  0.6084 -0.3069  0.2179
 2792TIP3    H1 8329   7.196   2.769   5.485  0.5829 -0.7060 -2.3757
 2792TIP3    H2 8330   7.346   2.752   5.484  0.6246 -0.4228 -0.9749
 2793TIP3   OH2 8331   5.409   1.746   2.735 -0.3162 -0.3468 -0.0643
 2793TIP3    H1 8332   5.363   1.761   2.653  2.8187 -0.3128 -1.8996
 2793TIP3    H2 8333   5.485   1.692   2.711  1.0373  0.2012  2.6791
 2794TIP3   OH2 8334   6.113   2.329   4.276  0.1176  0.1865 -0.2623
 2794TIP3    H1 8335   6.197   2.297   4.311  0.0419 -0.5035 -0.7028
 2794TIP3    H2 8336   6.116   2.423   4.289  1.4062  0.2924 -1.2136
 2795TIP3   OH2 8337   7.371   3.088   2.274 -0.0515  0.0283  0.2293
 2795TIP3    H1 8338   7.377   3.031   2.350 -0.7698  1.4904  1.4155
 2795TIP3    H2 8339   7.277   3.092   2.254  0.2819 -1.7463 -1.8432
 2796TIP3   OH2 8340   7.741   0.157   0.986 -0.0624 -0.1434  0.0728
 2796TIP3    H1 8341   7.725   0.219   1.057  0.6351  0.0821  0.0381
 2796TIP3    H2 8342   7.654   0.121   0.966 -0.1174 -1.0451  1.7912
 2797TIP3   OH2 8343   6.163   1.860   1.490 -0.6489  0.2401 -0.3672
 2797TIP3    H1 8344   6.223   1.791   1.462 -1.5900 -0.8084  0.1308
 2797TIP3    H2 8345   6.079   1.815   1.500 -1.2818  1.4716 -0.0593
 2798TIP3   OH2 8346   6.459   2.715   0.807 -0.5635  0.5455  0.0982
 2798TIP3    H1 8347   6.424   2.712   0.719 -0.0645  1.5446 -0.1385
 2798TIP3    H2 8348   6.548   2.679   0.799  0.1576  2.3523 -0.1466
 2799TIP3   OH2 8349   5.138   7.309   4.161 -0.0909  0.6515  0.4678
 2799TIP3    H1 8350   5.072   7.241   4.148  0.8016 -0.1142 -0.1509
 2799TIP3    H2 8351   5.131   7.333   4.253 -0.9277  0.2595  0.5097
 2800TIP3   OH2 8352   6.607   1.687   2.429 -0.4338  0.7471 -0.3438
 2800TIP3    H1 8353   6.689   1.720   2.465  1.3855 -0.6535 -2.9878
 2800TIP3    H2 8354   6.620   1.592   2.423 -2.9320  0.2926  0.7754
 2801TIP3   OH2 8355   4.925   3.505   2.709  0.8509 -0.1291  0.3680
 2801TIP3    H1 8356   4.945   3.466   2.795  4.1931  0.1462 -0.2111
 2801TIP3    H2 8357   5.007   3.498   2.660 -0.6135  0.9774 -2.3509
 2802TIP3   OH2 8358   5.700   2.808   2.677 -0.1353  0.3941  0.1848
 2802TIP3    H1 8359   5.717   2.844   2.589 -0.8398  0.5072  0.0930
 2802TIP3    H2 8360   5.663   2.722   2.660 -2.5632  1.3811  0.3090
 2803TIP3   OH2 8361   4.015   6.681   2.454 -0.1049  0.2404 -0.4326
 2803TIP3    H1 8362   3.920   6.691   2.450 -0.1372 -0.3346 -1.4233
 2803TIP3    H2 8363   4.028   6.596   2.496  0.0521  1.6934  2.5902
 2804TIP3   OH2 8364   7.532   3.637   3.087 -0.4263 -0.0837 -0.2116
 2804TIP3    H1 8365   7.609   3.662   3.035 -1.0076  0.5882 -0.7740
 2804TIP3    H2 8366   7.486   3.573   3.033 -1.6556  1.4866 -1.0864
 2805TIP3   OH2 8367   6.172   2.512   1.718 -0.1350  0.4000 -0.3518
 2805TIP3    H1 8368   6.191   2.501   1.811 -0.8297  1.0292 -0.1324
 2805TIP3    H2 8369   6.225   2.445   1.675  0.3002  0.2005  0.4826
 2806TIP3   OH2 8370   6.307   3.102   0.084  0.3675 -0.4224  0.1705
 2806TIP3    H1 8371   6.381   3.161   0.066  1.0129 -0.4518  2.5528
 2806TIP3    H2 8372   6.268   3.086  -0.001  1.7232  1.4541 -0.8412
 2807TIP3   OH2 8373   7.735   2.321   3.043 -0.3258 -0.1541  0.5973
 2807TIP3    H1 8374   7.783   2.399   3.017 -1.5109  0.7407  1.0139
 2807TIP3    H2 8375   7.729   2.268   2.964  2.6871 -1.0345  0.9067
 2808TIP3   OH2 8376   6.129   3.537   2.641  0.5011 -0.4338  0.5373
 2808TIP3    H1 8377   6.069   3.472   2.603 -1.6311  0.8861  1.4957
 2808TIP3    H2 8378   6.200   3.545   2.577 -1.3432 -0.6444 -1.6176
 2809TIP3   OH2 8379   7.490   2.134   0.880 -0.2760  0.7241  0.1557
 2809TIP3    H1 8380   7.568   2.184   0.855 -0.0580  0.3643  0.1115
 2809TIP3    H2 8381   7.475   2.076   0.806 -1.5446  1.9206 -0.5540
 2810TIP3   OH2 8382   5.159   1.728   1.716  0.0777 -0.2920 -0.7048
 2810TIP3    H1 8383   5.095   1.678   1.665 -0.7557  1.1332 -1.1011
 2810TIP3    H2 8384   5.130   1.819   1.707  0.9031  0.1526  0.9214
 2811TIP3   OH2 8385   7.245   0.396   1.628 -0.2291  0.5010  0.1184
 2811TIP3    H1 8386   7.285   0.359   1.707 -0.9198 -0.1581  0.1602
 2811TIP3    H2 8387   7.288   0.350   1.556  0.0677  0.7723  0.1198
 2812TIP3   OH2 8388   6.761   3.059   2.776  0.3984 -0.2340 -0.2969
 2812TIP3    H1 8389   6.837   3.116   2.767  0.7034 -0.9859 -2.8897
 2812TIP3    H2 8390   6.760   3.007   2.696 -1.5730 -1.8074  0.6937
 2813TIP3   OH2 8391   6.413   3.628   4.073  0.4200  0.3973 -0.1220
 2813TIP3    H1 8392   6.442   3.589   3.990  1.8698  1.0522  0.0696
 2813TIP3    H2 8393   6.406   3.722   4.054  0.3156  0.4913  0.3835
 2814TIP3   OH2 8394   7.207   3.373   2.236  0.7036 -0.5526 -0.1904
 2814TIP3    H1 8395   7.147   3.302   2.215  1.8617 -1.4711 -0.4702
 2814TIP3    H2 8396   7.161   3.424   2.303  0.6352 -2.6704  1.4390
 2815TIP3   OH2 8397   5.005   3.919   2.691  0.4488  0.2642 -0.1620
 2815TIP3    H1 8398   5.028   4.005   2.726  0.1330  0.1586  0.3168
 2815TIP3    H2 8399   4.959   3.937   2.609  0.7367  0.5349 -0.2611
 2816TIP3   OH2 8400   5.290   1.890   4.012 -0.2407  0.2764  0.8992
 2816TIP3    H1 8401   5.215   1.831   4.007 -0.2536  0.3355  0.3782
 2816TIP3    H2 8402   5.351   1.845   4.072  0.0246 -0.5858 -0.0102
 2817TIP3   OH2 8403   5.555   3.879   0.252  0.0905 -0.0095 -0.4081
 2817TIP3    H1 8404   5.640   3.837   0.265 -0.7671 -1.4660  0.8236
 2817TIP3    H2 8405   5.511   3.824   0.187 -0.5383 -0.2571  0.2171
 2818TIP3   OH2 8406   2.064   5.401   5.775  0.3976 -0.6902  1.0831
 2818TIP3    H1 8407   2.094   5.410   5.685 -3.4814  1.6608 -0.0742
 2818TIP3    H2 8408   2.057   5.306   5.789  1.9944 -1.0996 -0.7070
 2819TIP3   OH2 8409   0.099   3.070   3.338  0.2404  0.6095 -0.0314
 2819TIP3    H1 8410   0.028   3.100   3.394  0.8491  2.4366 -0.2102
 2819TIP3    H2 8411   0.178   3.111   3.374  1.2876 -1.7880  0.4628
 2820TIP3   OH2 8412   6.571   0.605   1.078  0.5883 -0.1093  0.6546
 2820TIP3    H1 8413   6.584   0.584   1.170  2.0079  1.0871  0.7480
 2820TIP3    H2 8414   6.585   0.522   1.032  0.9767 -0.4786  1.4274
 2821TIP3   OH2 8415   6.228   2.472   6.098  0.2611 -0.0261  0.3742
 2821TIP3    H1 8416   6.167   2.408   6.060 -2.4518  1.2852  2.3408
 2821TIP3    H2 8417   6.271   2.425   6.169 -3.2024  0.7999  3.1372
 2822TIP3   OH2 8418   7.217   4.024   1.704 -0.3775  0.1748 -0.5190
 2822TIP3    H1 8419   7.180   3.996   1.788 -0.4852  1.7008 -0.0375
 2822TIP3    H2 8420   7.141   4.050   1.652 -0.5562 -3.1017 -2.0521
 2823TIP3   OH2 8421   5.726   2.287   0.394  0.1874  0.3232  0.0568
 2823TIP3    H1 8422   5.742   2.289   0.300  1.4009  0.6147  0.2567
 2823TIP3    H2 8423   5.665   2.359   0.410 -1.0031 -0.5047 -0.6660
 2824TIP3   OH2 8424   0.110   1.299   2.716 -0.1861 -0.1656 -0.4329
 2824TIP3    H1 8425   0.085   1.322   2.805 -0.4180 -0.2303 -0.4816
 2824TIP3    H2 8426   0.100   1.380   2.666  1.3263  0.2339 -0.1038
 2825TIP3   OH2 8427   6.603   3.690   2.668 -0.0325  0.6892 -0.4263
 2825TIP3    H1 8428   6.537   3.657   2.729 -0.1791  1.0069 -0.4103
 2825TIP3    H2 8429   6.554   3.708   2.587  0.3198 -0.5607 -0.9235
 2826TIP3   OH2 8430   6.117   1.408   1.781 -0.0352 -0.0826  0.3146
 2826TIP3    H1 8431   6.069   1.464   1.721 -0.5497 -0.4494  0.3766
 2826TIP3    H2 8432   6.052   1.381   1.846  0.4181 -0.0297  0.7884
 2827TIP3   OH2 8433   6.058   2.869   0.888  0.1092 -0.1208 -0.1174
 2827TIP3    H1 8434   6.084   2.863   0.796 -0.5299 -0.0289 -0.3052
 2827TIP3    H2 8435   5.966   2.893   0.885  0.3172  0.7996  0.5518
 2828TIP3   OH2 8436   6.390   3.688   5.231  0.3090 -0.2743 -0.1853
 2828TIP3    H1 8437   6.319   3.639   5.273  0.9770 -0.2271  1.0238
 2828TIP3    H2 8438   6.457   3.696   5.299  1.0525  0.5638 -1.0029
 2829TIP3   OH2 8439   5.087   2.647   0.373 -0.0737 -0.7661 -0.0158
 2829TIP3    H1 8440   5.135   2.699   0.438  2.4712 -2.2640 -0.6232
 2829TIP3    H2 8441   5.105   2.691   0.290 -0.7130 -0.6730 -0.1057
 2830TIP3   OH2 8442   5.388   0.579   2.148 -0.1960  0.1045  0.2486
 2830TIP3    H1 8443   5.294   0.584   2.132 -0.4693 -0.3248  1.6814
 2830TIP3    H2 8444   5.425   0.649   2.093 -1.3247  0.1957 -0.4141
 2831TIP3   OH2 8445   6.807   3.119   3.190  0.3410 -0.0062 -0.3439
 2831TIP3    H1 8446   6.732   3.060   3.177  1.2207 -1.5562  1.3184
 2831TIP3    H2 8447   6.769   3.206   3.196 -0.9787 -0.3472 -3.1297
 2832TIP3   OH2 8448   6.117   2.091   2.960  0.2180  0.7014 -0.1126
 2832TIP3    H1 8449   6.196   2.128   2.921 -0.2895  0.3544 -1.4819
 2832TIP3    H2 8450   6.061   2.068   2.886 -0.9213  0.3817  0.8227
 2833TIP3   OH2 8451   7.293   5.768   5.779 -0.3762 -0.3495 -1.1653
 2833TIP3    H1 8452   7.321   5.829   5.848 -0.7395 -0.0150 -1.3142
 2833TIP3    H2 8453   7.231   5.710   5.822 -0.9361  0.1330 -1.3142
 2834TIP3   OH2 8454   5.200   2.983   4.208 -0.1508  0.0114 -0.5660
 2834TIP3    H1 8455   5.118   3.021   4.238  0.7256  0.5490  1.2258
 2834TIP3    H2 8456   5.234   3.047   4.145  0.1767  1.0986  0.6838
 2835TIP3   OH2 8457   6.968   3.842   3.197 -0.4161  0.2225  0.1382
 2835TIP3    H1 8458   7.005   3.920   3.154 -1.5647  0.1405 -1.0128
 2835TIP3    H2 8459   6.963   3.776   3.128  1.2902 -1.1529  1.2944
 2836TIP3   OH2 8460   5.928   2.165   2.228  0.1646 -0.3628  0.3426
 2836TIP3    H1 8461   5.839   2.135   2.209 -0.5414  1.2658  0.9138
 2836TIP3    H2 8462   5.984   2.110   2.174 -1.2655 -0.7584 -0.7930
 2837TIP3   OH2 8463   7.654   6.660   6.223 -0.5213  0.4592  0.0389
 2837TIP3    H1 8464   7.587   6.728   6.228 -0.4198  0.6138 -0.6161
 2837TIP3    H2 8465   7.692   6.670   6.135 -0.3475 -0.2890  0.0235
 2838TIP3   OH2 8466   6.006   1.508   2.943  0.1641  0.5116 -0.0236
 2838TIP3    H1 8467   5.940   1.446   2.912  0.8575  0.1173 -0.7278
 2838TIP3    H2 8468   6.014   1.490   3.036  0.0909 -0.2071 -0.1527
 2839TIP3   OH2 8469   5.885   2.732   3.419  0.1633  0.3816 -0.2836
 2839TIP3    H1 8470   5.796   2.759   3.443 -0.1000  0.0228 -0.8466
 2839TIP3    H2 8471   5.897   2.767   3.331  0.2015 -0.4631 -0.6132
 2840TIP3   OH2 8472   5.696   4.701   2.401 -0.2863 -0.0089 -0.1090
 2840TIP3    H1 8473   5.677   4.725   2.492  0.1892  0.7557 -0.2116
 2840TIP3    H2 8474   5.646   4.763   2.349  2.6192  2.1683 -0.3867
 2841TIP3   OH2 8475   6.643   2.998   3.425  0.1622 -0.3052  0.0446
 2841TIP3    H1 8476   6.727   2.963   3.396 -0.0733 -0.4216 -0.4917
 2841TIP3    H2 8477   6.597   3.021   3.345  0.1877  0.9555  0.3775
 2842TIP3   OH2 8478   7.806   2.880   0.476  0.1469  0.1024 -0.0574
 2842TIP3    H1 8479   7.756   2.850   0.552 -0.6483  0.8268 -0.2934
 2842TIP3    H2 8480   7.894   2.846   0.491 -0.3790 -1.0646  0.4290
 2843TIP3   OH2 8481   3.276   7.376   0.766 -0.0515  0.3327  0.0157
 2843TIP3    H1 8482   3.345   7.441   0.769  0.4595 -0.1466 -0.9495
 2843TIP3    H2 8483   3.311   7.306   0.710 -0.3763 -1.0243  1.4820
 2844TIP3   OH2 8484   4.090   1.996   2.139 -0.2301 -0.5875 -0.3508
 2844TIP3    H1 8485   4.051   1.969   2.223  2.1010 -1.1652  0.5965
 2844TIP3    H2 8486   4.150   1.925   2.118  1.9848  1.3064 -0.5980
 2845TIP3   OH2 8487   7.308   3.678   1.748  0.2683 -0.2551  0.0910
 2845TIP3    H1 8488   7.357   3.721   1.818 -0.7585  1.4058 -0.1766
 2845TIP3    H2 8489   7.223   3.658   1.786 -0.2963  0.6629 -0.6656
 2846TIP3   OH2 8490   5.121   1.069   3.514  0.7811  0.2756 -0.0241
 2846TIP3    H1 8491   5.061   1.068   3.589  0.3205 -1.0011 -0.4020
 2846TIP3    H2 8492   5.204   1.035   3.549  0.9143  0.8230  0.1934
 2847TIP3   OH2 8493   7.649   2.788   1.733  0.6068 -0.2901  0.1562
 2847TIP3    H1 8494   7.587   2.856   1.709  0.3703 -0.1043  1.2697
 2847TIP3    H2 8495   7.633   2.718   1.670  0.0981  0.2360 -0.3063
 2848TIP3   OH2 8496   3.020   5.581   4.868  0.2616  0.1548  0.6673
 2848TIP3    H1 8497   3.105   5.612   4.899  0.7321  0.5347 -0.9575
 2848TIP3    H2 8498   2.964   5.585   4.945  1.3811  1.1225  1.4540
 2849TIP3   OH2 8499   5.524   2.623   4.360  0.4416  0.5973  0.3847
 2849TIP3    H1 8500   5.527   2.711   4.397  0.7390  0.2619  1.1807
 2849TIP3    H2 8501   5.569   2.568   4.425 -0.3024 -0.2487  0.1988
 2850TIP3   OH2 8502   6.928   1.086   3.691  0.2195  0.3120  0.2947
 2850TIP3    H1 8503   6.973   1.161   3.651 -0.7265  1.6626  1.7074
 2850TIP3    H2 8504   6.853   1.071   3.634 -0.5562  1.5737  0.9672
 2851TIP3   OH2 8505   6.693   3.649   2.992 -0.1637  0.5557 -0.7105
 2851TIP3    H1 8506   6.624   3.590   2.963  1.4854 -1.1056 -1.3837
 2851TIP3    H2 8507   6.661   3.685   3.074 -2.0613  0.2538 -1.2997
 2852TIP3   OH2 8508   3.607   1.794   1.428  0.0535 -0.1039  0.1974
 2852TIP3    H1 8509   3.585   1.828   1.515  2.6838 -0.9450  1.2571
 2852TIP3    H2 8510   3.630   1.703   1.443  0.7607 -0.1936 -1.3337
 2853TIP3   OH2 8511   0.539   5.405   6.375  0.3851 -0.5431  0.4133
 2853TIP3    H1 8512   0.595   5.355   6.315  1.4133  0.0373  0.8722
 2853TIP3    H2 8513   0.563   5.496   6.359 -1.8256 -0.1417 -0.7569
 2854TIP3   OH2 8514   5.741   2.108   0.845  0.2157  0.0054 -0.1930
 2854TIP3    H1 8515   5.824   2.148   0.872  0.9669 -2.1181  0.7343
 2854TIP3    H2 8516   5.749   2.095   0.751  0.7246  0.2868 -0.1898
 2855TIP3   OH2 8517   7.094   2.107   3.848  0.1094  0.0078 -0.5506
 2855TIP3    H1 8518   7.098   2.012   3.835  0.1244  0.0325 -0.7329
 2855TIP3    H2 8519   7.034   2.119   3.921 -0.7579 -0.0752 -1.2481
 2856TIP3   OH2 8520   7.583   3.573   2.458  0.2774  0.3356 -0.4109
 2856TIP3    H1 8521   7.599   3.479   2.461  0.9478  0.4602  0.0096
 2856TIP3    H2 8522   7.660   3.612   2.498  1.1241  1.2012 -2.7919
 2857TIP3   OH2 8523   1.600   5.884   6.139  0.1637  0.0390  0.5058
 2857TIP3    H1 8524   1.695   5.892   6.133 -0.0282  0.8915 -1.9265
 2857TIP3    H2 8525   1.585   5.834   6.220  2.6850 -0.5500  0.6488
 2858TIP3   OH2 8526   6.152   1.132   0.620 -0.0457 -0.2781 -0.3201
 2858TIP3    H1 8527   6.226   1.142   0.679  0.4824 -1.2123 -0.8195
 2858TIP3    H2 8528   6.080   1.178   0.664  0.0984 -1.6909  1.4638
 2859TIP3   OH2 8529   4.032   4.259   2.798 -0.5341  0.6417  0.0207
 2859TIP3    H1 8530   4.039   4.348   2.833 -0.9931  1.0884 -1.0230
 2859TIP3    H2 8531   4.097   4.209   2.848  1.7305  2.1742 -1.2924
 2860TIP3   OH2 8532   5.586   2.569   3.568 -0.0974  0.1060 -0.0511
 2860TIP3    H1 8533   5.648   2.498   3.549 -1.1875 -1.0545  0.5945
 2860TIP3    H2 8534   5.617   2.606   3.651  0.8601  0.8349 -0.7282
 2861TIP3   OH2 8535   5.915   5.114   2.967  0.0484  0.4680 -0.0155
 2861TIP3    H1 8536   6.000   5.131   2.927  0.0882 -0.5599 -0.3714
 2861TIP3    H2 8537   5.895   5.194   3.016  2.2938 -0.1650  2.0020
 2862TIP3   OH2 8538   6.091   3.782   2.757 -0.1102 -0.1398  0.5943
 2862TIP3    H1 8539   6.086   3.693   2.720 -0.0066  0.1832 -0.2122
 2862TIP3    H2 8540   6.156   3.826   2.702 -0.0293  0.3801  1.1134
 2863TIP3   OH2 8541   7.084   2.015   2.717  0.0575 -0.1045 -0.0199
 2863TIP3    H1 8542   7.131   2.069   2.781  1.1534  0.1326 -1.0092
 2863TIP3    H2 8543   7.125   2.036   2.633 -1.0885 -0.7250 -0.7461
 2864TIP3   OH2 8544   5.800   2.217   1.877 -0.0456  0.2282  0.6933
 2864TIP3    H1 8545   5.796   2.265   1.794  0.6803 -0.2560  0.3657
 2864TIP3    H2 8546   5.713   2.179   1.887 -0.1240  0.2497  0.1177
 2865TIP3   OH2 8547   6.882   4.083   1.733 -0.1469  0.1210 -0.3238
 2865TIP3    H1 8548   6.799   4.130   1.727  1.0179  2.0249 -2.3862
 2865TIP3    H2 8549   6.906   4.065   1.642  1.8504 -0.1201  0.2141
 2866TIP3   OH2 8550   6.602   3.755   3.518 -0.2079  0.0929 -0.5830
 2866TIP3    H1 8551   6.516   3.795   3.530 -0.1018  0.2363 -0.3149
 2866TIP3    H2 8552   6.590   3.664   3.545 -0.0700  0.3138  0.2218
 2867TIP3   OH2 8553   7.173   3.022   3.874  0.0666  0.4505  0.0628
 2867TIP3    H1 8554   7.148   3.093   3.815 -0.5653  0.8800  0.8384
 2867TIP3    H2 8555   7.144   3.051   3.960  3.4789  1.0466  1.0557
 2868TIP3   OH2 8556   3.195   1.797   2.400  0.1367  0.0402  0.2938
 2868TIP3    H1 8557   3.147   1.879   2.388 -1.3863 -1.0706 -1.4318
 2868TIP3    H2 8558   3.127   1.729   2.402  1.5295 -1.4465 -0.9752
 2869TIP3   OH2 8559   5.616   3.502   3.836  0.0336  0.1536  0.0256
 2869TIP3    H1 8560   5.571   3.449   3.771 -1.6569  0.9650  0.4870
 2869TIP3    H2 8561   5.547   3.556   3.875  1.2373  0.6765  1.5140
 2870TIP3   OH2 8562   5.666   2.001   1.307 -0.5702  0.2980  0.5064
 2870TIP3    H1 8563   5.734   1.998   1.374 -0.9579 -0.4648  0.8785
 2870TIP3    H2 8564   5.635   1.911   1.301 -2.9782  0.9855  1.8485
 2871TIP3   OH2 8565   2.779   6.433   5.960  0.0233 -0.5144  0.3162
 2871TIP3    H1 8566   2.851   6.383   5.923 -0.6320 -1.0663 -0.2246
 2871TIP3    H2 8567   2.770   6.509   5.903  0.4739 -0.2018  0.6544
 2872TIP3   OH2 8568   6.707   0.903   0.372 -0.3351 -0.4628  0.3768
 2872TIP3    H1 8569   6.665   0.986   0.393  0.7548  0.0083  0.7215
 2872TIP3    H2 8570   6.779   0.896   0.435  0.4498 -0.9843 -0.5701
 2873TIP3   OH2 8571   4.882   2.980   2.701 -0.0112  0.1686 -0.2763
 2873TIP3    H1 8572   4.811   3.043   2.689 -0.5681 -0.3201  0.4998
 2873TIP3    H2 8573   4.848   2.898   2.667  0.5440  0.1581 -0.8305
 2874TIP3   OH2 8574   5.972   1.585   0.841  0.2250  0.0415 -0.0153
 2874TIP3    H1 8575   5.881   1.565   0.861  0.3955 -1.3114 -0.4955
 2874TIP3    H2 8576   5.995   1.524   0.771  1.8229 -0.4005  0.8557
 2875TIP3   OH2 8577   5.057   3.043   1.062 -0.9006 -0.6081 -0.4135
 2875TIP3    H1 8578   5.004   3.071   0.987 -2.0420 -0.8976  0.2746
 2875TIP3    H2 8579   4.997   2.992   1.116  0.0357 -0.7798  0.4752
 2876TIP3   OH2 8580   5.296   2.164   4.133  0.1333  0.3777 -0.4384
 2876TIP3    H1 8581   5.324   2.189   4.045  1.7072 -0.0660 -0.0674
 2876TIP3    H2 8582   5.237   2.090   4.119  0.6896  0.0576 -1.0958
 2877TIP3   OH2 8583   7.488   3.609   0.792 -0.0935  0.5604  0.3988
 2877TIP3    H1 8584   7.549   3.664   0.744  0.6594 -0.1051  0.5961
 2877TIP3    H2 8585   7.506   3.627   0.884  0.1867 -0.0569  0.4637
 2878TIP3   OH2 8586   5.168   6.589   2.578  0.0575  0.2678  0.1624
 2878TIP3    H1 8587   5.218   6.669   2.562 -0.6563  0.4085 -1.5171
 2878TIP3    H2 8588   5.098   6.592   2.512 -1.3698 -0.5697  1.5970
 2879TIP3   OH2 8589   4.020   7.462   2.065 -0.6389  0.3260 -0.9623
 2879TIP3    H1 8590   3.972   7.405   2.004 -0.2145  0.2108 -1.1871
 2879TIP3    H2 8591   4.111   7.456   2.036 -0.0003 -1.8711  1.3218
 2880TIP3   OH2 8592   0.713   3.287   1.666 -0.7100 -0.1696  0.2925
 2880TIP3    H1 8593   0.701   3.196   1.694 -0.1029 -0.5343 -0.5905
 2880TIP3    H2 8594   0.644   3.301   1.601  0.4711 -0.6869 -1.1207
 2881TIP3   OH2 8595   6.327   1.219   1.138 -0.3465 -0.4514  0.4731
 2881TIP3    H1 8596   6.394   1.151   1.128 -2.2792 -2.1307 -1.7167
 2881TIP3    H2 8597   6.287   1.200   1.223 -0.2698 -1.5405  0.2799
 2882TIP3   OH2 8598   6.073   1.578   1.092  0.4870  0.3498 -0.2693
 2882TIP3    H1 8599   6.024   1.657   1.113 -0.4964 -0.0751 -0.9050
 2882TIP3    H2 8600   6.063   1.569   0.997 -0.0372 -0.9430 -0.0992
 2883TIP3   OH2 8601   7.724   2.298   1.429  0.2135 -0.0138 -0.1449
 2883TIP3    H1 8602   7.805   2.258   1.400 -0.1324  0.3355 -1.6162
 2883TIP3    H2 8603   7.721   2.382   1.384 -0.0814  0.7744  1.3098
 2884TIP3   OH2 8604   6.472   4.203   3.161 -1.0085 -0.3394  0.5220
 2884TIP3    H1 8605   6.498   4.177   3.073  0.9887 -0.6219  1.1702
 2884TIP3    H2 8606   6.412   4.276   3.147 -0.6781 -0.3507 -1.0778
 2885TIP3   OH2 8607   7.012   1.686   2.239  0.8267 -0.0899 -0.0373
 2885TIP3    H1 8608   6.939   1.625   2.228  1.9131 -1.7495  1.6347
 2885TIP3    H2 8609   7.054   1.690   2.153 -0.3728 -0.2349 -0.6330
 2886TIP3   OH2 8610   5.377   3.014   1.766  0.0320  0.1507 -0.1084
 2886TIP3    H1 8611   5.460   2.970   1.783 -0.3188  0.4330  2.5380
 2886TIP3    H2 8612   5.311   2.947   1.779 -0.2396  0.2459 -0.9629
 2887TIP3   OH2 8613   6.248   3.295   3.914 -0.4156 -0.1599  1.1646
 2887TIP3    H1 8614   6.156   3.312   3.936 -0.3334  0.3910  1.0782
 2887TIP3    H2 8615   6.259   3.201   3.932 -1.2361 -0.4304  0.3493
 2888TIP3   OH2 8616   5.901   2.758   3.961  0.0182  0.6179 -0.0278
 2888TIP3    H1 8617   5.936   2.802   4.039 -0.9796 -0.7459  1.2368
 2888TIP3    H2 8618   5.976   2.710   3.925 -0.1493 -1.2140  1.8993
 2889TIP3   OH2 8619   7.512   4.773   5.124 -0.7429  0.2641 -0.0020
 2889TIP3    H1 8620   7.571   4.711   5.079 -0.6078 -0.1428  0.7294
 2889TIP3    H2 8621   7.432   4.771   5.072 -1.1805 -1.4641  0.7073
 2890TIP3   OH2 8622   5.731   5.524   2.172 -0.1905  0.2762  0.5913
 2890TIP3    H1 8623   5.669   5.591   2.142 -0.7119  0.2736  1.6148
 2890TIP3    H2 8624   5.801   5.525   2.108 -1.3232  0.1841 -0.6687
 2891TIP3   OH2 8625   5.959   0.824   2.809  0.5683 -0.1418  0.3809
 2891TIP3    H1 8626   5.865   0.806   2.808 -0.1924  3.3229  0.6239
 2891TIP3    H2 8627   5.980   0.850   2.719  1.0152  0.2871  0.6051
 2892TIP3   OH2 8628   6.732   4.740   2.218 -0.4073 -0.0279  0.3580
 2892TIP3    H1 8629   6.665   4.773   2.158  0.5562  2.4658  0.6215
 2892TIP3    H2 8630   6.813   4.745   2.167  0.4175  2.1042  1.8651
 2893TIP3   OH2 8631   0.970   0.479   2.829  0.5072 -0.7448  0.2380
 2893TIP3    H1 8632   0.932   0.459   2.914 -0.9073  0.1953 -0.1673
 2893TIP3    H2 8633   0.908   0.444   2.765  0.7548 -0.0153 -0.4180
 2894TIP3   OH2 8634   7.669   2.914   3.713  0.6170 -0.0328  0.0208
 2894TIP3    H1 8635   7.739   2.922   3.778 -0.8836 -2.2909  2.0112
 2894TIP3    H2 8636   7.689   2.834   3.666 -1.0332 -1.1929  1.2039
 2895TIP3   OH2 8637   1.835   5.234   4.598  0.2939  0.6420 -0.5527
 2895TIP3    H1 8638   1.812   5.318   4.560  1.5520  0.8123 -0.9606
 2895TIP3    H2 8639   1.930   5.228   4.589  0.2501 -0.7155 -0.3262
 2896TIP3   OH2 8640   7.534   4.848   2.396  0.1448 -0.2860  0.3661
 2896TIP3    H1 8641   7.589   4.926   2.396  0.7894 -0.7334  0.8297
 2896TIP3    H2 8642   7.587   4.781   2.440  0.3567 -1.5222 -1.6737
 2897TIP3   OH2 8643   5.958   4.742   2.718 -0.1718  0.0562 -0.3252
 2897TIP3    H1 8644   5.921   4.827   2.696 -3.3096 -1.2057 -0.2086
 2897TIP3    H2 8645   5.968   4.697   2.634 -1.5578 -0.6162 -0.1476
 2898TIP3   OH2 8646   7.115   0.530   2.053 -0.3785  0.2079 -0.5344
 2898TIP3    H1 8647   7.206   0.533   2.081 -0.1343  0.9753 -1.3809
 2898TIP3    H2 8648   7.089   0.622   2.043 -1.1760 -0.0053 -0.5140
 2899TIP3   OH2 8649   6.849   2.600   4.509  0.0433 -0.4637  0.1484
 2899TIP3    H1 8650   6.832   2.547   4.431 -1.5981  0.0410  0.1413
 2899TIP3    H2 8651   6.776   2.579   4.568 -0.8877  2.1292 -0.0467
 2900TIP3   OH2 8652   6.815   2.351   1.477 -0.6124  0.2001  0.3262
 2900TIP3    H1 8653   6.853   2.349   1.389 -0.8333  3.6747  0.0848
 2900TIP3    H2 8654   6.811   2.259   1.503  3.1259 -0.6639 -1.7000
 2901TIP3   OH2 8655   7.129   1.759   0.384  0.4673 -0.1540  0.3959
 2901TIP3    H1 8656   7.158   1.832   0.438 -0.4035  0.1418  0.4771
 2901TIP3    H2 8657   7.198   1.693   0.392 -0.9691 -1.3555  4.2809
 2902TIP3   OH2 8658   7.104   4.450   2.721  0.5115  0.0610 -0.4657
 2902TIP3    H1 8659   7.093   4.541   2.693  0.5588  0.6252  1.2868
 2902TIP3    H2 8660   7.026   4.405   2.688 -0.2464  1.0596 -0.0432
 2903TIP3   OH2 8661   6.841   1.826   3.779 -0.1625 -0.5325 -0.4579
 2903TIP3    H1 8662   6.923   1.841   3.825 -0.9426 -2.5236  1.7061
 2903TIP3    H2 8663   6.780   1.887   3.819 -0.5328 -1.3851  0.2988
 2904TIP3   OH2 8664   6.137   3.236   2.131 -0.4973 -0.4170  0.2744
 2904TIP3    H1 8665   6.123   3.190   2.048 -0.7881 -1.8687  1.0956
 2904TIP3    H2 8666   6.104   3.175   2.197 -3.4330  2.1128  1.2336
 2905TIP3   OH2 8667   1.783   4.229   4.346  0.2597 -0.2773  1.3487
 2905TIP3    H1 8668   1.761   4.266   4.432  1.6570  1.7226  0.8936
 2905TIP3    H2 8669   1.877   4.210   4.352  0.3221 -0.3121  0.3351
 2906TIP3   OH2 8670   7.099   2.168   0.912 -0.2115 -0.2368  0.0743
 2906TIP3    H1 8671   7.153   2.246   0.899 -0.4620 -0.1781 -0.6307
 2906TIP3    H2 8672   7.028   2.178   0.849 -0.4451 -0.8542  0.2420
 2907TIP3   OH2 8673   0.177   6.850   6.417  0.4319  0.1829  0.3416
 2907TIP3    H1 8674   0.119   6.779   6.389 -1.3718  1.4176  0.8102
 2907TIP3    H2 8675   0.199   6.896   6.336  0.4105 -0.0407  0.2091
 2908TIP3   OH2 8676   6.714   2.614   2.687 -0.1966 -0.3660 -0.4123
 2908TIP3    H1 8677   6.794   2.577   2.649 -0.3974 -1.9391  0.5939
 2908TIP3    H2 8678   6.730   2.610   2.782 -0.7450  1.0180 -0.2536
 2909TIP3   OH2 8679   7.638   3.036   2.613  0.3461 -0.2220  0.1076
 2909TIP3    H1 8680   7.702   3.010   2.546  0.8968 -0.4850  0.7306
 2909TIP3    H2 8681   7.674   3.001   2.695 -0.7713 -0.6807  0.4138
 2910TIP3   OH2 8682   3.803   7.325   1.549  0.6055 -0.1887 -0.4717
 2910TIP3    H1 8683   3.727   7.378   1.573  1.8682  1.6320 -0.3512
 2910TIP3    H2 8684   3.858   7.326   1.627  0.7531 -1.4966 -0.5563
 2911TIP3   OH2 8685   7.399   2.668   2.628 -0.3436  0.0871  0.1562
 2911TIP3    H1 8686   7.404   2.618   2.546 -2.4023 -1.2612  0.8134
 2911TIP3    H2 8687   7.421   2.757   2.602 -3.1098  0.1457 -2.3350
 2912TIP3   OH2 8688   7.816   4.199   2.231 -0.5794  0.0982  0.3215
 2912TIP3    H1 8689   7.804   4.114   2.191 -0.8202 -1.3791  3.3851
 2912TIP3    H2 8690   7.727   4.233   2.243 -0.5472  0.1659  0.3699
 2913TIP3   OH2 8691   0.418   2.870   4.325 -0.5947 -0.4014 -0.3743
 2913TIP3    H1 8692   0.397   2.817   4.402  0.8522  0.0819  0.3821
 2913TIP3    H2 8693   0.471   2.812   4.270  0.9967  0.2279  0.4582
 2914TIP3   OH2 8694   4.182   2.430   4.720  0.2132 -0.1287 -0.2551
 2914TIP3    H1 8695   4.125   2.353   4.719 -0.1783  0.0869 -4.2764
 2914TIP3    H2 8696   4.241   2.416   4.646  0.6928  2.9933 -0.5185
 2915TIP3   OH2 8697   6.197   1.656   0.541 -0.3465  0.2573 -0.2301
 2915TIP3    H1 8698   6.270   1.681   0.599 -1.0260  2.0208 -0.0844
 2915TIP3    H2 8699   6.236   1.646   0.455 -0.0618  2.1960 -0.3538
 2916TIP3   OH2 8700   4.109   2.872   2.853 -0.6591 -0.1688 -0.6845
 2916TIP3    H1 8701   4.137   2.797   2.906  1.8298  0.7424 -0.6438
 2916TIP3    H2 8702   4.074   2.934   2.916 -0.3786 -0.2655 -0.4335
 2917TIP3   OH2 8703   6.784   1.857   0.633  0.4070 -0.2738 -0.3062
 2917TIP3    H1 8704   6.768   1.809   0.552  0.2431 -2.7999  1.1951
 2917TIP3    H2 8705   6.744   1.804   0.702  1.6803  1.1631  1.6108
 2918TIP3   OH2 8706   0.783   4.453   3.575 -0.5428  0.6535  0.0539
 2918TIP3    H1 8707   0.743   4.383   3.627 -0.0536  1.0159  0.9311
 2918TIP3    H2 8708   0.867   4.417   3.547 -1.5276 -0.1722 -1.9375
 2919TIP3   OH2 8709   5.794   3.004   3.911  0.1821 -0.0974  0.3421
 2919TIP3    H1 8710   5.823   2.918   3.940  1.8248  0.1770 -0.4270
 2919TIP3    H2 8711   5.783   3.055   3.991  0.7160 -0.5658  0.7108
 2920TIP3   OH2 8712   5.783   3.756   2.097  0.0793 -0.0325  0.4567
 2920TIP3    H1 8713   5.796   3.842   2.056 -1.3314 -0.4121 -0.8018
 2920TIP3    H2 8714   5.736   3.775   2.178 -0.0001  0.4027  0.3105
 2921TIP3   OH2 8715   7.338   2.094   1.401  0.1576  0.5099 -0.0145
 2921TIP3    H1 8716   7.369   2.080   1.312  0.9701  1.6346  0.0846
 2921TIP3    H2 8717   7.293   2.178   1.399 -0.4883  0.1860  0.4725
 2922TIP3   OH2 8718   6.083   2.481   2.501 -0.4027 -0.3666  0.4175
 2922TIP3    H1 8719   6.162   2.427   2.504  1.0853  1.7991  1.7710
 2922TIP3    H2 8720   6.014   2.424   2.534  0.7252 -2.0514 -0.0621
 2923TIP3   OH2 8721   0.162   4.450   1.735 -0.0368  0.3566  0.1521
 2923TIP3    H1 8722   0.159   4.374   1.677 -0.0842 -0.7651  1.5839
 2923TIP3    H2 8723   0.078   4.448   1.781  0.3395  0.7287  0.8643
 2924TIP3   OH2 8724   7.089   3.479   2.704 -0.8564 -0.4049  0.4760
 2924TIP3    H1 8725   7.095   3.481   2.608  0.6844  0.4580  0.5785
 2924TIP3    H2 8726   7.020   3.542   2.725 -0.8305 -0.2032 -0.0371
 2925TIP3   OH2 8727   1.023   3.720   5.705 -0.3091  0.6275 -0.6077
 2925TIP3    H1 8728   0.962   3.719   5.630 -0.6877  0.5118 -0.3021
 2925TIP3    H2 8729   1.049   3.628   5.715 -2.8901  0.0466  1.5130
 2926TIP3   OH2 8730   6.431   2.177   0.666  0.2129  0.3991  0.1618
 2926TIP3    H1 8731   6.494   2.238   0.626  0.5148 -0.2938 -0.4256
 2926TIP3    H2 8732   6.450   2.093   0.625 -2.5319  0.6029 -1.6478
 2927TIP3   OH2 8733   6.478   2.341   1.958 -0.6233 -0.1784 -0.1375
 2927TIP3    H1 8734   6.441   2.273   2.015  0.0640  0.4835  1.1029
 2927TIP3    H2 8735   6.415   2.413   1.963 -1.4636 -0.7695 -1.6242
 2928TIP3   OH2 8736   5.146   4.492   0.357  0.2206  0.2048 -0.4900
 2928TIP3    H1 8737   5.215   4.458   0.300  0.0559 -0.2355 -0.4261
 2928TIP3    H2 8738   5.072   4.508   0.298  0.1775  0.1127 -0.4599
 2929TIP3   OH2 8739   6.443   0.947   2.640 -0.3426 -0.0123 -0.3940
 2929TIP3    H1 8740   6.480   1.028   2.605  2.3429 -1.8896 -2.1239
 2929TIP3    H2 8741   6.468   0.948   2.732  0.1520  0.8690 -0.5297
 2930TIP3   OH2 8742   7.816   2.430   2.108  0.1857 -0.2248 -0.0221
 2930TIP3    H1 8743   7.899   2.386   2.128  0.4702 -0.3130 -1.3494
 2930TIP3    H2 8744   7.780   2.380   2.035 -0.6250  0.3343 -0.0038
 2931TIP3   OH2 8745   2.294   5.070   5.913  0.0532 -0.1822  0.2414
 2931TIP3    H1 8746   2.384   5.037   5.902 -0.1203 -0.9329  0.9519
 2931TIP3    H2 8747   2.241   4.990   5.921 -0.6723  0.2604 -0.0983
 2932TIP3   OH2 8748   7.145   1.952   1.529  0.4577 -0.1855  0.2329
 2932TIP3    H1 8749   7.212   2.005   1.487 -1.8207  1.4997 -1.3691
 2932TIP3    H2 8750   7.147   1.869   1.482  1.6670 -0.2814  0.4425
 2933TIP3   OH2 8751   6.649   5.435   1.112  0.2018 -0.1598 -0.3443
 2933TIP3    H1 8752   6.707   5.388   1.052  0.8479  1.1486 -0.7896
 2933TIP3    H2 8753   6.627   5.516   1.065 -2.3031 -0.8084 -0.3268
 2934TIP3   OH2 8754   0.141   2.799   1.652 -0.3676 -0.5033  0.3915
 2934TIP3    H1 8755   0.059   2.840   1.678 -0.3047 -0.0450 -0.1068
 2934TIP3    H2 8756   0.162   2.739   1.723  0.3887  1.5403  1.9330
 2935TIP3   OH2 8757   6.731   4.376   4.909  0.1974 -0.4904 -0.1164
 2935TIP3    H1 8758   6.748   4.463   4.873  2.4010 -1.3190 -1.1665
 2935TIP3    H2 8759   6.811   4.327   4.893 -0.3478 -2.1892  2.1081
 2936TIP3   OH2 8760   0.621   3.097   1.384  0.0230  0.0596  0.5005
 2936TIP3    H1 8761   0.574   3.167   1.429 -0.7596 -1.1036  1.5128
 2936TIP3    H2 8762   0.558   3.064   1.319  0.5437  0.5744 -0.2786
 2937TIP3   OH2 8763   6.862   1.818   2.409 -0.3460 -0.0724  0.2158
 2937TIP3    H1 8764   6.833   1.899   2.367 -1.1580 -1.1009 -1.2445
 2937TIP3    H2 8765   6.942   1.794   2.362  0.0759  0.0333  0.8612
 2938TIP3   OH2 8766   7.406   2.818   3.232 -0.5809 -0.3288  0.2863
 2938TIP3    H1 8767   7.491   2.780   3.208  0.0114  1.9493 -1.4470
 2938TIP3    H2 8768   7.343   2.771   3.178  0.0548  0.5739 -1.2799
 2939TIP3   OH2 8769   6.603   2.339   2.345 -0.0062 -0.5708 -0.3054
 2939TIP3    H1 8770   6.599   2.380   2.431 -1.2924  0.2802 -0.7460
 2939TIP3    H2 8771   6.637   2.251   2.361  2.8922  0.6758  0.6545
 2940TIP3   OH2 8772   4.974   6.888   0.933  0.5550  0.1078  0.1285
 2940TIP3    H1 8773   4.990   6.973   0.893 -0.7934 -0.2735 -1.2908
 2940TIP3    H2 8774   4.898   6.854   0.885  0.0010 -1.1274  1.8586
 2941TIP3   OH2 8775   6.843   1.686   0.391  0.1228 -0.2767 -0.2701
 2941TIP3    H1 8776   6.868   1.609   0.442  1.6363 -0.1251 -0.7422
 2941TIP3    H2 8777   6.927   1.727   0.368 -0.5863  0.3872 -1.7284
 2942TIP3   OH2 8778   7.370   1.192   1.045  0.0753  0.2871  0.0780
 2942TIP3    H1 8779   7.427   1.117   1.061  0.0178  0.1346 -0.4356
 2942TIP3    H2 8780   7.423   1.268   1.071  0.6331  0.1725 -0.7144
 2943TIP3   OH2 8781   7.147   2.707   2.730  0.1425  0.1739 -0.8041
 2943TIP3    H1 8782   7.159   2.755   2.812 -0.0602 -0.1923 -0.5591
 2943TIP3    H2 8783   7.234   2.672   2.710 -0.3694 -1.9972  0.6677
 2944TIP3   OH2 8784   7.189   0.952   1.783  0.1781 -0.1304 -0.3914
 2944TIP3    H1 8785   7.150   0.997   1.858 -0.7026 -1.1026 -0.2588
 2944TIP3    H2 8786   7.262   0.901   1.821  0.1158 -0.1409 -0.2866
 2945TIP3   OH2 8787   4.702   5.294   4.480  0.2621 -0.1358  0.5319
 2945TIP3    H1 8788   4.709   5.300   4.575  1.5454 -1.6183  0.5526
 2945TIP3    H2 8789   4.618   5.252   4.464  0.5141 -0.8510  1.0608
 2946TIP3   OH2 8790   7.000   5.633   1.573  0.2786  0.4027 -0.8095
 2946TIP3    H1 8791   6.916   5.641   1.528  0.8370  1.1865 -1.7274
 2946TIP3    H2 8792   7.061   5.604   1.505  0.6979 -0.4139 -0.0886
 2947TIP3   OH2 8793   3.457   0.442   6.345  0.7298  0.4241 -0.3500
 2947TIP3    H1 8794   3.379   0.496   6.359  0.8190 -0.1565  2.6661
 2947TIP3    H2 8795   3.511   0.493   6.284  0.0539  2.9542  1.0939
 2948TIP3   OH2 8796   6.556   4.077   2.493  0.4600 -0.1613  0.8866
 2948TIP3    H1 8797   6.528   3.991   2.464  0.9334  0.5141 -1.6942
 2948TIP3    H2 8798   6.633   4.061   2.547  1.7140 -1.2434 -1.1728
 2949TIP3   OH2 8799   0.612   1.931   3.067  0.7981 -0.4275 -0.3638
 2949TIP3    H1 8800   0.626   1.860   3.005  1.0948 -0.8465  0.1778
 2949TIP3    H2 8801   0.567   1.999   3.017  4.0458  0.6374 -1.9643
 2950TIP3   OH2 8802   3.320   3.835   3.521 -0.5601 -0.2547  0.1006
 2950TIP3    H1 8803   3.357   3.904   3.576 -2.1563  1.7944 -1.3286
 2950TIP3    H2 8804   3.343   3.753   3.566  0.1145  1.2622  2.5794
 2951TIP3   OH2 8805   5.531   2.917   2.936 -0.6665  0.4384  0.4299
 2951TIP3    H1 8806   5.590   2.903   2.862 -0.2210 -0.1645  0.8956
 2951TIP3    H2 8807   5.454   2.865   2.915 -0.8454  0.8571  0.0411
 2952TIP3   OH2 8808   6.272   2.321   0.851 -0.6507 -0.0242 -0.0005
 2952TIP3    H1 8809   6.310   2.283   0.771  1.7604  1.3779  0.4455
 2952TIP3    H2 8810   6.238   2.406   0.823 -0.4704  0.1485  0.3068
 2953TIP3   OH2 8811   7.066   3.544   2.439 -0.1027 -0.3509 -0.3367
 2953TIP3    H1 8812   7.069   3.617   2.501  0.2097  0.3642 -1.1739
 2953TIP3    H2 8813   6.991   3.563   2.383  0.3579 -0.3368 -0.9556
 2954TIP3   OH2 8814   4.417   3.554   1.637 -0.1975  0.5916  0.5419
 2954TIP3    H1 8815   4.389   3.645   1.623 -0.0938  0.4566 -0.5892
 2954TIP3    H2 8816   4.414   3.543   1.732 -1.0865  1.5013  0.6352
 2955TIP3   OH2 8817   2.655   6.150   6.249 -0.1050  0.5557  0.0388
 2955TIP3    H1 8818   2.693   6.235   6.227 -1.0546  0.9296 -0.2043
 2955TIP3    H2 8819   2.561   6.161   6.232 -0.4460 -0.0854  1.4061
 2956TIP3   OH2 8820   0.170   1.032   2.566 -0.1212 -0.1162 -0.1535
 2956TIP3    H1 8821   0.135   1.121   2.564 -0.7478 -0.3538  0.1482
 2956TIP3    H2 8822   0.240   1.036   2.631  1.1319  0.6126 -1.5190
 2957TIP3   OH2 8823   5.826   2.845   1.680  0.5621  0.6963  0.1647
 2957TIP3    H1 8824   5.871   2.765   1.707 -0.8504  0.2032  1.1374
 2957TIP3    H2 8825   5.750   2.850   1.738 -0.0467  2.0738 -0.7299
 2958TIP3   OH2 8826   6.326   0.018   1.848 -0.3189  0.7472  0.1141
 2958TIP3    H1 8827   6.340  -0.062   1.898  0.2598  0.2441 -0.8377
 2958TIP3    H2 8828   6.363   0.087   1.903  1.2284  0.0769 -0.0391
 2959TIP3   OH2 8829   4.623   5.398   0.899 -0.3467 -0.2744 -0.6802
 2959TIP3    H1 8830   4.618   5.358   0.812  2.0572  2.1648 -2.0305
 2959TIP3    H2 8831   4.661   5.330   0.954 -0.6385 -1.4059 -1.8454
 2960TIP3   OH2 8832   7.209   3.282   1.768  0.7242 -0.0322 -0.4087
 2960TIP3    H1 8833   7.145   3.218   1.800  2.0523 -1.3903 -0.4190
 2960TIP3    H2 8834   7.186   3.296   1.676  1.4025 -1.7331 -0.8530
 2961TIP3   OH2 8835   7.332   1.092   0.504 -0.7854  0.3515  0.3659
 2961TIP3    H1 8836   7.243   1.127   0.506 -0.3442  1.4057  2.1061
 2961TIP3    H2 8837   7.363   1.099   0.594  1.2500  0.4475 -0.3192
 2962TIP3   OH2 8838   5.856   2.866   2.933  0.2679  0.9404  0.6565
 2962TIP3    H1 8839   5.808   2.881   2.851  0.1417 -1.1712  0.3198
 2962TIP3    H2 8840   5.928   2.808   2.908 -0.6279 -0.9125  2.2805
 2963TIP3   OH2 8841   5.736   3.329   2.914  0.7014  0.1774  0.1970
 2963TIP3    H1 8842   5.772   3.296   2.997  0.3754  0.6813  0.5476
 2963TIP3    H2 8843   5.666   3.388   2.941  0.9649  0.7852 -0.4246
 2964TIP3   OH2 8844   0.299   4.377   2.168  0.1329  0.1379 -1.0889
 2964TIP3    H1 8845   0.311   4.435   2.243 -1.4849 -0.4038 -0.3912
 2964TIP3    H2 8846   0.318   4.432   2.092  2.2101  0.5770 -0.2830
 2965TIP3   OH2 8847   4.286   6.140   0.052 -0.6029  0.6427  0.0104
 2965TIP3    H1 8848   4.235   6.068   0.089  0.1081 -0.2357 -0.7122
 2965TIP3    H2 8849   4.235   6.167  -0.025 -1.2744  1.4437  0.7225
 2966TIP3   OH2 8850   6.552   3.366   1.912  0.2060  0.1300  0.0781
 2966TIP3    H1 8851   6.469   3.377   1.959  0.5239 -0.8278  0.8763
 2966TIP3    H2 8852   6.619   3.371   1.980  0.7937  0.5048 -0.5147
 2967TIP3   OH2 8853   5.247   2.192   0.063 -0.2431  0.1819  0.5267
 2967TIP3    H1 8854   5.303   2.270   0.065 -1.1575  0.9069 -1.1165
 2967TIP3    H2 8855   5.169   2.217   0.111  0.3275 -0.4281  1.7841
 2968TIP3   OH2 8856   6.023   2.583   1.197  0.3434 -0.1820 -0.1651
 2968TIP3    H1 8857   6.088   2.565   1.130 -0.7891 -0.2349 -1.2594
 2968TIP3    H2 8858   5.939   2.584   1.151 -0.4489 -0.1604  1.2265
 2969TIP3   OH2 8859   6.003   1.201   2.140  0.2898 -0.1800 -0.1107
 2969TIP3    H1 8860   6.072   1.145   2.103 -0.1603 -0.1545 -0.9858
 2969TIP3    H2 8861   6.033   1.220   2.229 -0.8456 -4.0264  1.1719
 2970TIP3   OH2 8862   7.311   1.579   1.764  0.2254  0.1587 -0.0988
 2970TIP3    H1 8863   7.240   1.575   1.829  0.9403  0.4075  0.7148
 2970TIP3    H2 8864   7.378   1.520   1.799  1.0459  1.0898 -0.0690
 2971TIP3   OH2 8865   5.642   4.797   4.511 -0.1720  0.4429  0.3774
 2971TIP3    H1 8866   5.684   4.827   4.591 -2.8875  1.6861  1.3999
 2971TIP3    H2 8867   5.585   4.726   4.539  2.2655 -2.2603 -1.2215
 2972TIP3   OH2 8868   1.288   7.054   5.772  0.2198  0.3802  0.5239
 2972TIP3    H1 8869   1.308   7.024   5.860 -2.3468 -0.6885  0.8141
 2972TIP3    H2 8870   1.224   7.124   5.784 -0.4144 -0.0119 -0.4922
 2973TIP3   OH2 8871   6.987   4.752   4.067  0.1544  0.0246  0.4292
 2973TIP3    H1 8872   6.925   4.748   4.140 -0.8000  1.5194 -0.2509
 2973TIP3    H2 8873   6.962   4.679   4.011  0.6688 -0.9194  1.4254
 2974TIP3   OH2 8874   6.933   3.182   1.828  0.0089 -0.1673  0.7812
 2974TIP3    H1 8875   6.973   3.096   1.838  0.3001 -0.1484 -0.1927
 2974TIP3    H2 8876   6.842   3.164   1.805 -0.7479 -0.2141  3.6278
 2975TIP3   OH2 8877   6.319   3.439   2.055 -0.3527  0.3126 -0.1100
 2975TIP3    H1 8878   6.282   3.526   2.071 -0.1284  0.4947 -0.5778
 2975TIP3    H2 8879   6.262   3.379   2.104 -1.1193  0.6124 -0.6379
 2976TIP3   OH2 8880   2.945   7.436   6.149 -0.0248 -0.2278  0.1273
 2976TIP3    H1 8881   2.998   7.405   6.222 -0.4914  0.8647  0.9545
 2976TIP3    H2 8882   2.865   7.468   6.190  0.4220  2.0096 -0.6537
 2977TIP3   OH2 8883   4.306   7.359   2.453  0.5166 -0.4323  0.3570
 2977TIP3    H1 8884   4.330   7.452   2.458  0.8015 -0.2844 -2.9142
 2977TIP3    H2 8885   4.370   7.321   2.394 -0.5203 -2.4288  0.4807
 2978TIP3   OH2 8886   1.366   6.586   5.588 -0.6456  0.2792 -0.2679
 2978TIP3    H1 8887   1.314   6.663   5.565  0.2344  0.1511 -2.8365
 2978TIP3    H2 8888   1.375   6.538   5.506  0.5911 -1.4764  0.8704
 2979TIP3   OH2 8889   7.448   2.664   0.363 -0.2212  0.4356 -0.2900
 2979TIP3    H1 8890   7.374   2.622   0.406 -0.7631  1.0985 -0.5760
 2979TIP3    H2 8891   7.494   2.592   0.319 -2.3489  0.3944 -2.5383
 2980TIP3   OH2 8892   7.338   2.537   2.388 -0.4064 -0.1230  0.2909
 2980TIP3    H1 8893   7.397   2.576   2.323  0.3706 -0.4319  0.8054
 2980TIP3    H2 8894   7.252   2.571   2.365  0.1642  1.3750  0.3254
 2981TIP3   OH2 8895   7.875   0.265   2.469 -0.1051 -0.4187 -0.7548
 2981TIP3    H1 8896   7.899   0.357   2.466 -0.1592 -0.3785 -0.0650
 2981TIP3    H2 8897   7.792   0.263   2.517 -0.1311 -0.8165 -0.8102
 2982TIP3   OH2 8898   1.076   1.660   2.454 -0.0257  0.3596  0.5957
 2982TIP3    H1 8899   1.024   1.599   2.507  2.9907 -0.8494  2.3010
 2982TIP3    H2 8900   1.065   1.745   2.497  0.2052 -0.0781  1.5236
 2983TIP3   OH2 8901   7.075   4.158   0.486  0.2506 -0.3062  0.4813
 2983TIP3    H1 8902   7.012   4.230   0.495  0.2255 -0.2889  0.1768
 2983TIP3    H2 8903   7.044   4.091   0.547 -1.0708 -1.0174 -0.9371
 2984TIP3   OH2 8904   6.982   1.874   1.885  0.4972 -0.1183  0.6421
 2984TIP3    H1 8905   6.887   1.868   1.895  0.4727  0.1375  0.5715
 2984TIP3    H2 8906   6.995   1.951   1.830  0.8435  1.0826  2.3517
 2985TIP3   OH2 8907   3.088   1.223   5.721  0.0937  0.2621  0.3612
 2985TIP3    H1 8908   3.080   1.217   5.817 -0.6467  0.1712  0.2965
 2985TIP3    H2 8909   3.174   1.186   5.702 -0.4353 -1.2249  0.8414
 2986TIP3   OH2 8910   7.712   5.496   5.680  0.1210 -0.1437  0.0962
 2986TIP3    H1 8911   7.700   5.408   5.644 -2.3872  0.0928  0.3058
 2986TIP3    H2 8912   7.632   5.513   5.729  1.2098  1.6959  1.2931
 2987TIP3   OH2 8913   0.823   2.300   2.039  0.1512 -0.0841 -0.1521
 2987TIP3    H1 8914   0.740   2.324   1.995  0.6458  1.3711 -0.3096
 2987TIP3    H2 8915   0.838   2.210   2.011 -0.7984  0.0123 -1.0528
 2988TIP3   OH2 8916   7.218   3.836   0.995 -0.5364 -0.1877  0.5367
 2988TIP3    H1 8917   7.159   3.908   1.017 -0.5825  0.1512 -0.6497
 2988TIP3    H2 8918   7.257   3.861   0.911 -1.0957 -1.8514 -0.2597
 2989TIP3   OH2 8919   2.812   6.948   5.802 -0.2904 -0.0194 -0.7633
 2989TIP3    H1 8920   2.791   6.859   5.830  0.9553  0.1931  0.8853
 2989TIP3    H2 8921   2.859   6.937   5.720  0.9897 -0.9763  0.0726
 2990TIP3   OH2 8922   6.987   2.504   2.619  0.6576  0.3671 -0.0922
 2990TIP3    H1 8923   7.045   2.551   2.679 -0.1252  1.5107 -0.2316
 2990TIP3    H2 8924   7.028   2.514   2.533 -0.9634  3.2050 -0.5776
 2991TIP3   OH2 8925   6.093   2.745   2.592  0.4134  0.2175  0.0081
 2991TIP3    H1 8926   6.186   2.765   2.579  0.5775 -0.5776 -0.0491
 2991TIP3    H2 8927   6.083   2.656   2.559 -0.2589  0.1067  0.5095
 2992TIP3   OH2 8928   7.776   2.290   0.337 -0.1785  0.0534  0.3259
 2992TIP3    H1 8929   7.741   2.367   0.381 -0.9654  0.2739 -0.6448
 2992TIP3    H2 8930   7.723   2.282   0.257  0.5831 -0.8783 -0.1050
 2993TIP3   OH2 8931   0.335   3.144   2.014 -0.3826 -0.3258  0.1184
 2993TIP3    H1 8932   0.310   3.236   2.027  0.6714 -0.0557  0.2572
 2993TIP3    H2 8933   0.288   3.117   1.935  0.3532  0.7255 -0.6784
 2994TIP3   OH2 8934   1.194   1.882   3.225 -0.1750  0.3645  0.4339
 2994TIP3    H1 8935   1.117   1.834   3.257  0.5518 -0.3535  1.1334
 2994TIP3    H2 8936   1.232   1.825   3.158  0.4300  0.1620  0.9413
 2995TIP3   OH2 8937   6.875   2.908   1.877  0.1298 -0.4519 -0.7742
 2995TIP3    H1 8938   6.944   2.843   1.884 -1.1982 -1.6449  2.3051
 2995TIP3    H2 8939   6.828   2.886   1.797  1.6884 -1.2162 -1.4985
 2996TIP3   OH2 8940   0.103   2.811   0.918 -0.1799 -0.0193 -0.2207
 2996TIP3    H1 8941   0.026   2.864   0.938 -2.2013 -2.6900 -0.6677
 2996TIP3    H2 8942   0.151   2.804   1.000 -1.3078  0.2425  0.4567
 2997TIP3   OH2 8943   1.124   4.283   2.563  0.1858 -0.2234 -0.3387
 2997TIP3    H1 8944   1.163   4.241   2.487 -1.7696 -3.0084  0.1133
 2997TIP3    H2 8945   1.031   4.258   2.560 -0.1166  0.3653  2.4280
 2998TIP3   OH2 8946   5.608   4.718   3.469 -0.2704 -0.6682  0.0758
 2998TIP3    H1 8947   5.638   4.768   3.544  1.1219 -1.5730  0.1462
 2998TIP3    H2 8948   5.581   4.784   3.405 -2.7786  0.1017  1.8456
 2999TIP3   OH2 8949   6.912   3.234   1.087 -0.1688 -0.5570  0.1764
 2999TIP3    H1 8950   6.917   3.201   1.177  0.5638 -0.5544  0.1419
 2999TIP3    H2 8951   6.958   3.318   1.090  0.9570 -1.1238 -0.4535
 3000TIP3   OH2 8952   5.854   0.843   1.207  0.0631 -0.0136  0.4815
 3000TIP3    H1 8953   5.934   0.808   1.247  0.4612  0.8578  0.4673
 3000TIP3    H2 8954   5.851   0.801   1.120  0.5267 -0.0244  0.4645
 3001TIP3   OH2 8955   7.237   4.563   2.408 -0.5456 -0.0570 -0.0318
 3001TIP3    H1 8956   7.305   4.615   2.364  0.9597 -1.2273  0.8521
 3001TIP3    H2 8957   7.187   4.524   2.337 -0.2157  0.7204 -0.7042
 3002TIP3   OH2 8958   5.183   3.006   0.823 -0.1898 -0.4410 -0.1753
 3002TIP3    H1 8959   5.275   3.027   0.804 -0.3118 -1.2797 -1.7579
 3002TIP3    H2 8960   5.178   3.004   0.919  1.6240 -1.1428 -0.0735
 3003TIP3   OH2 8961   1.036   5.932   5.742  0.1245 -0.2527 -0.2372
 3003TIP3    H1 8962   1.037   5.873   5.666 -0.0610 -0.2069 -0.2760
 3003TIP3    H2 8963   1.127   5.961   5.751 -0.2523  1.5819 -1.8934
 3004TIP3   OH2 8964   3.542   6.272   1.192 -0.5905  0.0608  0.1284
 3004TIP3    H1 8965   3.634   6.277   1.218 -0.4618  1.2185 -0.4938
 3004TIP3    H2 8966   3.543   6.228   1.107 -0.5011  0.9774 -0.3557
 3005TIP3   OH2 8967   0.708   3.601   2.813  0.1434 -0.1578  0.0199
 3005TIP3    H1 8968   0.693   3.586   2.719 -0.5306  0.1261  0.0820
 3005TIP3    H2 8969   0.751   3.686   2.816  0.1808 -0.1741 -0.0256
 3006TIP3   OH2 8970   0.719   5.079   1.969 -0.2743  0.8764 -0.4341
 3006TIP3    H1 8971   0.794   5.136   1.986 -0.5008  1.0973 -0.1662
 3006TIP3    H2 8972   0.644   5.139   1.964 -0.5399  0.5870  0.0390
 3007TIP3   OH2 8973   6.922   2.683   2.987 -0.1999  0.1513 -0.4693
 3007TIP3    H1 8974   6.854   2.619   3.011 -0.6210  0.5952 -0.4839
 3007TIP3    H2 8975   6.996   2.629   2.957 -0.4532 -0.3404 -0.2180
 3008TIP3   OH2 8976   6.452   2.761   1.182  0.2754 -0.2001 -0.1076
 3008TIP3    H1 8977   6.374   2.718   1.147 -1.9762  2.3379  1.5550
 3008TIP3    H2 8978   6.445   2.751   1.277  1.4124  0.9848  0.1189
 3009TIP3   OH2 8979   0.039   7.316   6.055  0.0181  0.1910  0.6647
 3009TIP3    H1 8980  -0.004   7.355   5.979  0.3139  0.1970  0.4985
 3009TIP3    H2 8981  -0.022   7.250   6.087 -1.0380  1.6328  1.6910
 3010TIP3   OH2 8982   5.476   4.544   0.566 -0.2378 -0.0461  0.1794
 3010TIP3    H1 8983   5.560   4.500   0.554  0.3224  0.6740  1.3819
 3010TIP3    H2 8984   5.472   4.563   0.660 -1.0515  1.3027 -0.1168
 3011TIP3   OH2 8985   6.468   2.129   1.597  0.1518  0.0876 -0.2430
 3011TIP3    H1 8986   6.400   2.132   1.664  1.3140 -0.6381  0.9864
 3011TIP3    H2 8987   6.433   2.071   1.530  0.5011 -2.1304  1.4480
 3012TIP3   OH2 8988   7.133   2.492   3.042  0.1981 -0.0515  0.1243
 3012TIP3    H1 8989   7.204   2.430   3.056  0.0542 -0.4140 -0.7872
 3012TIP3    H2 8990   7.177   2.577   3.037  0.5020 -0.2019  0.2102
 3013TIP3   OH2 8991   6.927   3.432   1.964 -0.2637  0.1781  0.2541
 3013TIP3    H1 8992   6.880   3.496   1.911  2.1032  2.0286  0.3590
 3013TIP3    H2 8993   6.940   3.357   1.905 -3.2768 -0.3936  0.2232
 3014TIP3   OH2 8994   0.888   3.079   1.393 -0.0027  0.2380  0.4648
 3014TIP3    H1 8995   0.895   2.985   1.408 -0.7570  0.2751  1.1224
 3014TIP3    H2 8996   0.795   3.094   1.376  0.0021  0.9463  1.0172
 3015TIP3   OH2 8997   4.546   6.303   1.341  0.3651 -0.4355  0.1577
 3015TIP3    H1 8998   4.530   6.218   1.300 -0.6144  0.2145 -0.8267
 3015TIP3    H2 8999   4.547   6.285   1.435  1.6831 -1.7837 -0.0941
 3016TIP3   OH2 9000   6.410   0.034   0.819  0.1146  0.5447 -0.1027
 3016TIP3    H1 9001   6.357  -0.037   0.783  0.0955  0.4487  0.1227
 3016TIP3    H2 9002   6.364   0.061   0.899 -0.0205  0.9783 -0.3200
 3017TIP3   OH2 9003   0.196   4.162   3.604 -0.1014  0.6720  0.1403
 3017TIP3    H1 9004   0.137   4.200   3.539  0.1342  0.5935 -0.1190
 3017TIP3    H2 9005   0.162   4.073   3.618  0.6267  0.2326 -0.8481
 3018TIP3   OH2 9006   5.183   7.160   2.690  0.4197 -0.5572 -0.3624
 3018TIP3    H1 9007   5.183   7.254   2.670  1.0637 -0.5637 -0.4073
 3018TIP3    H2 9008   5.242   7.152   2.765  1.8521 -1.1733 -1.5251
 3019TIP3   OH2 9009   0.888   3.737   2.350 -0.4818  0.1506  0.5954
 3019TIP3    H1 9010   0.822   3.774   2.291 -0.1504  0.6335  0.5200
 3019TIP3    H2 9011   0.896   3.802   2.420 -1.1926 -0.6261  1.4073
 3020TIP3   OH2 9012   0.253   3.814   2.130 -0.0094  0.5550 -0.2024
 3020TIP3    H1 9013   0.204   3.771   2.200 -0.0616 -1.2325 -1.3042
 3020TIP3    H2 9014   0.191   3.822   2.057  0.0669  2.3221 -0.1092
 3021TIP3   OH2 9015   0.487   3.644   4.400 -0.4520  0.1721 -0.6232
 3021TIP3    H1 9016   0.539   3.723   4.382  2.2735 -1.5659 -0.7099
 3021TIP3    H2 9017   0.529   3.605   4.476 -0.3973 -2.3068 -1.8672
 3022TIP3   OH2 9018   7.518   2.434   1.927  0.1741 -0.1915  0.4393
 3022TIP3    H1 9019   7.510   2.431   1.832 -0.2314  0.1347  0.4602
 3022TIP3    H2 9020   7.527   2.527   1.947  0.3026 -0.2636  0.7151
 3023TIP3   OH2 9021   0.056   1.641   1.811  0.1956 -0.7874  0.5893
 3023TIP3    H1 9022   0.036   1.685   1.728  1.3502  0.2247  0.8342
 3023TIP3    H2 9023   0.139   1.679   1.839  0.6557 -2.3344  1.3767
 3024TIP3   OH2 9024   5.342   7.272   0.818 -0.5300 -0.2015 -0.2869
 3024TIP3    H1 9025   5.375   7.218   0.746  0.3869 -0.7956  0.5695
 3024TIP3    H2 9026   5.387   7.239   0.896 -1.5727  0.3837  0.5803
 3025TIP3   OH2 9027   6.270   2.070   1.325 -0.2670 -0.3414 -0.2996
 3025TIP3    H1 9028   6.209   2.123   1.274 -1.2343  0.6193  1.7831
 3025TIP3    H2 9029   6.214   2.006   1.370  0.7355 -2.1973 -1.6245
 3026TIP3   OH2 9030   7.442   2.951   0.606 -0.3167 -0.5707 -0.0025
 3026TIP3    H1 9031   7.381   2.883   0.576 -0.9258 -0.1050  0.1547
 3026TIP3    H2 9032   7.398   3.033   0.584  0.2193 -0.2302  0.1969
 3027TIP3   OH2 9033   7.151   4.958   5.444  0.1636  0.2796 -0.1719
 3027TIP3    H1 9034   7.171   5.004   5.362 -1.6498  0.5336 -0.4929
 3027TIP3    H2 9035   7.183   4.869   5.430  1.9956  0.9259 -0.2538
 3028TIP3   OH2 9036   1.293   4.804   3.881 -0.4958 -0.3167 -0.8582
 3028TIP3    H1 9037   1.228   4.850   3.828 -1.3808 -0.1707  0.3253
 3028TIP3    H2 9038   1.368   4.864   3.885 -0.7771  0.0556 -1.1853
 3029TIP3   OH2 9039   0.429   3.522   4.027 -1.0306  0.0075 -0.0984
 3029TIP3    H1 9040   0.422   3.608   4.069 -1.1278  0.4098 -0.9279
 3029TIP3    H2 9041   0.520   3.496   4.038 -0.6004  0.9741 -1.3073
 3030TIP3   OH2 9042   1.764   4.699   2.036  0.5365  0.1999  0.1815
 3030TIP3    H1 9043   1.690   4.696   1.976  1.3398  0.7656 -0.8499
 3030TIP3    H2 9044   1.754   4.621   2.090 -0.9144  0.3762  0.1731
 3031TIP3   OH2 9045   6.800   3.623   3.938 -0.2340  0.3698  0.6385
 3031TIP3    H1 9046   6.858   3.585   4.003  0.6397  0.6234  0.0037
 3031TIP3    H2 9047   6.805   3.564   3.863 -2.3151 -0.6907  1.2905
 3032TIP3   OH2 9048   7.410   6.227   3.833  0.2500 -0.2749 -0.4155
 3032TIP3    H1 9049   7.419   6.167   3.759  2.2656 -0.0523 -0.3902
 3032TIP3    H2 9050   7.409   6.314   3.793 -0.8076 -0.2388 -0.3216
 3033TIP3   OH2 9051   1.426   5.201   4.410 -0.3431 -0.7254 -0.6284
 3033TIP3    H1 9052   1.391   5.186   4.498 -2.5841 -0.7675 -1.4892
 3033TIP3    H2 9053   1.519   5.180   4.417 -0.6210 -1.3377  1.5769
 3034TIP3   OH2 9054   2.278   3.402   2.317  0.5594  0.4079  0.4673
 3034TIP3    H1 9055   2.218   3.360   2.379 -0.2525 -0.1510 -0.6895
 3034TIP3    H2 9056   2.259   3.362   2.233  0.9685  1.8547 -0.3438
 3035TIP3   OH2 9057   0.464   2.309   5.088  0.5829 -0.3187 -0.0262
 3035TIP3    H1 9058   0.455   2.389   5.139  1.0418 -1.3029  1.6218
 3035TIP3    H2 9059   0.390   2.310   5.028  0.3372  1.1110  0.2843
 3036TIP3   OH2 9060   2.682   2.978   4.750  0.4792 -0.1421 -0.6250
 3036TIP3    H1 9061   2.706   3.068   4.769  1.4573 -0.2855 -1.1560
 3036TIP3    H2 9062   2.641   2.946   4.831 -0.3413  0.9252 -0.6139
 3037TIP3   OH2 9063   1.396   0.076   1.828  0.2506 -0.3061 -0.0059
 3037TIP3    H1 9064   1.490   0.076   1.807  0.2436 -0.1713 -0.0336
 3037TIP3    H2 9065   1.377   0.166   1.853 -0.0160 -0.1814 -0.6404
 3038TIP3   OH2 9066   7.629   3.867   3.998 -0.2562  0.1980 -0.3080
 3038TIP3    H1 9067   7.609   3.961   3.994  0.6130  0.3312 -1.5991
 3038TIP3    H2 9068   7.623   3.846   4.091 -2.4591  1.0862 -0.2135
 3039TIP3   OH2 9069   0.918   3.600   2.102 -0.0631 -0.4167 -0.2214
 3039TIP3    H1 9070   0.938   3.596   2.195  0.7519  2.1662 -0.2576
 3039TIP3    H2 9071   0.996   3.564   2.059 -0.4498 -1.6340  0.0634
 3040TIP3   OH2 9072   2.001   1.627   3.361 -0.2698 -0.1382 -0.1889
 3040TIP3    H1 9073   1.910   1.596   3.364 -0.2586 -0.0480  1.6149
 3040TIP3    H2 9074   1.998   1.704   3.305 -1.0075 -1.1204 -1.5243
 3041TIP3   OH2 9075   2.294   3.811   3.493 -0.6414  0.2019  0.0353
 3041TIP3    H1 9076   2.294   3.862   3.412  1.0355 -1.0884 -0.8127
 3041TIP3    H2 9077   2.286   3.876   3.563  0.3145  1.5255 -1.0614
 3042TIP3   OH2 9078   2.413   4.759   4.411  0.3688  0.1694 -0.0702
 3042TIP3    H1 9079   2.505   4.737   4.427 -0.2482 -1.1523  1.8714
 3042TIP3    H2 9080   2.400   4.742   4.317  1.8748 -0.5060 -0.1689
 3043TIP3   OH2 9081   7.106   4.382   5.034 -0.1462  0.6649  0.0377
 3043TIP3    H1 9082   7.172   4.416   5.094  0.3205 -0.3771  0.1380
 3043TIP3    H2 9083   7.022   4.400   5.077  0.2148 -0.6693  1.3535
 3044TIP3   OH2 9084   3.427   3.340   1.773  0.4531  0.6475 -0.7119
 3044TIP3    H1 9085   3.452   3.351   1.865 -0.4380  2.1154 -0.6245
 3044TIP3    H2 9086   3.343   3.295   1.777 -0.3678  2.1195 -0.7145
 3045TIP3   OH2 9087   6.890   5.299   4.189 -0.1232 -0.1437  0.3874
 3045TIP3    H1 9088   6.930   5.213   4.202 -0.2647 -0.0580  1.3879
 3045TIP3    H2 9089   6.857   5.296   4.099 -0.1085 -1.1244  0.4072
 3046TIP3   OH2 9090   0.116   4.158   4.440  0.4439  0.1845  0.5640
 3046TIP3    H1 9091   0.113   4.227   4.373  1.0620 -2.5323 -2.4035
 3046TIP3    H2 9092   0.028   4.160   4.479 -0.7884  0.2219 -2.0738
 3047TIP3   OH2 9093   0.744   5.346   3.005  0.2079  0.3764  0.5243
 3047TIP3    H1 9094   0.772   5.436   2.987  0.7744  0.1089  0.0347
 3047TIP3    H2 9095   0.694   5.321   2.927  2.2910 -0.6345 -0.5361
 3048TIP3   OH2 9096   2.375   2.552   3.735 -0.4350 -0.6569 -0.5346
 3048TIP3    H1 9097   2.398   2.459   3.731 -0.3339 -0.8278  2.6145
 3048TIP3    H2 9098   2.294   2.559   3.684 -0.7555 -2.5691 -0.3206
 3049TIP3   OH2 9099   0.614   2.310   4.668  0.3407 -0.1398  0.0955
 3049TIP3    H1 9100   0.565   2.228   4.680  0.1025 -0.0948 -0.5605
 3049TIP3    H2 9101   0.702   2.282   4.644  0.1903 -0.2020 -0.3868
 3050TIP3   OH2 9102   2.406   4.113   3.516  0.2177 -0.2747 -0.3187
 3050TIP3    H1 9103   2.444   4.052   3.579 -0.9376  0.1486  0.8027
 3050TIP3    H2 9104   2.380   4.188   3.569  2.6536  1.7249 -1.8291
 3051TIP3   OH2 9105   7.615   4.569   3.781  0.5203 -0.0290  0.2382
 3051TIP3    H1 9106   7.594   4.661   3.795 -0.2963  0.0059 -1.1053
 3051TIP3    H2 9107   7.589   4.525   3.861 -3.9512  0.1359 -1.0336
 3052TIP3   OH2 9108   1.235   2.348   2.177 -0.8893 -0.3741  0.3602
 3052TIP3    H1 9109   1.319   2.362   2.220 -1.4710  0.8947  1.1415
 3052TIP3    H2 9110   1.235   2.256   2.151  0.2121 -0.6962  1.4748
 3053TIP3   OH2 9111   1.932   5.247   2.232  0.4079  0.1097 -0.1516
 3053TIP3    H1 9112   2.012   5.198   2.213  1.5180  1.6484  0.3399
 3053TIP3    H2 9113   1.885   5.194   2.295  1.9123 -0.0261  0.8850
 3054TIP3   OH2 9114   2.802   5.060   3.697  0.7824 -0.3406 -0.0655
 3054TIP3    H1 9115   2.786   5.101   3.782 -1.6200 -0.1956 -0.5688
 3054TIP3    H2 9116   2.831   5.132   3.641  0.4301 -0.0710  0.0995
 3055TIP3   OH2 9117   1.943   4.857   2.979  0.0637  0.4320 -0.0312
 3055TIP3    H1 9118   1.922   4.796   3.050  0.9174 -0.1832 -0.3027
 3055TIP3    H2 9119   1.915   4.812   2.899  2.6082 -0.5138 -0.4235
 3056TIP3   OH2 9120   0.407   4.231   0.884  0.1209  0.0650  0.3770
 3056TIP3    H1 9121   0.487   4.276   0.859  0.0161 -0.4097 -0.8557
 3056TIP3    H2 9122   0.337   4.293   0.863  0.1553  0.4287  1.3317
 3057TIP3   OH2 9123   7.308   3.443   1.966  0.4725 -0.3167  0.0398
 3057TIP3    H1 9124   7.267   3.414   2.048  0.9629 -0.9339  0.0652
 3057TIP3    H2 9125   7.266   3.391   1.898  0.7978 -0.5335  0.0053
 3058TIP3   OH2 9126   0.417   3.274   2.454  0.3708  0.1654 -0.7249
 3058TIP3    H1 9127   0.456   3.226   2.527 -1.1581  0.0425  0.0364
 3058TIP3    H2 9128   0.491   3.314   2.409  1.4129 -0.5188  0.3439
 3059TIP3   OH2 9129   7.852   5.385   5.902  0.1334  0.3539 -0.1492
 3059TIP3    H1 9130   7.813   5.423   5.980 -1.0826  0.9364 -1.0285
 3059TIP3    H2 9131   7.810   5.430   5.829  0.3960 -1.0063 -1.1647
 3060TIP3   OH2 9132   3.321   5.369   3.877  0.1428 -0.1557 -0.0082
 3060TIP3    H1 9133   3.346   5.461   3.883 -0.7462  0.1792 -1.3066
 3060TIP3    H2 9134   3.373   5.334   3.805 -2.4059  0.3325 -2.1589
 3061TIP3   OH2 9135   0.473   4.472   3.881 -0.4620 -0.0563 -0.1698
 3061TIP3    H1 9136   0.546   4.450   3.938 -0.5552  2.7137  1.0975
 3061TIP3    H2 9137   0.479   4.409   3.809  1.3047 -1.8311  1.4699
 3062TIP3   OH2 9138   7.601   5.213   4.368  0.0847 -0.1339  0.2816
 3062TIP3    H1 9139   7.537   5.281   4.387 -0.6562 -0.4496 -1.0564
 3062TIP3    H2 9140   7.684   5.250   4.397 -0.5859  0.5713  1.3354
 3063TIP3   OH2 9141   1.312   2.961   1.526 -0.4639 -0.5823 -0.3039
 3063TIP3    H1 9142   1.260   2.908   1.465 -0.1409  0.6754 -1.7208
 3063TIP3    H2 9143   1.248   2.997   1.587 -0.9603 -0.9553 -0.5967
 3064TIP3   OH2 9144   1.575   4.036   5.106  0.3724 -0.2593 -0.3369
 3064TIP3    H1 9145   1.660   4.075   5.128  1.3283 -1.9596 -0.9145
 3064TIP3    H2 9146   1.555   4.069   5.019  2.0153 -2.3538 -1.5603
 3065TIP3   OH2 9147   0.078   5.902   4.010 -0.0410 -0.5637  0.4122
 3065TIP3    H1 9148   0.084   5.814   4.049  0.1309 -1.3637 -1.3555
 3065TIP3    H2 9149   0.066   5.885   3.917  1.1526  1.3183 -0.0958
 3066TIP3   OH2 9150   6.622   5.054   1.256  0.1360  0.2705  0.1404
 3066TIP3    H1 9151   6.689   5.039   1.189 -0.2851  0.1164 -0.2508
 3066TIP3    H2 9152   6.669   5.049   1.339  1.0406  2.4430 -0.2017
 3067TIP3   OH2 9153   0.584   3.785   2.419  0.0848 -0.1575 -0.4817
 3067TIP3    H1 9154   0.512   3.801   2.480  1.0477 -0.7646  0.8348
 3067TIP3    H2 9155   0.578   3.858   2.357 -0.7706  0.6062  0.4605
 3068TIP3   OH2 9156   6.797   4.683   4.376  0.2188 -0.1617  0.6183
 3068TIP3    H1 9157   6.751   4.713   4.298  4.8120  0.0954 -2.1965
 3068TIP3    H2 9158   6.825   4.764   4.420  0.4901 -0.3116  0.7218
 3069TIP3   OH2 9159   2.825   3.836   3.482 -0.4704  0.0995 -0.6406
 3069TIP3    H1 9160   2.765   3.829   3.408 -0.0908  1.5024 -1.0948
 3069TIP3    H2 9161   2.896   3.776   3.461 -0.6370  0.0743 -1.1489
 3070TIP3   OH2 9162   0.352   6.128   3.982  0.3564 -0.3206 -0.2468
 3070TIP3    H1 9163   0.282   6.178   4.022 -1.2279 -0.4365 -2.7548
 3070TIP3    H2 9164   0.323   6.114   3.892  3.4551 -0.6162 -1.2726
 3071TIP3   OH2 9165   7.527   5.511   4.913  0.7516  0.2891 -0.0466
 3071TIP3    H1 9166   7.621   5.527   4.924  0.8775 -0.0912 -0.5447
 3071TIP3    H2 9167   7.502   5.568   4.840  0.8202 -0.4065 -0.6188
 3072TIP3   OH2 9168   1.895   5.899   1.568 -0.2338  0.3687  0.0226
 3072TIP3    H1 9169   1.950   5.822   1.582  0.7596  1.1697  0.6313
 3072TIP3    H2 9170   1.878   5.900   1.474 -1.5272 -1.4422  0.2185
 3073TIP3   OH2 9171   7.573   3.368   4.643 -0.1551  0.0293 -0.2406
 3073TIP3    H1 9172   7.660   3.333   4.621  0.0112  0.4221 -0.2027
 3073TIP3    H2 9173   7.519   3.290   4.657  0.4383 -0.2213  0.7103
 3074TIP3   OH2 9174   2.019   4.460   2.565  0.2145  0.0023  0.1234
 3074TIP3    H1 9175   2.100   4.478   2.517 -0.0476  0.6464 -0.0807
 3074TIP3    H2 9176   2.002   4.367   2.549  0.7880 -0.0760 -0.0286
 3075TIP3   OH2 9177   6.953   3.840   3.849 -0.2116 -0.1078 -0.5887
 3075TIP3    H1 9178   6.904   3.768   3.888  0.6464 -0.6125 -0.4099
 3075TIP3    H2 9179   6.887   3.897   3.811 -0.8736 -1.3842 -1.3905
 3076TIP3   OH2 9180   0.891   4.567   2.533 -0.3601 -0.2252  0.0053
 3076TIP3    H1 9181   0.842   4.622   2.472 -0.8715  1.0917  1.5889
 3076TIP3    H2 9182   0.975   4.612   2.543  0.6544 -1.7111 -1.5757
 3077TIP3   OH2 9183   2.120   4.497   3.597  0.6493  0.3683 -0.0236
 3077TIP3    H1 9184   2.156   4.572   3.645 -2.0756  3.0192 -1.9344
 3077TIP3    H2 9185   2.094   4.435   3.666 -1.1390  3.1226  1.8889
 3078TIP3   OH2 9186   1.868   5.356   1.960 -0.0991  0.3824 -0.4389
 3078TIP3    H1 9187   1.888   5.355   2.054 -2.6609  1.0863  0.1563
 3078TIP3    H2 9188   1.846   5.265   1.940 -0.6689  0.4424 -0.0967
 3079TIP3   OH2 9189   0.968   1.485   0.188 -0.9537  0.2433  0.3420
 3079TIP3    H1 9190   1.040   1.449   0.137  0.3085  2.2745  0.6048
 3079TIP3    H2 9191   0.977   1.446   0.275  0.4809  1.2438  0.6658
 3080TIP3   OH2 9192   7.058   4.785   1.353 -0.4010  0.1148 -0.2238
 3080TIP3    H1 9193   6.999   4.711   1.339  0.5841 -0.8668  0.6993
 3080TIP3    H2 9194   7.102   4.797   1.269 -1.2116  0.2410 -0.6376
 3081TIP3   OH2 9195   7.762   3.862   2.781 -0.0927 -0.5145 -0.1707
 3081TIP3    H1 9196   7.823   3.814   2.837 -0.5478 -1.5824 -0.5771
 3081TIP3    H2 9197   7.676   3.833   2.811 -0.4166  1.1247  0.5221
 3082TIP3   OH2 9198   0.118   5.083   0.912  0.0907  0.4333  0.0706
 3082TIP3    H1 9199   0.159   5.110   0.830  0.5763  0.1016  0.2015
 3082TIP3    H2 9200   0.141   5.152   0.975  1.1143 -0.1589  0.3415
 3083TIP3   OH2 9201   6.962   4.866   5.915 -0.1082 -0.1173 -0.0632
 3083TIP3    H1 9202   6.989   4.811   5.841 -1.1619 -1.6140  0.6292
 3083TIP3    H2 9203   6.867   4.877   5.904 -0.0222  0.9654  0.2116
 3084TIP3   OH2 9204   2.479   2.359   3.120 -0.4892 -0.2332 -0.4116
 3084TIP3    H1 9205   2.391   2.321   3.127 -0.3117 -0.3723  1.3159
 3084TIP3    H2 9206   2.512   2.358   3.210  1.6459 -1.0321 -1.1907
 3085TIP3   OH2 9207   0.578   3.891   6.149 -0.2021 -0.1446 -0.1195
 3085TIP3    H1 9208   0.624   3.895   6.233  1.0479 -1.8472 -0.6806
 3085TIP3    H2 9209   0.514   3.821   6.159 -0.4880  0.0730 -0.3893
 3086TIP3   OH2 9210   7.321   3.584   3.589 -0.0290 -0.3774 -0.5971
 3086TIP3    H1 9211   7.274   3.665   3.568 -0.8145 -0.0076  2.4059
 3086TIP3    H2 9212   7.412   3.612   3.599 -0.1986  0.0460 -0.2043
 3087TIP3   OH2 9213   0.245   1.153   4.604  0.3217 -0.4257  0.3945
 3087TIP3    H1 9214   0.262   1.241   4.571  1.2111 -1.1271 -1.0221
 3087TIP3    H2 9215   0.257   1.096   4.529 -3.2594 -1.4858  0.5211
 3088TIP3   OH2 9216   0.714   5.649   3.489  0.2083  0.8211  0.0228
 3088TIP3    H1 9217   0.800   5.654   3.528  0.0243  1.3890  0.3587
 3088TIP3    H2 9218   0.726   5.682   3.399  0.9003 -1.7395 -0.8694
 3089TIP3   OH2 9219   1.485   4.186   3.901  0.3179 -0.1356  0.0378
 3089TIP3    H1 9220   1.439   4.268   3.886 -1.1850 -1.0112 -0.2999
 3089TIP3    H2 9221   1.515   4.192   3.992 -0.7120  0.3490  0.3525
 3090TIP3   OH2 9222   1.721   2.660   4.453 -0.2956  0.0812 -0.0319
 3090TIP3    H1 9223   1.751   2.570   4.454 -0.5651 -0.0221 -0.7727
 3090TIP3    H2 9224   1.630   2.655   4.422  0.2078  0.7502 -1.6906
 3091TIP3   OH2 9225   0.174   3.443   3.918 -0.3350 -0.1493  1.1238
 3091TIP3    H1 9226   0.261   3.448   3.957 -0.8653  0.8843  2.1818
 3091TIP3    H2 9227   0.172   3.513   3.853 -0.3156 -0.2956  0.9637
 3092TIP3   OH2 9228   3.165   1.204   1.301  0.1145  0.3875 -0.1424
 3092TIP3    H1 9229   3.225   1.259   1.252  0.2143  0.6049  0.2238
 3092TIP3    H2 9230   3.117   1.264   1.357  0.9258 -0.0054  0.9939
 3093TIP3   OH2 9231   5.564   4.909   4.267  0.3058 -0.4710  0.3627
 3093TIP3    H1 9232   5.579   4.861   4.348 -1.0652  0.3340  1.1361
 3093TIP3    H2 9233   5.588   5.000   4.289  0.2455 -0.3150 -0.2184
 3094TIP3   OH2 9234   1.298   5.964   2.724 -0.5575  0.1287  0.2304
 3094TIP3    H1 9235   1.282   5.964   2.629 -1.1377  0.4833  0.3302
 3094TIP3    H2 9236   1.393   5.961   2.732 -0.5042  0.1814 -0.3641
 3095TIP3   OH2 9237   4.902   0.278   0.112 -0.3397  0.2074  0.0031
 3095TIP3    H1 9238   4.975   0.279   0.174 -1.2089  0.0220  1.0354
 3095TIP3    H2 9239   4.912   0.359   0.063  2.2966 -1.2154 -1.9177
 3096TIP3   OH2 9240   1.055   2.422   3.781 -0.3844  0.8776 -0.2006
 3096TIP3    H1 9241   1.022   2.380   3.861  1.4852 -0.4089 -0.0821
 3096TIP3    H2 9242   1.118   2.486   3.812 -0.4130  1.0948 -0.5997
 3097TIP3   OH2 9243   0.022   3.220   3.086 -0.4456  0.2233  0.0721
 3097TIP3    H1 9244  -0.016   3.294   3.133 -0.4117  0.5499 -0.4091
 3097TIP3    H2 9245   0.090   3.259   3.031  0.4734 -0.3319  0.7949
 3098TIP3   OH2 9246   0.614   1.325   1.664  0.1370 -0.3386 -0.1642
 3098TIP3    H1 9247   0.550   1.255   1.648  0.5323 -0.3048 -2.0271
 3098TIP3    H2 9248   0.699   1.282   1.650  0.3815  0.4873 -1.2691
 3099TIP3   OH2 9249   1.541   4.345   3.103 -0.2440  0.3298 -0.3511
 3099TIP3    H1 9250   1.475   4.283   3.072 -1.5156  0.9450  1.0288
 3099TIP3    H2 9251   1.511   4.430   3.070 -0.6176  0.7280  0.9831
 3100TIP3   OH2 9252   0.595   3.479   3.311  0.2087 -0.0421  0.3914
 3100TIP3    H1 9253   0.512   3.519   3.337 -0.1022 -0.9920  0.8977
 3100TIP3    H2 9254   0.628   3.535   3.241  0.5718  2.0170  2.1493
 3101TIP3   OH2 9255   7.582   5.008   1.350 -0.1391  0.3906  0.4233
 3101TIP3    H1 9256   7.571   4.919   1.317  0.1559  0.5922 -0.2149
 3101TIP3    H2 9257   7.578   5.063   1.272 -1.2557  1.0171  0.9089
 3102TIP3   OH2 9258   2.116   4.929   4.734  0.8736  0.1476  0.5070
 3102TIP3    H1 9259   2.162   5.011   4.715  1.2021 -0.4461 -1.4080
 3102TIP3    H2 9260   2.030   4.941   4.695  1.6741 -1.2278 -1.8016
 3103TIP3   OH2 9261   6.804   4.386   4.587  0.6263 -0.3397 -0.2017
 3103TIP3    H1 9262   6.819   4.381   4.492  0.4912  0.4169 -0.2685
 3103TIP3    H2 9263   6.859   4.318   4.624  0.2825 -0.9919 -0.8768
 3104TIP3   OH2 9264   1.428   3.805   4.714  0.8055  0.2526 -0.5253
 3104TIP3    H1 9265   1.490   3.750   4.666 -0.6045  0.0838 -2.1814
 3104TIP3    H2 9266   1.443   3.782   4.806  0.9012 -2.2320 -1.1245
 3105TIP3   OH2 9267   2.703   4.819   4.171  0.3260  0.0113 -0.0344
 3105TIP3    H1 9268   2.768   4.889   4.180  0.4949  0.0911 -1.6816
 3105TIP3    H2 9269   2.635   4.856   4.115 -0.8762 -0.2815  1.1919
 3106TIP3   OH2 9270   0.409   2.323   4.404 -0.0154 -0.4643 -0.0945
 3106TIP3    H1 9271   0.482   2.354   4.458 -0.7384  0.0739  0.5789
 3106TIP3    H2 9272   0.401   2.389   4.335 -0.9403  0.3555  0.7918
 3107TIP3   OH2 9273   2.275   4.113   4.602  0.4576 -0.1803 -0.0536
 3107TIP3    H1 9274   2.216   4.039   4.585  0.7474 -0.3556 -0.3123
 3107TIP3    H2 9275   2.315   4.093   4.687  1.1117 -0.7066 -0.4819
 3108TIP3   OH2 9276   0.064   3.032   2.170 -0.4210  0.1650  0.3299
 3108TIP3    H1 9277   0.057   3.127   2.162 -1.8744  0.1948  1.7536
 3108TIP3    H2 9278   0.149   3.017   2.212 -1.3450  0.9974  2.5628
 3109TIP3   OH2 9279   0.715   5.822   2.333 -0.1677  0.0048 -0.1208
 3109TIP3    H1 9280   0.679   5.742   2.371 -0.0123  0.2180  0.4779
 3109TIP3    H2 9281   0.640   5.881   2.324  0.0294  0.4516  1.1337
 3110TIP3   OH2 9282   7.478   3.796   1.924  0.6504 -0.8724 -0.5524
 3110TIP3    H1 9283   7.569   3.778   1.902  0.4289 -2.1132 -0.5006
 3110TIP3    H2 9284   7.471   3.891   1.923  2.3763 -0.6992  1.1877
 3111TIP3   OH2 9285   1.157   3.854   4.978 -0.4085  0.2205 -0.2132
 3111TIP3    H1 9286   1.111   3.775   4.949 -0.6857 -0.0184  0.8664
 3111TIP3    H2 9287   1.247   3.825   4.994  0.1271  0.6609 -2.2021
 3112TIP3   OH2 9288   2.003   5.260   4.916 -0.1098 -0.3291 -0.1953
 3112TIP3    H1 9289   2.062   5.307   4.975  0.2733 -0.6339 -0.3348
 3112TIP3    H2 9290   1.931   5.231   4.972  1.1413 -2.1764  0.4856
 3113TIP3   OH2 9291   0.419   3.793   2.647 -0.2939  0.6982 -0.0308
 3113TIP3    H1 9292   0.360   3.839   2.587  0.7697 -0.1357 -1.7728
 3113TIP3    H2 9293   0.392   3.701   2.641 -1.8973  0.9201  2.8323
 3114TIP3   OH2 9294   7.255   6.156   3.457  0.6510 -0.3144  0.1740
 3114TIP3    H1 9295   7.217   6.105   3.386 -0.3694 -2.0996  1.9590
 3114TIP3    H2 9296   7.294   6.091   3.515  0.7103  1.0539  1.7059
 3115TIP3   OH2 9297   7.130   3.365   3.717  0.4720  0.7738 -0.0759
 3115TIP3    H1 9298   7.194   3.294   3.708  0.5260  0.9237 -0.9128
 3115TIP3    H2 9299   7.183   3.445   3.724  0.4270  0.6995  1.3809
 3116TIP3   OH2 9300   2.504   5.886   3.550  0.4966 -0.3135  0.4582
 3116TIP3    H1 9301   2.416   5.919   3.566  0.7647  0.4525  0.3477
 3116TIP3    H2 9302   2.493   5.820   3.482 -0.0060 -0.2988  0.5240
 3117TIP3   OH2 9303   0.190   6.618   1.544  0.6256 -0.2692  0.4386
 3117TIP3    H1 9304   0.275   6.597   1.583  0.7907 -0.6318 -0.0973
 3117TIP3    H2 9305   0.211   6.637   1.452 -0.2086 -3.1420 -0.4075
 3118TIP3   OH2 9306   6.806   4.892   5.580  0.3052  0.3448 -0.0063
 3118TIP3    H1 9307   6.859   4.945   5.640  0.6603 -1.1421  1.0000
 3118TIP3    H2 9308   6.868   4.863   5.513  0.2918  0.4699 -0.0729
 3119TIP3   OH2 9309   3.596   3.389   1.574 -0.3344  0.0473 -0.1023
 3119TIP3    H1 9310   3.540   3.367   1.648 -0.2611 -2.4593 -0.7557
 3119TIP3    H2 9311   3.546   3.362   1.497  0.8780 -0.2310 -0.8048
 3120TIP3   OH2 9312   3.128   1.510   0.374 -1.0516 -0.1873 -0.4268
 3120TIP3    H1 9313   3.060   1.461   0.422 -1.3137  1.1314  0.5871
 3120TIP3    H2 9314   3.130   1.596   0.417  0.3789  0.2188 -1.2757
 3121TIP3   OH2 9315   3.028   4.225   0.666  0.1804  0.5605  0.4199
 3121TIP3    H1 9316   3.102   4.275   0.632  0.7432 -0.7391 -0.2621
 3121TIP3    H2 9317   3.067   4.146   0.702 -0.9824 -0.6513 -0.9397
 3122TIP3   OH2 9318   7.083   4.520   2.171  0.8548  0.6232  0.4162
 3122TIP3    H1 9319   6.993   4.496   2.151  0.0807  2.1452  1.9907
 3122TIP3    H2 9320   7.094   4.607   2.131  0.2746  2.2999  3.7533
 3123TIP3   OH2 9321   0.734   3.603   0.871 -0.1667  0.2120 -0.3533
 3123TIP3    H1 9322   0.716   3.560   0.787 -0.6555  0.6667 -0.4854
 3123TIP3    H2 9323   0.829   3.594   0.882 -0.3851 -1.7820  0.1126
 3124TIP3   OH2 9324   0.297   3.452   2.114  0.1249  0.3210 -0.1391
 3124TIP3    H1 9325   0.326   3.536   2.077  0.5236  0.8850  1.3991
 3124TIP3    H2 9326   0.336   3.450   2.202 -1.4457 -0.6004  0.5644
 3125TIP3   OH2 9327   2.390   3.646   3.716  0.1495 -0.4845 -0.4601
 3125TIP3    H1 9328   2.359   3.729   3.680 -0.1550 -1.0588 -1.5472
 3125TIP3    H2 9329   2.480   3.638   3.684 -0.0818 -0.9433 -0.9912
 3126TIP3   OH2 9330   1.042   4.426   3.507 -0.1259  0.6741  0.1652
 3126TIP3    H1 9331   1.086   4.445   3.423  0.3225  2.1873  0.7168
 3126TIP3    H2 9332   1.113   4.398   3.565  0.0587  2.4821  0.8673
 3127TIP3   OH2 9333   0.692   6.361   0.550 -0.0451  0.1785 -0.1621
 3127TIP3    H1 9334   0.702   6.424   0.621  1.8336 -0.6793  0.3800
 3127TIP3    H2 9335   0.601   6.369   0.523  0.1008  2.9817  0.0190
 3128TIP3   OH2 9336   0.626   4.348   6.415 -0.1614 -0.1511 -0.4532
 3128TIP3    H1 9337   0.630   4.341   6.510  3.0309  0.3213 -0.4777
 3128TIP3    H2 9338   0.568   4.278   6.387 -0.9291 -0.4359  1.8286
 3129TIP3   OH2 9339   1.905   3.734   2.832  0.2073 -0.2344 -0.6947
 3129TIP3    H1 9340   1.936   3.750   2.921 -0.2710 -1.5330 -0.2823
 3129TIP3    H2 9341   1.833   3.672   2.843 -2.1534  2.2243 -1.6687
 3130TIP3   OH2 9342   7.688   3.985   0.421 -0.2470  0.0836 -0.2132
 3130TIP3    H1 9343   7.759   3.928   0.392  0.2782  0.4697  0.3190
 3130TIP3    H2 9344   7.672   4.043   0.347  0.0675  0.0692 -0.2936
 3131TIP3   OH2 9345   7.775   3.420   0.871 -0.0933  0.1614  0.3672
 3131TIP3    H1 9346   7.835   3.493   0.886  0.4577 -0.1940 -0.0739
 3131TIP3    H2 9347   7.749   3.428   0.780 -1.6006  0.9561  0.8561
 3132TIP3   OH2 9348   0.368   4.311   4.149  0.1669 -0.0607 -0.3069
 3132TIP3    H1 9349   0.318   4.351   4.079 -0.4590  0.5934  0.5062
 3132TIP3    H2 9350   0.410   4.384   4.194  1.8113 -0.5846 -0.9313
 3133TIP3   OH2 9351   0.946   4.932   3.005  0.2533 -0.0595  0.1691
 3133TIP3    H1 9352   0.948   5.028   3.014  1.3140 -0.1663  1.2483
 3133TIP3    H2 9353   0.939   4.917   2.911 -3.1392  1.0881  0.1909
 3134TIP3   OH2 9354   7.096   4.983   1.560  0.0894  0.3539  0.3340
 3134TIP3    H1 9355   7.135   5.053   1.507  0.2560  0.4919  0.6396
 3134TIP3    H2 9356   7.118   4.902   1.513  1.0121  0.4052  0.6693
 3135TIP3   OH2 9357   0.693   2.592   3.468 -0.6107  0.5547 -0.3039
 3135TIP3    H1 9358   0.731   2.638   3.393 -1.1466 -0.4595 -1.2017
 3135TIP3    H2 9359   0.756   2.522   3.487 -0.0098  1.3799  0.7896
 3136TIP3   OH2 9360   0.928   5.845   4.014 -0.1637  0.0891 -0.1045
 3136TIP3    H1 9361   0.878   5.876   4.089  0.5797  1.3750 -0.1377
 3136TIP3    H2 9362   1.017   5.877   4.029 -0.0290  0.4568 -1.5800
 3137TIP3   OH2 9363   6.755   2.006   5.778 -0.5157 -0.3715 -0.5399
 3137TIP3    H1 9364   6.762   1.912   5.763 -0.6869  0.0146 -3.3717
 3137TIP3    H2 9365   6.670   2.017   5.821 -1.2333 -1.3523 -1.6785
 3138TIP3   OH2 9366   0.406   4.804   4.609 -0.7630 -0.2819  0.2084
 3138TIP3    H1 9367   0.365   4.770   4.529  0.1967  0.5692 -0.6585
 3138TIP3    H2 9368   0.401   4.899   4.599  1.4901 -0.1602  0.0433
 3139TIP3   OH2 9369   7.882   3.926   1.142  0.0889  0.3729 -0.0939
 3139TIP3    H1 9370   7.859   3.844   1.186 -1.4862  0.0039 -1.5798
 3139TIP3    H2 9371   7.939   3.899   1.070 -1.1423  0.4836 -1.1167
 3140TIP3   OH2 9372   0.575   4.449   2.377  0.0055  0.5763 -0.7195
 3140TIP3    H1 9373   0.529   4.532   2.390 -0.7128  0.0062  0.5271
 3140TIP3    H2 9374   0.565   4.403   2.461  1.1268 -0.4109 -1.1088
 3141TIP3   OH2 9375   7.646   5.470   1.318  0.4086 -0.6469 -0.3857
 3141TIP3    H1 9376   7.572   5.416   1.290 -0.9860  0.3023  1.3600
 3141TIP3    H2 9377   7.700   5.411   1.370 -0.4785 -0.7148  0.4884
 3142TIP3   OH2 9378   7.030   3.166   2.477 -0.4744  0.3133  0.1003
 3142TIP3    H1 9379   7.073   3.153   2.393 -0.1727  0.2813  0.2603
 3142TIP3    H2 9380   6.952   3.217   2.456 -1.7665 -1.8753 -0.5627
 3143TIP3   OH2 9381   3.090   4.091   4.820  0.0945  0.1380  0.4241
 3143TIP3    H1 9382   3.105   4.085   4.725 -2.3059 -1.6559  0.0891
 3143TIP3    H2 9383   3.100   4.184   4.840 -0.9154  0.8086 -1.9149
 3144TIP3   OH2 9384   0.261   2.549   3.367 -0.3986  0.4533  0.3171
 3144TIP3    H1 9385   0.332   2.563   3.304  0.2544 -2.3557  0.3818
 3144TIP3    H2 9386   0.306   2.526   3.448 -1.3664 -1.4961  0.3111
 3145TIP3   OH2 9387   1.648   3.857   2.998 -0.0127  0.2559  0.4239
 3145TIP3    H1 9388   1.742   3.858   3.012 -0.0669  0.1047  0.8167
 3145TIP3    H2 9389   1.635   3.896   2.912  0.4633 -0.3801  0.0624
 3146TIP3   OH2 9390   1.005   2.639   2.688 -0.4907  1.0729  0.1788
 3146TIP3    H1 9391   1.024   2.607   2.600 -0.2273 -0.0230  0.6203
 3146TIP3    H2 9392   1.087   2.631   2.736  0.2374  4.7104 -0.3281
 3147TIP3   OH2 9393   1.468   4.402   4.779  0.3726  0.4281  0.0462
 3147TIP3    H1 9394   1.531   4.433   4.844 -0.3928 -0.6747  1.3455
 3147TIP3    H2 9395   1.442   4.481   4.731  2.3025  0.9651 -0.1248
 3148TIP3   OH2 9396   7.819   3.454   3.198  0.2890  0.0330 -0.6601
 3148TIP3    H1 9397   7.877   3.528   3.180  1.1408 -0.7753 -1.3145
 3148TIP3    H2 9398   7.748   3.464   3.135  2.0891 -1.5080 -3.0180
 3149TIP3   OH2 9399   2.050   3.849   3.783  0.2276 -0.1132  0.3736
 3149TIP3    H1 9400   2.081   3.759   3.771 -3.1037 -1.0581 -1.7572
 3149TIP3    H2 9401   1.981   3.842   3.849  0.2269  0.9406  0.4898
 3150TIP3   OH2 9402   6.192   3.008   1.146  0.7875 -0.1636  0.0895
 3150TIP3    H1 9403   6.124   2.964   1.198 -0.0827  0.0868 -0.8159
 3150TIP3    H2 9404   6.225   2.939   1.088  2.6915 -0.7837  1.8596
 3151TIP3   OH2 9405   1.012   2.009   3.850 -0.6061  0.1577 -0.4282
 3151TIP3    H1 9406   0.931   1.972   3.815  0.5779 -4.0804  1.0156
 3151TIP3    H2 9407   1.017   1.974   3.939  1.5253  2.5001  0.4198
 3152TIP3   OH2 9408   7.526   3.608   3.874 -0.0122  0.1750 -0.6667
 3152TIP3    H1 9409   7.549   3.692   3.913 -0.4114  0.3848 -0.8745
 3152TIP3    H2 9410   7.532   3.623   3.780  1.0430 -0.3574 -0.6859
 3153TIP3   OH2 9411   1.310   4.762   4.393  0.3791 -0.1961  0.7207
 3153TIP3    H1 9412   1.350   4.675   4.403 -0.8507 -0.5326  3.1473
 3153TIP3    H2 9413   1.384   4.823   4.402  1.2394 -0.9552 -0.9334
 3154TIP3   OH2 9414   7.122   3.614   5.477  0.1435  0.8141 -0.1923
 3154TIP3    H1 9415   7.129   3.676   5.549  0.2228 -0.4258  0.8785
 3154TIP3    H2 9416   7.206   3.620   5.432  0.9765 -0.0586  1.1943
 3155TIP3   OH2 9417   7.486   4.533   5.451  0.2319  0.5505  0.5740
 3155TIP3    H1 9418   7.573   4.528   5.492  0.3275  0.7631  0.3986
 3155TIP3    H2 9419   7.452   4.618   5.479  0.2579  0.6529  0.2936
 3156TIP3   OH2 9420   5.641   4.835   5.486  0.1616 -0.7475  0.3537
 3156TIP3    H1 9421   5.681   4.769   5.543  0.7156 -0.0364  0.8004
 3156TIP3    H2 9422   5.705   4.848   5.416  1.0877  0.9693  1.4941
 3157TIP3   OH2 9423   0.918   5.274   3.410 -0.3214  0.0233 -0.0223
 3157TIP3    H1 9424   0.958   5.351   3.370 -2.8662  0.7567 -1.2587
 3157TIP3    H2 9425   0.866   5.308   3.482  0.3865 -0.8118  0.9036
 3158TIP3   OH2 9426   2.147   5.466   2.861  0.3036  0.8674 -0.0088
 3158TIP3    H1 9427   2.072   5.487   2.804  0.3491  1.5059  0.1644
 3158TIP3    H2 9428   2.214   5.529   2.836  0.3350  1.1273  0.7346
 3159TIP3   OH2 9429   1.805   5.017   4.013  0.1571 -0.2367 -0.3472
 3159TIP3    H1 9430   1.725   4.965   4.001 -1.1626  1.3392  1.3988
 3159TIP3    H2 9431   1.859   4.965   4.071 -0.3083 -0.5612 -0.2022
 3160TIP3   OH2 9432   1.669   2.164   3.560 -0.2749 -0.4360  0.4154
 3160TIP3    H1 9433   1.639   2.161   3.651 -1.4857 -1.8941 -0.0199
 3160TIP3    H2 9434   1.764   2.152   3.566 -0.4593 -1.4387  1.4376
 3161TIP3   OH2 9435   7.826   3.557   5.725  0.5703  0.4309  1.1072
 3161TIP3    H1 9436   7.737   3.560   5.689  0.4903 -0.5742  1.2046
 3161TIP3    H2 9437   7.856   3.647   5.722  1.0919  0.1939 -2.7959
 3162TIP3   OH2 9438   0.107   1.924   4.938 -0.0663  0.2987  0.5518
 3162TIP3    H1 9439   0.050   1.930   4.861 -1.0752 -0.9960  1.1804
 3162TIP3    H2 9440   0.060   1.972   5.006  0.4036  0.6693  0.6206
 3163TIP3   OH2 9441   0.170   2.839   3.474  0.3038  0.3737 -0.3305
 3163TIP3    H1 9442   0.159   2.930   3.448  0.9533  1.2351  2.3452
 3163TIP3    H2 9443   0.194   2.794   3.393 -0.0087  2.5597 -1.6702
 3164TIP3   OH2 9444   0.764   6.182   2.247 -0.3772 -0.0218  0.5360
 3164TIP3    H1 9445   0.672   6.160   2.236  0.0718 -1.6431 -0.2248
 3164TIP3    H2 9446   0.795   6.201   2.158  0.8594 -3.1460  0.1914
 3165TIP3   OH2 9447   4.109   4.804   4.670 -0.1254  0.1103 -0.0161
 3165TIP3    H1 9448   4.079   4.731   4.724 -0.3966  0.4804  0.3354
 3165TIP3    H2 9449   4.198   4.822   4.699 -0.0963 -0.0086 -0.0312
 3166TIP3   OH2 9450   7.755   5.179   3.455  0.1504 -0.1282  0.6315
 3166TIP3    H1 9451   7.692   5.154   3.388  0.7447 -0.9253  0.3474
 3166TIP3    H2 9452   7.831   5.211   3.406  1.5660 -3.0333  0.7814
 3167TIP3   OH2 9453   1.626   4.545   4.934 -0.8671  0.2093  0.1309
 3167TIP3    H1 9454   1.640   4.609   5.003  1.7307 -0.3009  0.1224
 3167TIP3    H2 9455   1.663   4.584   4.856  0.0229 -0.9429 -0.0463
 3168TIP3   OH2 9456   0.723   2.612   2.678 -0.9750  0.5878 -0.2703
 3168TIP3    H1 9457   0.734   2.517   2.684 -1.1723  0.5539 -0.4280
 3168TIP3    H2 9458   0.811   2.647   2.690 -1.0489  0.4335  0.8170
 3169TIP3   OH2 9459   1.991   4.147   0.895  0.3213  0.2404 -0.3785
 3169TIP3    H1 9460   1.973   4.220   0.835  1.4900  0.0816 -0.9371
 3169TIP3    H2 9461   1.906   4.109   0.912 -0.3487  1.8930  0.1147
 3170TIP3   OH2 9462   2.647   4.001   2.019 -0.1807 -0.0827 -0.1667
 3170TIP3    H1 9463   2.742   4.006   2.015 -0.2534  1.0537 -0.7161
 3170TIP3    H2 9464   2.621   3.959   1.937 -0.2195  0.7745 -0.6010
 3171TIP3   OH2 9465   1.606   3.554   2.568  0.4640 -0.1227 -0.2100
 3171TIP3    H1 9466   1.677   3.520   2.623  0.2690 -1.3944 -0.7454
 3171TIP3    H2 9467   1.527   3.510   2.600 -0.2037  1.7505  0.7939
 3172TIP3   OH2 9468   1.583   3.593   2.992  0.1684 -0.3313  0.0831
 3172TIP3    H1 9469   1.559   3.543   3.070  1.6362 -2.1000 -0.5623
 3172TIP3    H2 9470   1.577   3.684   3.019 -2.3332 -0.8327  1.3606
 3173TIP3   OH2 9471   0.868   1.844   1.591 -0.2733  0.4208  0.7197
 3173TIP3    H1 9472   0.944   1.855   1.649 -0.7708 -0.3155  1.5275
 3173TIP3    H2 9473   0.868   1.750   1.570 -0.4094  0.5906 -0.0516
 3174TIP3   OH2 9474   1.338   3.111   3.696  0.4254  0.9287 -0.4584
 3174TIP3    H1 9475   1.432   3.128   3.700  0.5955 -0.1928  0.9761
 3174TIP3    H2 9476   1.297   3.197   3.704  1.3058  1.1450  1.9903
 3175TIP3   OH2 9477   5.103   7.161   0.754  0.1567  0.5536 -0.3511
 3175TIP3    H1 9478   5.173   7.216   0.790  0.2271  0.8380 -0.9296
 3175TIP3    H2 9479   5.030   7.221   0.740 -0.1461  0.2917  0.0669
 3176TIP3   OH2 9480   1.576   4.152   4.868  0.2131  0.0507  0.4441
 3176TIP3    H1 9481   1.667   4.123   4.859 -0.4614 -1.5605 -1.4223
 3176TIP3    H2 9482   1.574   4.238   4.825  0.2506 -1.1892 -2.1358
 3177TIP3   OH2 9483   0.892   2.003   1.345 -0.5347  0.8173  0.1875
 3177TIP3    H1 9484   0.874   1.942   1.417 -0.6239  0.2640 -0.2976
 3177TIP3    H2 9485   0.968   2.053   1.374 -0.7074  0.7546  0.7605
 3178TIP3   OH2 9486   0.464   2.458   3.515  0.2999  0.4116  0.1895
 3178TIP3    H1 9487   0.548   2.492   3.482 -0.0234  0.2617 -0.8205
 3178TIP3    H2 9488   0.489   2.389   3.577  0.9321  1.2091  0.8298
 3179TIP3   OH2 9489   1.796   4.391   2.768 -0.0607 -0.2661  0.2117
 3179TIP3    H1 9490   1.842   4.454   2.713  0.8441 -1.6932 -0.6673
 3179TIP3    H2 9491   1.705   4.396   2.739  0.4115 -1.0324 -1.4446
 3180TIP3   OH2 9492   2.539   4.785   2.395 -0.4089  0.0763  0.0505
 3180TIP3    H1 9493   2.478   4.727   2.441  2.3005 -0.6107  2.9842
 3180TIP3    H2 9494   2.573   4.843   2.464  1.9258  0.6623 -1.5432
 3181TIP3   OH2 9495   0.980   4.367   3.831 -0.1057 -1.0067  0.3496
 3181TIP3    H1 9496   1.028   4.332   3.756 -0.1364 -1.1717  0.4063
 3181TIP3    H2 9497   0.890   4.335   3.820 -0.6143  0.7137 -0.6655
 3182TIP3   OH2 9498   1.709   3.963   2.496 -0.5043 -0.3501 -0.2883
 3182TIP3    H1 9499   1.786   3.930   2.542 -0.4011  1.2670  0.7563
 3182TIP3    H2 9500   1.637   3.952   2.559 -0.6770  0.3288 -0.3600
 3183TIP3   OH2 9501   0.580   3.004   2.405 -0.1098 -0.5843  0.2152
 3183TIP3    H1 9502   0.582   3.029   2.498  0.6256 -2.5529  0.7469
 3183TIP3    H2 9503   0.671   3.015   2.376  0.1480 -2.1855  0.3583
 3184TIP3   OH2 9504   0.046   3.703   3.173  0.1794  0.4610 -0.3652
 3184TIP3    H1 9505   0.019   3.763   3.243  0.5223  0.4987 -0.2654
 3184TIP3    H2 9506   0.136   3.729   3.152  0.5839 -0.4770  0.1757
 3185TIP3   OH2 9507   2.166   3.513   3.139  0.0588  0.2177  0.2648
 3185TIP3    H1 9508   2.222   3.554   3.205 -0.4726  2.2015 -0.4803
 3185TIP3    H2 9509   2.104   3.460   3.190  0.7226  0.3795  1.2508
 3186TIP3   OH2 9510   1.065   4.953   1.846  0.4026 -0.0661 -0.2130
 3186TIP3    H1 9511   1.080   4.920   1.758 -0.1500  0.1336 -0.3791
 3186TIP3    H2 9512   1.010   4.887   1.888 -1.2839  0.9674 -0.7655
 3187TIP3   OH2 9513   0.404   3.932   4.664 -0.0640 -0.2855 -0.1844
 3187TIP3    H1 9514   0.441   3.957   4.580  0.8095 -1.2910 -0.1149
 3187TIP3    H2 9515   0.460   3.975   4.729 -0.1166 -0.3323 -0.1070
 3188TIP3   OH2 9516   7.903   4.679   4.538 -0.1651  0.6170  0.2237
 3188TIP3    H1 9517   7.845   4.740   4.493 -0.5090  1.4173  1.7186
 3188TIP3    H2 9518   7.855   4.656   4.618  1.7455  1.5995  1.6890
 3189TIP3   OH2 9519   2.603   4.215   1.687  0.0179  0.2058 -0.5328
 3189TIP3    H1 9520   2.602   4.309   1.668  2.3851  1.5194  4.9387
 3189TIP3    H2 9521   2.687   4.185   1.653  0.7747  0.8454  0.7347
 3190TIP3   OH2 9522   1.404   2.810   5.181 -0.3411 -0.2931  0.0284
 3190TIP3    H1 9523   1.399   2.857   5.264 -0.7856  0.4075 -0.3903
 3190TIP3    H2 9524   1.453   2.730   5.202 -0.1574  0.0348  0.8837
 3191TIP3   OH2 9525   1.484   3.512   3.237  0.1116 -0.1186  0.1901
 3191TIP3    H1 9526   1.494   3.593   3.286  0.6804 -1.6681  2.7706
 3191TIP3    H2 9527   1.409   3.468   3.278 -1.1146 -0.2723 -2.1109
 3192TIP3   OH2 9528   0.725   5.039   5.848 -0.3320 -0.0732 -0.1267
 3192TIP3    H1 9529   0.636   5.051   5.881 -0.2914  1.3766 -0.4768
 3192TIP3    H2 9530   0.781   5.041   5.925 -0.3450  2.0774 -0.1440
 3193TIP3   OH2 9531   5.925   4.093   4.530 -0.6569 -0.6541  0.1362
 3193TIP3    H1 9532   5.971   4.131   4.455  1.9580  0.9019  2.4497
 3193TIP3    H2 9533   5.874   4.165   4.566  0.8375 -0.4123  1.8722
 3194TIP3   OH2 9534   0.294   4.089   5.052  0.0682  0.0895 -0.2282
 3194TIP3    H1 9535   0.215   4.071   5.001  0.6850 -0.7728 -0.8953
 3194TIP3    H2 9536   0.293   4.023   5.122  1.3372 -1.3829 -1.5511
 3195TIP3   OH2 9537   0.119   1.238   4.836  0.3911 -0.0001  0.7395
 3195TIP3    H1 9538   0.156   1.205   4.755  0.3268  3.2553 -0.6786
 3195TIP3    H2 9539   0.190   1.286   4.878 -0.7564  2.0619  0.4176
 3196TIP3   OH2 9540   1.202   1.149   4.157  0.0500 -0.3712 -0.7913
 3196TIP3    H1 9541   1.205   1.082   4.225  0.3617 -1.3931 -1.8015
 3196TIP3    H2 9542   1.161   1.106   4.082 -2.9270  1.5706 -0.3597
 3197TIP3   OH2 9543   1.247   5.860   0.981 -0.4330 -0.1013 -0.6507
 3197TIP3    H1 9544   1.330   5.826   0.950  0.2801 -0.4905  1.5733
 3197TIP3    H2 9545   1.181   5.817   0.927  0.6902 -1.5523 -0.8827
 3198TIP3   OH2 9546   7.516   3.321   3.476  0.0872  0.2756  0.2878
 3198TIP3    H1 9547   7.593   3.377   3.482 -0.0472  0.8435 -2.6243
 3198TIP3    H2 9548   7.441   3.381   3.476 -0.2181 -0.1001  0.0409
 3199TIP3   OH2 9549   7.844   3.257   3.819  0.1042  0.1979  0.3893
 3199TIP3    H1 9550   7.868   3.245   3.727  1.8765  1.0031  0.7324
 3199TIP3    H2 9551   7.915   3.308   3.856 -0.9238  0.4516  2.0684
 3200TIP3   OH2 9552   7.234   3.875   3.891 -0.4717  0.2280 -0.3069
 3200TIP3    H1 9553   7.140   3.880   3.874 -0.4436 -2.1190 -1.4154
 3200TIP3    H2 9554   7.273   3.945   3.839 -1.7474  2.5805  1.7729
 3201TIP3   OH2 9555   2.678   1.895   2.586 -0.1773 -0.5529  0.7227
 3201TIP3    H1 9556   2.660   1.924   2.676 -2.0543  2.6551 -0.6335
 3201TIP3    H2 9557   2.645   1.805   2.583 -2.7375  0.2677  2.4631
 3202TIP3   OH2 9558   1.348   0.141   3.408  0.7285  0.0966  0.1694
 3202TIP3    H1 9559   1.272   0.154   3.352 -0.8228 -0.7308  2.0313
 3202TIP3    H2 9560   1.356   0.222   3.457  0.1773 -0.3453  0.9955
 3203TIP3   OH2 9561   6.005   1.223   3.289  0.6137 -0.3199  0.0662
 3203TIP3    H1 9562   5.995   1.174   3.371  0.3127 -1.5589 -0.6894
 3203TIP3    H2 9563   6.074   1.176   3.242  1.0789  0.6337 -0.2078
 3204TIP3   OH2 9564   0.819   3.354   5.241 -0.6196  0.3590  0.1433
 3204TIP3    H1 9565   0.822   3.322   5.151  1.2912  0.4318  0.1645
 3204TIP3    H2 9566   0.861   3.440   5.237  0.2688 -0.0159  1.2526
 3205TIP3   OH2 9567   0.527   3.108   3.216 -0.0623 -0.0148  0.1805
 3205TIP3    H1 9568   0.560   3.044   3.278  0.9891  0.3029 -0.0367
 3205TIP3    H2 9569   0.472   3.167   3.268 -0.1072 -0.4193  0.5873
 3206TIP3   OH2 9570   0.386   3.820   1.584  0.1016 -0.1980 -0.4974
 3206TIP3    H1 9571   0.443   3.894   1.603 -0.1489 -0.0931 -0.1343
 3206TIP3    H2 9572   0.428   3.775   1.511  1.1910 -0.6991  0.4156
 3207TIP3   OH2 9573   7.846   2.990   2.441  0.4930 -0.0693 -0.5645
 3207TIP3    H1 9574   7.941   2.999   2.428  0.5300 -0.9625 -0.9354
 3207TIP3    H2 9575   7.810   2.984   2.353  0.0583  0.5345 -0.4314
 3208TIP3   OH2 9576   0.988   4.109   4.444  0.1149 -0.4784 -0.4387
 3208TIP3    H1 9577   1.044   4.112   4.521  0.3997 -1.3576 -0.6058
 3208TIP3    H2 9578   0.910   4.158   4.470  0.2119 -0.7583  0.4103
 3209TIP3   OH2 9579   4.486   1.583   4.890  0.7117  0.4668 -0.0946
 3209TIP3    H1 9580   4.455   1.629   4.967 -0.6885 -0.3748 -0.1488
 3209TIP3    H2 9581   4.509   1.652   4.828 -1.7211  1.1125 -0.3203
 3210TIP3   OH2 9582   2.961   2.311   2.985  0.0313  0.9794  0.5783
 3210TIP3    H1 9583   2.880   2.270   3.017  0.5675  0.4682  1.2868
 3210TIP3    H2 9584   2.975   2.384   3.045  0.6584  0.4428  1.0828
 3211TIP3   OH2 9585   2.604   4.057   3.021  0.0383  0.3602  0.0514
 3211TIP3    H1 9586   2.518   4.033   3.054  0.5863 -0.8899  0.6340
 3211TIP3    H2 9587   2.646   3.973   3.000  1.3150  0.9123  0.3256
 3212TIP3   OH2 9588   2.139   4.132   2.712 -0.0566 -0.1433  0.1082
 3212TIP3    H1 9589   2.130   4.183   2.631  0.1018  0.6912  0.6085
 3212TIP3    H2 9590   2.052   4.095   2.727 -0.6366  1.3953  0.6612
 3213TIP3   OH2 9591   1.288   4.438   2.760  0.0498  0.1467 -0.4946
 3213TIP3    H1 9592   1.246   4.441   2.846  0.7490  0.2236 -0.1456
 3213TIP3    H2 9593   1.221   4.405   2.701 -0.1208 -0.9642  0.2890
 3214TIP3   OH2 9594   3.121   6.119   2.504  0.0972  0.2068  0.5050
 3214TIP3    H1 9595   3.211   6.128   2.470 -0.3489  1.2001 -0.4653
 3214TIP3    H2 9596   3.068   6.108   2.425 -0.7651  0.7933  1.0012
 3215TIP3   OH2 9597   2.287   3.907   2.767 -0.3531 -0.0978 -0.5639
 3215TIP3    H1 9598   2.226   3.937   2.700  0.1993  0.5781 -0.7739
 3215TIP3    H2 9599   2.319   3.823   2.735 -1.5418 -0.6905 -0.2145
 3216TIP3   OH2 9600   2.526   4.304   2.244  0.1222  0.1123 -0.1867
 3216TIP3    H1 9601   2.516   4.306   2.339  0.5042  0.5558 -0.1552
 3216TIP3    H2 9602   2.436   4.314   2.210  0.2236  2.1570  0.1165
 3217TIP3   OH2 9603   2.933   1.833   3.511  0.0149 -0.0757 -0.2237
 3217TIP3    H1 9604   2.919   1.918   3.554  2.2220 -0.6236  1.6510
 3217TIP3    H2 9605   3.008   1.847   3.454  1.5540 -1.2063  1.4632
 3218TIP3   OH2 9606   4.894   4.950   1.085  0.2708 -0.1465 -0.2573
 3218TIP3    H1 9607   4.846   4.915   1.160 -0.7785  1.9971  0.1260
 3218TIP3    H2 9608   4.859   4.901   1.010 -0.4766 -0.5806  0.3581
 3219TIP3   OH2 9609   2.810   2.213   2.790 -0.2370 -0.3918 -0.4083
 3219TIP3    H1 9610   2.883   2.244   2.843 -1.0382 -1.1031  1.1400
 3219TIP3    H2 9611   2.734   2.214   2.849 -1.7010  1.2012 -2.2231
 3220TIP3   OH2 9612   2.131   4.005   2.014  0.0550  0.4875  0.3990
 3220TIP3    H1 9613   2.222   4.025   2.039 -0.0626  0.5936  0.7469
 3220TIP3    H2 9614   2.129   4.018   1.919  0.7892 -0.9729  0.1577
 3221TIP3   OH2 9615   0.718   2.687   1.812  0.3867  0.2186  0.4214
 3221TIP3    H1 9616   0.698   2.612   1.757 -0.2894  0.6178  0.1207
 3221TIP3    H2 9617   0.634   2.730   1.826  0.5645  0.1863  1.6744
 3222TIP3   OH2 9618   0.504   2.745   3.252  0.4658  0.1229  0.1155
 3222TIP3    H1 9619   0.593   2.709   3.252  0.4825  0.1663 -0.3378
 3222TIP3    H2 9620   0.507   2.815   3.317  0.7409  0.0693  0.1628
 3223TIP3   OH2 9621   3.606   4.838   2.139 -0.4805  0.0858  0.1461
 3223TIP3    H1 9622   3.618   4.757   2.189  1.0892  0.6976  0.7725
 3223TIP3    H2 9623   3.621   4.812   2.048  2.4378  0.1434  0.5849
 3224TIP3   OH2 9624   1.711   1.647   3.379 -0.4121  0.7215 -0.2413
 3224TIP3    H1 9625   1.660   1.687   3.448  0.2863  0.9132  0.1721
 3224TIP3    H2 9626   1.685   1.693   3.299 -0.4695  1.1955  0.0524
 3225TIP3   OH2 9627   2.466   3.013   4.007 -0.6310  0.3676 -0.0512
 3225TIP3    H1 9628   2.516   2.956   4.065 -0.2653  0.8909  0.1512
 3225TIP3    H2 9629   2.425   2.953   3.944 -1.1514 -0.2137  0.8261
 3226TIP3   OH2 9630   2.260   1.955   2.088 -0.6203 -0.2801 -0.4708
 3226TIP3    H1 9631   2.298   2.024   2.034  0.2204  0.1638  0.6772
 3226TIP3    H2 9632   2.334   1.913   2.131 -1.3553  0.1399  1.2441
 3227TIP3   OH2 9633   2.122   1.249   3.886  0.2952  0.2022 -0.1179
 3227TIP3    H1 9634   2.113   1.340   3.856 -1.5889  0.5497  1.4487
 3227TIP3    H2 9635   2.067   1.199   3.826 -0.0384  0.3324  0.0759
 3228TIP3   OH2 9636   2.934   4.009   3.157  0.1580  0.2584 -0.1639
 3228TIP3    H1 9637   2.949   3.967   3.072  0.2474 -0.2136  0.0845
 3228TIP3    H2 9638   2.994   3.964   3.217  0.0439  0.5430  0.1650
 3229TIP3   OH2 9639   1.486   3.982   0.606  0.2721  0.1590 -0.1151
 3229TIP3    H1 9640   1.578   3.965   0.585  0.5601  1.9889 -0.4314
 3229TIP3    H2 9641   1.489   4.049   0.675 -0.8294  0.4470 -0.3367
 3230TIP3   OH2 9642   3.185   3.805   2.260 -0.3167  0.0566  1.3654
 3230TIP3    H1 9643   3.125   3.747   2.213  0.0128  1.0834 -0.3661
 3230TIP3    H2 9644   3.224   3.749   2.328 -1.9363 -1.0594  1.4048
 3231TIP3   OH2 9645   3.588   3.239   1.165  0.3841  0.0819  0.5488
 3231TIP3    H1 9646   3.624   3.152   1.150 -1.1590 -0.2155 -1.6208
 3231TIP3    H2 9647   3.637   3.296   1.106 -0.5760  0.1827 -0.1668
 3232TIP3   OH2 9648   1.809   4.001   1.196 -0.6633  0.0006  0.3495
 3232TIP3    H1 9649   1.881   4.059   1.222  0.1983 -0.7723 -0.3060
 3232TIP3    H2 9650   1.783   4.033   1.110  0.0706 -0.8126 -0.1847
 3233TIP3   OH2 9651   0.232   4.669   2.077  0.7980 -0.1674  0.1737
 3233TIP3    H1 9652   0.279   4.660   2.159 -1.1099  1.0723  1.4533
 3233TIP3    H2 9653   0.140   4.676   2.103  0.1634  0.2150 -2.0660
 3234TIP3   OH2 9654   2.178   4.761   2.723  0.1795 -0.1198 -0.2750
 3234TIP3    H1 9655   2.161   4.699   2.794 -0.0626 -0.5536 -0.7011
 3234TIP3    H2 9656   2.092   4.795   2.700  0.1531 -0.6090 -0.9160
 3235TIP3   OH2 9657   3.040   4.033   0.402 -0.1865  0.5878 -0.1379
 3235TIP3    H1 9658   3.008   4.023   0.491  1.3529  1.3786  0.5381
 3235TIP3    H2 9659   2.974   4.087   0.358  0.1305  2.0673  1.1689
 3236TIP3   OH2 9660   1.197   3.527   2.072  0.5881  0.4113 -0.3178
 3236TIP3    H1 9661   1.259   3.559   2.138  0.1351 -0.9140  0.7746
 3236TIP3    H2 9662   1.251   3.507   1.996  0.9515  3.2102 -0.8400
 3237TIP3   OH2 9663   1.680   4.166   2.292  0.5769  0.1677  0.1521
 3237TIP3    H1 9664   1.744   4.116   2.241 -1.3255 -1.4127 -0.7645
 3237TIP3    H2 9665   1.662   4.112   2.369 -0.3501  0.1271 -0.0784
 3238TIP3   OH2 9666   2.411   4.545   2.901  0.1107 -0.0931 -0.2083
 3238TIP3    H1 9667   2.401   4.580   2.990  0.0930  0.3592 -0.3886
 3238TIP3    H2 9668   2.348   4.472   2.897 -0.0331  0.0125  0.0825
 3239TIP3   OH2 9669   6.719   0.443   6.357 -0.2729 -0.4682  0.5660
 3239TIP3    H1 9670   6.696   0.436   6.450  0.7984 -1.1746  0.7803
 3239TIP3    H2 9671   6.729   0.353   6.327 -1.4195 -0.2680 -0.4478
 3240TIP3   OH2 9672   1.287   3.364   3.015 -0.7735  0.5525  0.4494
 3240TIP3    H1 9673   1.248   3.287   3.056 -1.8532  0.8076 -0.0768
 3240TIP3    H2 9674   1.239   3.374   2.932  0.0511  1.1853  0.0436
 3241TIP3   OH2 9675   0.863   3.640   4.494 -0.3502  0.7047 -0.0559
 3241TIP3    H1 9676   0.876   3.694   4.416 -1.4235 -0.2037 -0.8882
 3241TIP3    H2 9677   0.781   3.674   4.532 -1.3393 -0.6697 -0.9002
 3242TIP3   OH2 9678   1.321   2.967   2.339 -0.2833  0.2065  0.0741
 3242TIP3    H1 9679   1.311   3.061   2.352 -0.0885  0.0795  1.1699
 3242TIP3    H2 9680   1.397   2.958   2.281 -1.9227  0.8284 -2.2485
 3243TIP3   OH2 9681   1.411   3.568   2.308 -0.9875 -0.5578  0.4687
 3243TIP3    H1 9682   1.502   3.561   2.336 -0.5005  0.7301 -0.7476
 3243TIP3    H2 9683   1.369   3.623   2.373 -0.7742 -0.7056  0.7303
 3244TIP3   OH2 9684   3.223   5.067   2.761  0.3799  0.3330  0.1175
 3244TIP3    H1 9685   3.140   5.031   2.728  0.4838  0.8480 -0.7227
 3244TIP3    H2 9686   3.237   5.022   2.845 -0.8340  0.3692  0.3469
 3245TIP3   OH2 9687   2.982   4.539   3.573  0.6065  0.3940  0.0687
 3245TIP3    H1 9688   3.021   4.553   3.659 -0.8898 -2.4957  1.2713
 3245TIP3    H2 9689   3.053   4.503   3.520  0.2016 -2.9020  1.6615
 3246TIP3   OH2 9690   2.765   4.308   1.335 -0.3876  0.2200 -0.1720
 3246TIP3    H1 9691   2.737   4.381   1.391 -1.0748 -0.9873  1.0825
 3246TIP3    H2 9692   2.856   4.329   1.314 -0.5315  1.3769  0.2957
 3247TIP3   OH2 9693   1.713   3.741   2.280  0.2820  0.4500 -0.0667
 3247TIP3    H1 9694   1.697   3.771   2.369 -2.4454 -1.0628 -0.0034
 3247TIP3    H2 9695   1.762   3.813   2.239 -0.6200  2.2295  1.8922
 3248TIP3   OH2 9696   2.581   3.935   1.776  0.0026 -0.5022 -0.8557
 3248TIP3    H1 9697   2.581   4.025   1.744 -3.0611 -0.5628 -1.1663
 3248TIP3    H2 9698   2.637   3.887   1.715  0.5454  0.9227 -1.4802
 3249TIP3   OH2 9699   0.472   3.339   5.499 -0.2004  0.1536  0.2602
 3249TIP3    H1 9700   0.530   3.395   5.448  0.0177  1.0134  1.4291
 3249TIP3    H2 9701   0.400   3.318   5.439 -0.0121  1.2420 -0.3607
 3250TIP3   OH2 9702   0.168   3.625   1.357  0.7416  0.0145  0.1119
 3250TIP3    H1 9703   0.158   3.680   1.435  1.6974 -0.7590  0.7929
 3250TIP3    H2 9704   0.237   3.668   1.307  0.5747  0.1600  0.0078
 3251TIP3   OH2 9705   3.858   3.379   4.177 -0.0452  0.6504  0.3137
 3251TIP3    H1 9706   3.941   3.401   4.134  0.6853  0.4443  1.5846
 3251TIP3    H2 9707   3.802   3.349   4.106  1.2826 -0.1259 -0.4408
 3252TIP3   OH2 9708   4.084   6.907   1.304 -0.3796  0.0392  0.4222
 3252TIP3    H1 9709   4.088   6.985   1.249  3.2073  1.4608  2.5128
 3252TIP3    H2 9710   4.133   6.841   1.255  0.8128  0.6151  0.8110
 3253TIP3   OH2 9711   3.613   3.995   2.479 -0.5546  0.0989  0.3068
 3253TIP3    H1 9712   3.669   4.067   2.508 -0.8606 -0.1865  1.6227
 3253TIP3    H2 9713   3.615   4.001   2.383  1.5076  0.2711  0.3317
 3254TIP3   OH2 9714   0.631   4.563   1.142  0.4041 -0.4992  0.6249
 3254TIP3    H1 9715   0.555   4.610   1.107  1.6389  0.2857 -1.0950
 3254TIP3    H2 9716   0.610   4.471   1.132 -0.3145 -0.2799  0.1115
 3255TIP3   OH2 9717   3.012   3.423   2.510  0.1854  0.2407  0.4737
 3255TIP3    H1 9718   2.970   3.362   2.571 -2.2214  1.1132 -0.2518
 3255TIP3    H2 9719   3.010   3.378   2.426 -2.5179  1.6170 -0.2821
 3256TIP3   OH2 9720   2.749   2.585   3.349 -0.0648 -0.3207  0.4534
 3256TIP3    H1 9721   2.806   2.628   3.413 -1.4387  1.3343  0.6271
 3256TIP3    H2 9722   2.756   2.641   3.271  1.3768 -2.1605 -0.7759
 3257TIP3   OH2 9723   0.489   5.231   3.488 -0.8059  0.0898 -0.0870
 3257TIP3    H1 9724   0.573   5.260   3.524 -1.4508 -0.0404  1.5773
 3257TIP3    H2 9725   0.480   5.278   3.406  1.9369 -1.5738 -1.4113
 3258TIP3   OH2 9726   2.603   4.986   2.587 -0.8502 -0.4055 -0.1167
 3258TIP3    H1 9727   2.664   5.023   2.651 -0.6828 -0.8587 -0.0098
 3258TIP3    H2 9728   2.518   5.024   2.610 -0.6868 -0.1100  0.0077
 3259TIP3   OH2 9729   3.340   4.370   1.741 -0.0632  0.0475  0.3456
 3259TIP3    H1 9730   3.263   4.374   1.684 -0.0335  0.0740  0.3076
 3259TIP3    H2 9731   3.412   4.403   1.687  0.0686 -0.4282  0.2256
 3260TIP3   OH2 9732   1.415   3.145   0.657 -0.3442 -0.3629  0.4102
 3260TIP3    H1 9733   1.403   3.178   0.746 -0.0399 -0.4854  0.5008
 3260TIP3    H2 9734   1.474   3.070   0.668 -0.3557 -0.4155  0.1123
 3261TIP3   OH2 9735   2.309   6.153   3.286  0.1951  0.6069 -0.2534
 3261TIP3    H1 9736   2.264   6.236   3.269 -2.6143 -0.8571 -0.2588
 3261TIP3    H2 9737   2.261   6.114   3.359  1.1023 -1.2835 -0.6377
 3262TIP3   OH2 9738   2.478   3.925   5.446  0.1387  0.4223  0.2684
 3262TIP3    H1 9739   2.486   3.829   5.455  1.7325  0.5375  0.3113
 3262TIP3    H2 9740   2.430   3.938   5.364  1.7443 -0.3992 -0.8292
 3263TIP3   OH2 9741   2.445   7.250   5.659  0.4983 -0.4624 -0.2053
 3263TIP3    H1 9742   2.454   7.185   5.590  0.3415 -1.2093  0.4682
 3263TIP3    H2 9743   2.526   7.241   5.711  0.7979  0.3662 -0.5189
 3264TIP3   OH2 9744   2.615   3.407   1.573  0.1518  0.5141  0.3718
 3264TIP3    H1 9745   2.684   3.433   1.633 -0.8570  1.1670  1.2723
 3264TIP3    H2 9746   2.574   3.489   1.545  0.1281  0.1753 -0.6294
 3265TIP3   OH2 9747   2.319   3.802   1.740  0.2700  0.4036  0.3677
 3265TIP3    H1 9748   2.265   3.881   1.744  0.9318  0.9173 -0.6863
 3265TIP3    H2 9749   2.407   3.831   1.761  0.2890 -0.2978  1.2889
 3266TIP3   OH2 9750   2.910   4.033   1.952 -0.2041 -0.1511 -0.1415
 3266TIP3    H1 9751   2.931   3.998   1.865 -0.4452 -1.7040  0.4046
 3266TIP3    H2 9752   2.986   4.086   1.976 -0.1574  0.3231 -1.3255
 3267TIP3   OH2 9753   4.137   1.331   2.001 -0.4017 -0.5414  0.0288
 3267TIP3    H1 9754   4.146   1.235   2.002  0.4461 -0.4539  0.8368
 3267TIP3    H2 9755   4.087   1.351   2.080 -0.4867 -0.3044 -0.0847
 3268TIP3   OH2 9756   1.346   3.701   1.354  0.1131  0.3958 -0.7683
 3268TIP3    H1 9757   1.386   3.782   1.387  2.8171 -0.3144 -2.1452
 3268TIP3    H2 9758   1.309   3.725   1.269 -2.6755  1.0962  0.5839
 3269TIP3   OH2 9759   1.021   3.379   4.454 -0.5657 -0.2791 -0.1363
 3269TIP3    H1 9760   1.078   3.430   4.513 -1.9085  1.8425 -0.6143
 3269TIP3    H2 9761   0.950   3.348   4.510 -0.0969 -1.0686  0.0217
 3270TIP3   OH2 9762   2.843   3.887   0.887  0.5815  0.1239 -0.3320
 3270TIP3    H1 9763   2.920   3.899   0.943  0.4853 -0.3413 -0.1048
 3270TIP3    H2 9764   2.770   3.914   0.942  0.3344 -1.7589  0.2672
 3271TIP3   OH2 9765   2.031   2.499   2.812 -0.2411 -0.4598  0.6012
 3271TIP3    H1 9766   2.011   2.486   2.719 -1.0841 -0.3921  0.7740
 3271TIP3    H2 9767   2.000   2.420   2.855  0.4601 -0.6400  0.7845
 3272TIP3   OH2 9768   2.408   2.128   1.299 -0.4274  0.1964 -0.3072
 3272TIP3    H1 9769   2.435   2.037   1.311 -1.6269 -0.4987 -2.7070
 3272TIP3    H2 9770   2.484   2.170   1.257 -0.8238 -0.3392 -1.5856
 3273TIP3   OH2 9771   2.359   3.284   3.380 -0.0675 -0.5018 -0.4962
 3273TIP3    H1 9772   2.361   3.375   3.350 -0.8777 -0.4076 -0.2955
 3273TIP3    H2 9773   2.389   3.233   3.305  0.9234 -0.0251 -0.4234
 3274TIP3   OH2 9774   1.793   2.987   2.520  0.1800 -0.1248 -0.3641
 3274TIP3    H1 9775   1.715   3.031   2.555  0.1307 -1.3640  1.1436
 3274TIP3    H2 9776   1.820   2.928   2.590  2.4682  0.2571 -0.8875
 3275TIP3   OH2 9777   3.087   2.501   3.748 -0.8780  0.2977  0.6015
 3275TIP3    H1 9778   2.991   2.501   3.746 -0.8689  1.9788 -1.1573
 3275TIP3    H2 9779   3.109   2.573   3.807 -0.6934  0.9464 -0.2586
 3276TIP3   OH2 9780   2.813   3.130   3.039 -0.4230 -0.4971 -0.0918
 3276TIP3    H1 9781   2.888   3.149   3.094  0.5385  1.4569 -1.9908
 3276TIP3    H2 9782   2.798   3.211   2.990 -1.5472 -1.9915 -2.3134
 3277TIP3   OH2 9783   3.332   3.832   1.498 -0.8657  0.1258 -0.1250
 3277TIP3    H1 9784   3.332   3.927   1.513  1.3899  0.3261 -1.1423
 3277TIP3    H2 9785   3.328   3.794   1.585 -0.3649  1.1946  0.3774
 3278TIP3   OH2 9786   2.776   4.271   3.123  0.0172  0.1705  0.9159
 3278TIP3    H1 9787   2.851   4.217   3.149 -0.2934 -0.4220  0.5714
 3278TIP3    H2 9788   2.710   4.209   3.092 -0.6510  0.6817  1.2817
 3279TIP3   OH2 9789   1.415   5.562   1.997 -0.0631 -0.6424  0.2338
 3279TIP3    H1 9790   1.506   5.561   2.028 -0.4997  0.3497  1.5978
 3279TIP3    H2 9791   1.396   5.471   1.977  1.0909 -0.9250  0.3662
 3280TIP3   OH2 9792   3.402   3.582   3.647 -0.0255 -0.2352 -0.2194
 3280TIP3    H1 9793   3.414   3.529   3.725  0.8585  0.5474  0.1796
 3280TIP3    H2 9794   3.490   3.593   3.611 -0.4475 -0.7937 -1.4687
 3281TIP3   OH2 9795   2.109   2.874   1.921  0.0231 -0.9717 -0.1597
 3281TIP3    H1 9796   2.055   2.821   1.862  0.1098 -0.6079 -0.5682
 3281TIP3    H2 9797   2.066   2.866   2.006 -2.7459  2.1737 -1.1706
 3282TIP3   OH2 9798   1.251   5.997   4.206  0.5487 -0.3678  0.4973
 3282TIP3    H1 9799   1.232   6.064   4.272 -2.9632 -1.3196  0.5582
 3282TIP3    H2 9800   1.242   6.044   4.123  1.5179  0.0317  0.6158
 3283TIP3   OH2 9801   4.631   5.406   3.755 -0.1344 -0.5353 -0.1929
 3283TIP3    H1 9802   4.705   5.395   3.814 -0.7157 -0.6524  0.5228
 3283TIP3    H2 9803   4.578   5.327   3.768 -1.1300  0.2145  0.3818
 3284TIP3   OH2 9804   2.977   2.189   4.345 -0.4764  0.2449  0.0811
 3284TIP3    H1 9805   2.901   2.197   4.401 -0.5667  1.6938 -0.2258
 3284TIP3    H2 9806   3.012   2.278   4.339  1.0693 -0.3535 -0.0092
 3285TIP3   OH2 9807   2.725   3.468   3.792 -0.2382 -0.1747 -0.1699
 3285TIP3    H1 9808   2.736   3.496   3.883  0.3018 -0.4677 -0.1437
 3285TIP3    H2 9809   2.731   3.372   3.795  1.1679 -0.1246 -0.6912
 3286TIP3   OH2 9810   1.512   2.919   3.292  0.6936  0.2403  1.0095
 3286TIP3    H1 9811   1.567   2.993   3.265 -0.5612  0.7287 -0.2813
 3286TIP3    H2 9812   1.430   2.959   3.319  0.4205 -0.6058  1.4255
 3287TIP3   OH2 9813   2.818   2.666   1.821 -0.1897 -0.7612  0.3124
 3287TIP3    H1 9814   2.759   2.736   1.793  2.1614  1.4537  0.6250
 3287TIP3    H2 9815   2.767   2.586   1.812 -2.8949  0.9613 -0.3191
 3288TIP3   OH2 9816   3.489   5.306   2.726 -0.1593  0.2419 -0.1604
 3288TIP3    H1 9817   3.565   5.298   2.668  0.3983 -0.6964  0.6717
 3288TIP3    H2 9818   3.525   5.341   2.807 -1.1278  2.6772 -0.7439
 3289TIP3   OH2 9819   2.593   1.292   2.624 -0.1478 -0.0755  0.2069
 3289TIP3    H1 9820   2.508   1.266   2.658 -0.7788  1.7240  0.0345
 3289TIP3    H2 9821   2.641   1.323   2.701 -0.7175  1.6982 -0.1211
 3290TIP3   OH2 9822   2.600   5.550   2.589  0.0016 -0.2138  0.0145
 3290TIP3    H1 9823   2.669   5.483   2.599  0.0038 -0.2090  0.0300
 3290TIP3    H2 9824   2.646   5.633   2.599 -0.0232 -0.2126  0.1268
 3291TIP3   OH2 9825   3.413   2.239   1.628  0.1783  0.1785 -0.0175
 3291TIP3    H1 9826   3.366   2.314   1.591 -2.3875 -1.3547 -0.0182
 3291TIP3    H2 9827   3.403   2.249   1.723 -0.0113 -0.0355 -0.0129
 3292TIP3   OH2 9828   2.142   5.764   2.036 -0.0265  0.3046  0.4925
 3292TIP3    H1 9829   2.101   5.821   1.971 -2.2315  0.0906  1.6456
 3292TIP3    H2 9830   2.222   5.732   1.993 -0.0240  2.3107 -1.0677
 3293TIP3   OH2 9831   1.092   3.240   3.389 -0.1410 -0.0819  0.1538
 3293TIP3    H1 9832   1.048   3.325   3.396  0.3176  0.1341  0.4220
 3293TIP3    H2 9833   1.065   3.207   3.304  0.1059  0.5710 -0.1843
 3294TIP3   OH2 9834   2.377   4.475   4.026 -0.1824 -0.2027  0.1123
 3294TIP3    H1 9835   2.317   4.408   3.993  1.3081 -2.1888  1.3167
 3294TIP3    H2 9836   2.446   4.426   4.070  0.2762  2.1621  2.1721
 3295TIP3   OH2 9837   2.248   4.345   5.267  0.5607 -0.0005 -0.0010
 3295TIP3    H1 9838   2.329   4.338   5.215 -0.5371 -0.6948 -1.6736
 3295TIP3    H2 9839   2.178   4.336   5.202 -0.8551 -1.2495  1.6844
 3296TIP3   OH2 9840   4.376   4.191   2.920 -0.3301  0.0583 -0.2072
 3296TIP3    H1 9841   4.336   4.228   2.999 -0.1077  0.0574 -0.0930
 3296TIP3    H2 9842   4.430   4.262   2.885 -0.8691  0.2402 -0.6706
 3297TIP3   OH2 9843   3.048   3.445   1.980  0.0688 -0.0705 -0.2088
 3297TIP3    H1 9844   2.987   3.408   1.916  1.7826 -0.0453 -1.8653
 3297TIP3    H2 9845   3.002   3.521   2.015 -1.2925 -0.6776 -0.6324
 3298TIP3   OH2 9846   3.641   2.504   1.185  0.4625  0.4725 -0.2437
 3298TIP3    H1 9847   3.711   2.458   1.138  0.3334 -0.6079  0.6003
 3298TIP3    H2 9848   3.561   2.463   1.154  0.4854 -1.8515  2.5667
 3299TIP3   OH2 9849   2.254   4.673   3.778  0.2443 -0.0306 -0.1335
 3299TIP3    H1 9850   2.316   4.654   3.848  0.2849 -0.9621 -0.4168
 3299TIP3    H2 9851   2.174   4.698   3.824  1.0229  1.8537  0.2285
 3300TIP3   OH2 9852   2.542   3.772   2.160 -0.3438 -0.2591  0.0887
 3300TIP3    H1 9853   2.454   3.788   2.194 -0.0775 -0.3154  0.8293
 3300TIP3    H2 9854   2.575   3.859   2.137 -0.0355 -0.0591  1.2373
 3301TIP3   OH2 9855   1.920   4.415   1.361  0.1852  0.5464  0.1880
 3301TIP3    H1 9856   1.987   4.482   1.375  2.3620 -1.5315  0.1066
 3301TIP3    H2 9857   1.969   4.338   1.333 -2.2895 -0.9832 -0.0855
 3302TIP3   OH2 9858   4.036   4.047   2.579  0.0912  0.1646  0.1632
 3302TIP3    H1 9859   4.075   4.124   2.620 -2.3090  0.8140  1.3178
 3302TIP3    H2 9860   4.076   4.044   2.492  0.5377  2.4753  0.2400
 3303TIP3   OH2 9861   1.032   4.421   4.460  0.0926  0.3395  0.0624
 3303TIP3    H1 9862   1.073   4.494   4.505  1.1458 -0.1823 -0.0345
 3303TIP3    H2 9863   1.105   4.367   4.430 -0.6848 -1.1769  0.8339
 3304TIP3   OH2 9864   3.275   4.284   3.036  0.2597  0.0166  0.2411
 3304TIP3    H1 9865   3.280   4.220   2.964 -1.5262 -0.6979  0.7206
 3304TIP3    H2 9866   3.239   4.363   2.995  2.5119  0.7566 -0.3615
 3305TIP3   OH2 9867   2.564   5.949   1.039 -0.3818  0.1720  0.2845
 3305TIP3    H1 9868   2.526   6.007   1.105  0.7708  1.4135 -0.1177
 3305TIP3    H2 9869   2.547   5.861   1.071  0.1551  0.7644  2.2446
 3306TIP3   OH2 9870   4.872   3.286   2.018  0.6361 -0.2008 -0.3891
 3306TIP3    H1 9871   4.807   3.313   2.083 -0.8291 -0.6902 -1.6107
 3306TIP3    H2 9872   4.843   3.328   1.937  1.8816 -0.3950 -0.9448
 3307TIP3   OH2 9873   2.357   6.245   2.302  0.1208  0.0924 -0.3752
 3307TIP3    H1 9874   2.400   6.161   2.320 -0.9249 -0.2570  0.5721
 3307TIP3    H2 9875   2.378   6.263   2.211  1.6252 -0.4427 -0.1526
 3308TIP3   OH2 9876   4.522   7.248   5.952 -0.3753  0.2191  0.4824
 3308TIP3    H1 9877   4.611   7.270   5.979 -0.2320 -0.7447  0.7796
 3308TIP3    H2 9878   4.490   7.328   5.910  1.1002  0.1444 -0.8295
 3309TIP3   OH2 9879   2.545   4.923   3.604 -0.2754  0.5289 -0.3047
 3309TIP3    H1 9880   2.596   4.953   3.529 -0.1288 -2.3832 -1.4492
 3309TIP3    H2 9881   2.605   4.928   3.678  0.7774 -0.1064 -1.0973
 3310TIP3   OH2 9882   4.591   3.571   1.048 -0.3575 -0.5992 -0.1975
 3310TIP3    H1 9883   4.575   3.481   1.074  0.7957 -0.6308  0.4477
 3310TIP3    H2 9884   4.683   3.573   1.022  0.0914  0.7223  1.3222
 3311TIP3   OH2 9885   6.868   3.545   4.610  0.0510 -0.1766 -0.5953
 3311TIP3    H1 9886   6.930   3.535   4.682  0.8034 -0.6812 -1.3088
 3311TIP3    H2 9887   6.921   3.570   4.535 -0.5340 -1.1328 -1.3438
 3312TIP3   OH2 9888   1.712   4.134   3.140 -0.4406  0.5756 -0.8168
 3312TIP3    H1 9889   1.671   4.048   3.145 -0.5258  0.6767  0.5811
 3312TIP3    H2 9890   1.642   4.195   3.161 -0.3627  0.9813 -1.7260
 3313TIP3   OH2 9891   4.042   6.930   3.456  0.2991  0.0465 -0.3688
 3313TIP3    H1 9892   3.973   6.937   3.522  0.4612 -1.2644 -0.0497
 3313TIP3    H2 9893   4.054   7.019   3.424 -0.8596  0.4373  0.2758
 3314TIP3   OH2 9894   2.169   3.290   2.541  0.0986  0.8657  0.4684
 3314TIP3    H1 9895   2.106   3.347   2.584 -1.5540 -1.5149  1.2861
 3314TIP3    H2 9896   2.197   3.229   2.610 -0.8541 -1.5456 -1.2090
 3315TIP3   OH2 9897   1.154   3.738   2.480  0.2205 -0.4835 -0.1906
 3315TIP3    H1 9898   1.106   3.816   2.449 -0.3560 -0.7209  0.0943
 3315TIP3    H2 9899   1.245   3.766   2.484  0.0695  0.0581 -0.4893
 3316TIP3   OH2 9900   3.644   2.219   1.003 -0.2109 -0.2636  0.5864
 3316TIP3    H1 9901   3.658   2.304   0.960 -1.7095  0.2364  1.0347
 3316TIP3    H2 9902   3.717   2.209   1.063 -0.3382  1.0084  0.9636
 3317TIP3   OH2 9903   0.350   3.581   0.433  0.6186 -0.0914 -0.1515
 3317TIP3    H1 9904   0.378   3.552   0.520 -1.8790  1.1550  1.1018
 3317TIP3    H2 9905   0.381   3.672   0.427 -1.0011  0.5060  0.2902
 3318TIP3   OH2 9906   2.444   1.402   2.380  0.5397 -0.2676  0.0803
 3318TIP3    H1 9907   2.501   1.350   2.437 -1.1284 -1.3899  0.7598
 3318TIP3    H2 9908   2.356   1.374   2.403 -0.2028 -0.4088 -2.7350
 3319TIP3   OH2 9909   0.670   2.466   4.254  0.0854 -0.1011  0.4442
 3319TIP3    H1 9910   0.706   2.464   4.165 -0.7747  0.5412  0.0727
 3319TIP3    H2 9911   0.592   2.522   4.247 -0.9613 -1.4300  1.2428
 3320TIP3   OH2 9912   1.672   1.850   3.166 -0.0519 -0.0968  0.7020
 3320TIP3    H1 9913   1.729   1.918   3.201  1.5351 -0.2968 -1.4161
 3320TIP3    H2 9914   1.663   1.870   3.073 -1.3079 -1.5603  0.4744
 3321TIP3   OH2 9915   7.887   5.322   1.998 -0.0682 -0.2934  0.2250
 3321TIP3    H1 9916   7.822   5.324   2.068 -0.1709  0.0002  0.1223
 3321TIP3    H2 9917   7.858   5.252   1.940 -0.6503  0.2640 -0.1632
 3322TIP3   OH2 9918   2.862   4.840   1.752 -0.3243  0.4316 -0.0505
 3322TIP3    H1 9919   2.947   4.796   1.741  0.7214  2.7087 -1.3794
 3322TIP3    H2 9920   2.856   4.858   1.846 -0.1700 -1.3125  0.3173
 3323TIP3   OH2 9921   3.443   2.408   2.090 -0.1462 -0.7244 -0.0485
 3323TIP3    H1 9922   3.444   2.502   2.109 -0.9825 -0.7387  0.0711
 3323TIP3    H2 9923   3.534   2.387   2.071  0.0247  0.1416 -0.2197
 3324TIP3   OH2 9924   2.151   3.567   1.283 -0.1021  0.3940 -0.0233
 3324TIP3    H1 9925   2.184   3.628   1.348  1.2763  0.6820 -0.9752
 3324TIP3    H2 9926   2.061   3.597   1.266  0.3480  1.7851 -0.0313
 3325TIP3   OH2 9927   0.802   3.127   3.589  0.0920  0.6368  0.0341
 3325TIP3    H1 9928   0.829   3.183   3.516  2.2996 -0.9093 -0.3936
 3325TIP3    H2 9929   0.882   3.081   3.615 -1.2337 -0.8145  1.6928
 3326TIP3   OH2 9930   2.757   4.140   4.947  0.2219 -0.3315 -1.0614
 3326TIP3    H1 9931   2.752   4.049   4.917  0.9617 -0.0741 -1.9640
 3326TIP3    H2 9932   2.772   4.191   4.868  1.1894  0.4459 -0.3851
 3327TIP3   OH2 9933   1.446   2.461   1.671  0.2961  0.0273 -0.1666
 3327TIP3    H1 9934   1.408   2.468   1.759  0.4251  1.8280 -0.2459
 3327TIP3    H2 9935   1.538   2.439   1.687  0.5851  1.4924  0.1812
 3328TIP3   OH2 9936   2.438   5.336   2.620 -0.2330 -0.1162  0.5434
 3328TIP3    H1 9937   2.484   5.419   2.610  0.4411 -0.4539  0.8183
 3328TIP3    H2 9938   2.458   5.308   2.709 -1.7762  0.2162  1.0013
 3329TIP3   OH2 9939   1.858   4.690   4.074  0.6725 -0.0098 -0.2776
 3329TIP3    H1 9940   1.945   4.651   4.076  0.7433  0.0980 -1.2382
 3329TIP3    H2 9941   1.857   4.745   3.996  0.3218  1.3633  0.6611
 3330TIP3   OH2 9942   3.373   3.462   5.579  0.3351  0.4117 -0.5539
 3330TIP3    H1 9943   3.280   3.478   5.566  0.7342  2.0648 -1.5666
 3330TIP3    H2 9944   3.377   3.389   5.640 -1.6401  1.0763  0.4053
 3331TIP3   OH2 9945   2.501   5.674   1.705  0.3068  0.1074  0.1117
 3331TIP3    H1 9946   2.454   5.666   1.622  2.3162  0.3314 -1.0608
 3331TIP3    H2 9947   2.576   5.729   1.685  1.2089 -0.4395  1.9207
 3332TIP3   OH2 9948   2.925   5.802   3.149 -0.0626 -0.3949 -0.0406
 3332TIP3    H1 9949   2.880   5.777   3.230 -1.1412 -0.1410 -0.5453
 3332TIP3    H2 9950   2.873   5.875   3.115  0.8396  0.0134 -0.5565
 3333TIP3   OH2 9951   2.195   5.314   0.051 -0.6543 -0.2501 -0.1720
 3333TIP3    H1 9952   2.215   5.239  -0.005 -0.0902 -0.0463 -0.2444
 3333TIP3    H2 9953   2.192   5.389  -0.009 -0.5137 -0.1053  0.0005
 3334TIP3   OH2 9954   1.592   4.973   3.339  0.0023 -0.0810  0.4454
 3334TIP3    H1 9955   1.513   4.937   3.300  1.0682 -1.0129 -0.9114
 3334TIP3    H2 9956   1.633   4.899   3.383  1.2879 -0.1225 -0.8112
 3335TIP3   OH2 9957   1.993   4.240   0.159  0.3716 -0.0706  0.1083
 3335TIP3    H1 9958   1.909   4.204   0.129  0.6147  0.0924 -0.7974
 3335TIP3    H2 9959   2.012   4.310   0.096  1.6468 -0.7390 -0.2570
 3336TIP3   OH2 9960   1.261   0.682   1.639 -0.4887  0.1037  0.3240
 3336TIP3    H1 9961   1.214   0.724   1.711  0.1170  0.2319  0.6526
 3336TIP3    H2 9962   1.317   0.751   1.603 -1.0316  0.1302 -0.4896
 3337TIP3   OH2 9963   0.264   6.713   0.968  0.3962 -0.0068  0.2707
 3337TIP3    H1 9964   0.307   6.632   0.942 -2.0945 -1.6353  1.0560
 3337TIP3    H2 9965   0.191   6.722   0.907  0.7609  1.7562  0.0819
 3338TIP3   OH2 9966   3.143   4.958   3.170  0.5266 -0.0233 -0.3341
 3338TIP3    H1 9967   3.171   4.869   3.191  3.2315  0.4364 -1.7489
 3338TIP3    H2 9968   3.063   4.947   3.120  1.4873 -1.7521 -1.5533
 3339TIP3   OH2 9969   1.975   2.931   1.561  0.2992 -0.3402  0.2786
 3339TIP3    H1 9970   1.893   2.944   1.609  0.0589 -0.1786 -0.1747
 3339TIP3    H2 9971   2.036   2.992   1.601 -0.4679  1.2843 -0.9702
 3340TIP3   OH2 9972   1.804   3.829   1.676  0.0788  0.1764  0.3334
 3340TIP3    H1 9973   1.778   3.737   1.670  0.3816  0.0221  1.3134
 3340TIP3    H2 9974   1.811   3.846   1.770  1.0731  0.8981  0.1367
 3341TIP3   OH2 9975   3.101   4.379   4.634 -0.0075  0.1125  0.6720
 3341TIP3    H1 9976   3.107   4.284   4.632 -0.1837  0.1201 -0.6385
 3341TIP3    H2 9977   3.191   4.408   4.650  0.2485 -0.2464 -0.0984
 3342TIP3   OH2 9978   3.293   0.958   1.726  0.1482 -0.0869  0.0367
 3342TIP3    H1 9979   3.202   0.932   1.710 -0.6694  3.1333 -0.8518
 3342TIP3    H2 9980   3.304   0.952   1.821 -1.3129  0.4855  0.2461
 3343TIP3   OH2 9981   2.494   3.383   2.526 -0.3793  0.1405 -0.2380
 3343TIP3    H1 9982   2.515   3.447   2.458 -0.4528 -1.4486 -1.7874
 3343TIP3    H2 9983   2.403   3.358   2.510 -0.3928 -0.2655  0.4259
 3344TIP3   OH2 9984   2.882   4.469   2.927 -0.1223  0.0977  0.7350
 3344TIP3    H1 9985   2.856   4.422   3.006 -0.4005  1.3614  1.4159
 3344TIP3    H2 9986   2.836   4.553   2.933  1.4899  1.0406  0.2728
 3345TIP3   OH2 9987   3.145   2.709   3.956  0.4634  0.5397 -0.0041
 3345TIP3    H1 9988   3.166   2.801   3.937  1.0575  0.4103  0.0044
 3345TIP3    H2 9989   3.073   2.713   4.018  0.1861  0.9990 -0.3494
 3346TIP3   OH2 9990   1.887   3.451   4.040  0.5865 -0.5279 -0.4335
 3346TIP3    H1 9991   1.845   3.512   4.101 -2.1144 -2.5226 -0.2073
 3346TIP3    H2 9992   1.958   3.411   4.091 -0.2004 -0.5197  0.6863
 3347TIP3   OH2 9993   0.482   4.516   5.022 -0.4641 -0.3591  0.6345
 3347TIP3    H1 9994   0.451   4.599   5.057  0.3182 -0.6415  2.0203
 3347TIP3    H2 9995   0.557   4.493   5.076 -0.0059 -1.4412 -0.4249
 3348TIP3   OH2 9996   2.075   5.983   4.326 -0.5512 -0.0303 -0.1605
 3348TIP3    H1 9997   2.052   6.036   4.402 -2.9081 -1.6713  0.3214
 3348TIP3    H2 9998   2.152   6.026   4.289 -2.7135  4.0831 -0.1590
 3349TIP3   OH2 9999   2.345   4.040   4.987 -0.0104 -0.1792  0.2096
 3349TIP3    H110000   2.426   4.007   5.027  1.0473  1.9207 -0.1537
 3349TIP3    H210001   2.347   4.004   4.898  1.4703  1.3565 -0.4014
 3350TIP3   OH210002   1.129   2.574   2.450 -0.1877  0.0358 -0.2827
 3350TIP3    H110003   1.125   2.568   2.355  0.7858 -1.6682 -0.2278
 3350TIP3    H210004   1.213   2.616   2.469 -0.0865 -0.2198 -0.1588
 3351TIP3   OH210005   0.905   2.275   3.986  0.3373 -0.0400 -0.2864
 3351TIP3    H110006   0.881   2.186   4.009  0.4779 -0.2083 -0.7920
 3351TIP3    H210007   0.847   2.330   4.040  0.8894 -0.4189  0.7146
 3352TIP3   OH210008   1.952   2.978   3.471  0.6003 -0.4789  0.4173
 3352TIP3    H110009   1.887   3.044   3.497 -0.3369 -1.2147 -0.0112
 3352TIP3    H210010   2.023   3.028   3.430 -0.7327  0.1448 -1.1762
 3353TIP3   OH210011   2.973   4.110   3.519  0.1323  0.0981 -0.2995
 3353TIP3    H110012   2.968   4.164   3.441  0.5686 -0.6242 -0.8431
 3353TIP3    H210013   2.995   4.023   3.486  0.7971 -0.1100  0.6587
 3354TIP3   OH210014   2.776   4.147   2.235 -0.1367  0.2847 -0.1504
 3354TIP3    H110015   2.740   4.143   2.324  0.2376 -0.4051 -0.0277
 3354TIP3    H210016   2.865   4.112   2.243 -0.2585 -0.2081 -0.8813
 3355TIP3   OH210017   1.311   2.282   3.772  0.4720 -0.0850  0.2407
 3355TIP3    H110018   1.222   2.318   3.779  0.7463  0.7450 -0.4945
 3355TIP3    H210019   1.299   2.187   3.783 -0.5332  0.0055 -0.0210
 3356TIP3   OH210020   1.875   4.084   4.132  0.4153 -0.1196 -1.0262
 3356TIP3    H110021   1.943   4.115   4.192 -0.2849  1.0353 -0.8103
 3356TIP3    H210022   1.793   4.112   4.173 -0.0812  0.5521 -2.4528
 3357TIP3   OH210023   2.803   3.661   1.982 -0.2138  0.3753  0.2404
 3357TIP3    H110024   2.723   3.705   2.012 -0.2802  0.3860  0.0456
 3357TIP3    H210025   2.783   3.633   1.893 -0.7654 -1.5250  0.9301
 3358TIP3   OH210026   1.249   5.014   1.212  0.2640  0.2079 -0.3505
 3358TIP3    H110027   1.201   5.096   1.202  0.0322  0.2923  1.3140
 3358TIP3    H210028   1.341   5.040   1.216  0.2650  0.2876 -0.9228
 3359TIP3   OH210029   1.629   3.560   1.324 -0.0602  0.3555  0.0242
 3359TIP3    H110030   1.553   3.577   1.380  0.7604 -0.5456  1.4419
 3359TIP3    H210031   1.670   3.647   1.313 -0.4799  0.6121  0.4604
 3360TIP3   OH210032   1.523   5.259   0.877 -0.1431  0.0301  0.5182
 3360TIP3    H110033   1.501   5.345   0.913 -1.1298  0.2631 -0.6112
 3360TIP3    H210034   1.619   5.256   0.879 -0.0590  1.5440 -0.3037
 3361TIP3   OH210035   1.507   4.507   1.614 -0.2422  0.7391 -0.4236
 3361TIP3    H110036   1.503   4.576   1.548 -0.0513 -0.0340 -1.2650
 3361TIP3    H210037   1.567   4.442   1.577  0.2410  0.5175  0.7326
 3362TIP3   OH210038   4.154   3.395   3.865  0.2977 -0.0854 -0.2691
 3362TIP3    H110039   4.246   3.409   3.845  0.3035 -0.3338 -0.4190
 3362TIP3    H210040   4.132   3.313   3.820 -0.5006  1.0013 -1.8912
 3363TIP3   OH210041   2.242   5.203   2.313 -0.0143  0.0915  0.4888
 3363TIP3    H110042   2.320   5.225   2.365 -1.3861 -1.2231  3.2109
 3363TIP3    H210043   2.244   5.107   2.308 -2.1095 -0.0287  1.6760
 3364TIP3   OH210044   3.814   3.265   2.053 -0.2618 -0.1528  0.0835
 3364TIP3    H110045   3.907   3.246   2.044 -0.2282  0.6453 -1.4758
 3364TIP3    H210046   3.802   3.349   2.008 -1.4147  0.6569  1.8568
 3365TIP3   OH210047   2.274   3.198   4.083  0.8171 -0.4120  0.0024
 3365TIP3    H110048   2.242   3.207   3.993 -1.3941  1.1182  0.8965
 3365TIP3    H210049   2.352   3.142   4.075  0.0484 -1.1937 -2.7128
 3366TIP3   OH210050   4.034   3.596   3.725  0.1389 -0.3485  0.0257
 3366TIP3    H110051   4.089   3.529   3.766  0.3531 -0.2823 -0.1513
 3366TIP3    H210052   3.951   3.591   3.772  1.5214  2.1841  2.8799
 3367TIP3   OH210053   2.901   3.510   0.299 -0.1896  0.3300  0.0310
 3367TIP3    H110054   2.907   3.517   0.394  0.6869  0.2495 -0.0159
 3367TIP3    H210055   2.992   3.509   0.269 -0.4684  1.3558 -0.8878
 3368TIP3   OH210056   2.112   3.944   2.983 -0.1651  0.4837 -0.5715
 3368TIP3    H110057   2.177   3.944   2.913  0.6649  0.2262  0.1946
 3368TIP3    H210058   2.050   4.013   2.958  0.8282  1.2637 -0.9206
 3369TIP3   OH210059   1.125   3.675   3.833 -0.0249  0.5160 -0.2623
 3369TIP3    H110060   1.050   3.616   3.826 -0.1802  0.7123 -0.2777
 3369TIP3    H210061   1.127   3.700   3.926  0.4010  0.0181 -0.1394
 3370TIP3   OH210062   2.380   3.783   0.155  0.3356  0.0702  0.3009
 3370TIP3    H110063   2.444   3.852   0.137  2.2312 -1.7599 -0.2499
 3370TIP3    H210064   2.347   3.757   0.069  1.0912 -1.0250  0.3258
 3371TIP3   OH210065   1.465   4.621   2.198  0.0048 -0.0455  0.3050
 3371TIP3    H110066   1.544   4.572   2.174 -0.4748 -1.0451  0.7434
 3371TIP3    H210067   1.396   4.583   2.143 -0.5643 -0.5476  1.3539
 3372TIP3   OH210068   3.816   3.789   4.715 -0.1589  0.2544  1.0533
 3372TIP3    H110069   3.835   3.698   4.740  0.6536  0.2472  0.4414
 3372TIP3    H210070   3.746   3.781   4.650 -1.2027  0.1770  2.1750
 3373TIP3   OH210071   2.201   2.224   4.395 -0.1006 -0.2034  0.1048
 3373TIP3    H110072   2.133   2.197   4.333 -0.0093 -0.9827  0.3310
 3373TIP3    H210073   2.283   2.216   4.345 -0.2342  1.4209 -0.3848
 3374TIP3   OH210074   3.775   3.590   3.858 -0.5811 -0.0416  0.3930
 3374TIP3    H110075   3.807   3.679   3.845  0.2029 -0.4111 -0.3103
 3374TIP3    H210076   3.680   3.599   3.865 -0.7167  0.6402 -1.8110
 3375TIP3   OH210077   2.866   4.291   4.101 -0.5555 -0.3629 -0.1128
 3375TIP3    H110078   2.961   4.278   4.101 -0.0762  2.7011  0.7160
 3375TIP3    H210079   2.839   4.270   4.012  1.1216  0.0272 -0.7326
 3376TIP3   OH210080   1.379   4.494   0.186 -0.4515  0.3105 -0.1482
 3376TIP3    H110081   1.422   4.492   0.100 -0.1215  0.1626  0.0178
 3376TIP3    H210082   1.390   4.585   0.215 -1.4110  0.5995 -0.6837
 3377TIP3   OH210083   1.620   4.520   4.147 -0.1014  0.3727  0.2793
 3377TIP3    H110084   1.694   4.580   4.141  0.2044 -0.1265 -0.9229
 3377TIP3    H210085   1.567   4.540   4.070  0.1081 -1.0346 -0.2377
 3378TIP3   OH210086   6.103   4.054   4.009  0.8331 -0.1817 -0.2916
 3378TIP3    H110087   6.028   3.996   3.999  0.8742  0.0503 -2.1535
 3378TIP3    H210088   6.175   3.996   4.035  0.5390 -0.7644 -0.7508
 3379TIP3   OH210089   3.529   1.716   4.339 -0.1703  0.1269  0.1877
 3379TIP3    H110090   3.549   1.636   4.291 -0.2480 -0.9037  1.8408
 3379TIP3    H210091   3.458   1.757   4.289  0.5945 -0.2612 -1.2556
 3380TIP3   OH210092   3.945   3.317   3.318 -0.5142  0.2446  0.1934
 3380TIP3    H110093   4.035   3.288   3.307 -0.4471  0.0321  1.2630
 3380TIP3    H210094   3.892   3.241   3.292 -0.4176  0.7606 -1.5808
 3381TIP3   OH210095   1.841   3.441   3.098 -0.2256 -0.1806 -0.3005
 3381TIP3    H110096   1.788   3.444   3.178  1.3853 -0.0846  0.7842
 3381TIP3    H210097   1.833   3.351   3.067 -0.2408 -0.4311  0.4144
 3382TIP3   OH210098   0.935   2.896   3.017 -0.3107  0.2618 -0.4125
 3382TIP3    H110099   0.897   2.958   3.079 -1.2485 -0.0612 -0.6643
 3382TIP3    H210100   1.023   2.931   3.001 -0.8362  1.5612 -0.5892
 3383TIP3   OH210101   2.478   2.916   3.545  0.2208 -0.1343 -0.0898
 3383TIP3    H110102   2.474   2.822   3.531 -0.7816 -0.0522 -0.3415
 3383TIP3    H210103   2.426   2.931   3.624  0.7236  0.1639  0.1915
 3384TIP3   OH210104   3.232   1.437   4.140  0.1797  0.3703  0.0429
 3384TIP3    H110105   3.249   1.441   4.234  2.6374  0.0400 -0.3618
 3384TIP3    H210106   3.138   1.421   4.133 -0.5038  2.9621  2.4079
 3385TIP3   OH210107   1.560   4.708   2.816  0.3654  0.1941 -0.7890
 3385TIP3    H110108   1.532   4.620   2.789  0.1488  0.1126 -0.3017
 3385TIP3    H210109   1.496   4.767   2.777 -0.9637 -0.0468  0.9737
 3386TIP3   OH210110   3.182   6.227   1.513 -0.0643  0.6167  0.3738
 3386TIP3    H110111   3.207   6.207   1.422 -0.6229  1.3735  0.0409
 3386TIP3    H210112   3.091   6.199   1.519 -0.5755  2.1442  0.1667
 3387TIP3   OH210113   1.156   0.781   3.142  0.0065 -0.3021 -0.6822
 3387TIP3    H110114   1.157   0.748   3.052 -1.8344 -1.6357 -0.2314
 3387TIP3    H210115   1.068   0.815   3.155  0.0238 -0.7887  0.8570
 3388TIP3   OH210116   2.047   4.144   4.360  0.2056  0.2911 -0.1874
 3388TIP3    H110117   2.085   4.071   4.408  2.6859  0.6013 -1.5693
 3388TIP3    H210118   2.116   4.211   4.360 -1.8589  2.5042  0.7243
 3389TIP3   OH210119   2.318   4.030   3.275  0.0040 -0.1397 -0.2780
 3389TIP3    H110120   2.260   4.098   3.243  0.6335  0.7468  0.4331
 3389TIP3    H210121   2.364   4.070   3.348  0.1405 -1.4341  0.3712
 3390TIP3   OH210122   2.253   4.943   5.278  0.1221  0.8035 -0.1921
 3390TIP3    H110123   2.313   4.879   5.239  1.2377  0.9118  1.2783
 3390TIP3    H210124   2.302   5.026   5.276 -0.0391  0.9311  0.8671
 3391TIP3   OH210125   1.695   5.547   2.519  0.2107 -0.2198 -0.0869
 3391TIP3    H110126   1.644   5.496   2.456 -0.8716  0.1999  0.4298
 3391TIP3    H210127   1.641   5.623   2.538  0.8375  0.0145  0.8171
 3392TIP3   OH210128   2.890   2.193   1.746 -0.6790  0.5567  0.4276
 3392TIP3    H110129   2.814   2.145   1.713 -0.3062  0.4639 -0.3096
 3392TIP3    H210130   2.963   2.159   1.695 -0.0897  0.4078  1.3589
 3393TIP3   OH210131   1.794   3.897   4.407  0.0142  0.0451  0.0233
 3393TIP3    H110132   1.866   3.958   4.394  1.0085 -1.5455 -2.1896
 3393TIP3    H210133   1.823   3.841   4.479  1.5102 -1.3404 -1.6432
 3394TIP3   OH210134   0.763   4.417   2.731  0.1369 -0.1504 -0.1814
 3394TIP3    H110135   0.802   4.465   2.657 -0.5306  1.2971  0.3971
 3394TIP3    H210136   0.750   4.328   2.697  0.7387  0.2462 -1.4932
 3395TIP3   OH210137   3.758   6.045   4.355 -0.1629  0.0338 -0.2803
 3395TIP3    H110138   3.679   6.001   4.323 -0.2890  0.0584 -0.0032
 3395TIP3    H210139   3.774   6.115   4.291  0.0861 -0.4703 -0.7667
 3396TIP3   OH210140   5.245   5.811   4.033  0.1063  0.7081 -0.4489
 3396TIP3    H110141   5.166   5.858   4.005 -0.9370 -0.2181  0.8797
 3396TIP3    H210142   5.315   5.849   3.980 -1.3539  0.9523 -2.2777
 3397TIP3   OH210143   3.322   5.157   3.047 -0.3713 -0.3567 -0.2431
 3397TIP3    H110144   3.279   5.095   3.105  1.0712 -1.3233 -0.1702
 3397TIP3    H210145   3.414   5.155   3.073 -0.2501  1.6115 -0.4372
 3398TIP3   OH210146   0.862   2.885   1.655  0.0739  0.2950  0.5842
 3398TIP3    H110147   0.829   2.811   1.706 -0.7195  1.2103  1.4104
 3398TIP3    H210148   0.816   2.961   1.690 -2.5684  0.6107 -3.2783
 3399TIP3   OH210149   2.010   4.583   2.864  0.2119 -0.2856  0.0763
 3399TIP3    H110150   2.063   4.505   2.877  1.9426  1.3298  3.3093
 3399TIP3    H210151   1.920   4.552   2.868  0.8675 -2.0175  2.2156
 3400TIP3   OH210152   0.994   5.349   2.380  0.1225  0.0070  0.5288
 3400TIP3    H110153   1.057   5.364   2.451  0.9897 -1.2081  0.0268
 3400TIP3    H210154   1.009   5.258   2.354 -1.6731 -0.2066  0.2231
 3401TIP3   OH210155   2.723   3.998   3.730 -0.6302  0.3922  0.3292
 3401TIP3    H110156   2.757   4.086   3.744  0.9596 -0.2623  0.7216
 3401TIP3    H210157   2.755   3.972   3.644 -0.1264 -0.2339  0.6995
 3402TIP3   OH210158   3.142   2.115   2.618  0.2392 -0.8222  0.3108
 3402TIP3    H110159   3.137   2.091   2.711 -2.3455 -0.3221  0.3291
 3402TIP3    H210160   3.193   2.196   2.617  0.7303 -1.1081  1.2288
 3403TIP3   OH210161   1.213   3.353   3.741 -0.5775  0.0778  0.8137
 3403TIP3    H110162   1.123   3.384   3.736 -0.8753 -0.5833  1.7776
 3403TIP3    H210163   1.257   3.416   3.798 -0.3284  0.6291  0.0109
 3404TIP3   OH210164   0.883   2.341   1.424 -0.0193 -0.6034  0.0300
 3404TIP3    H110165   0.853   2.281   1.357 -1.2798  0.6600 -0.5585
 3404TIP3    H210166   0.878   2.291   1.506  2.5813 -2.5063 -0.9189
 3405TIP3   OH210167   3.389   2.235   3.602 -0.9157 -0.3056  0.3486
 3405TIP3    H110168   3.339   2.223   3.683 -1.2405  2.0104  0.5124
 3405TIP3    H210169   3.346   2.308   3.558  1.2063  0.5384 -0.3835
 3406TIP3   OH210170   7.336   3.189   0.360 -0.1258 -0.8273  0.4654
 3406TIP3    H110171   7.321   3.097   0.339  2.6445 -1.4667  1.0916
 3406TIP3    H210172   7.300   3.199   0.448  2.1783 -2.1017  1.5999
 3407TIP3   OH210173   2.343   1.994   2.725  0.1099 -0.4710 -0.5666
 3407TIP3    H110174   2.303   1.945   2.654  0.3279 -2.6635  0.7827
 3407TIP3    H210175   2.276   2.058   2.751  0.0440  0.3705 -2.7159
 3408TIP3   OH210176   0.050   2.904   4.652  0.2812 -0.2028 -0.0599
 3408TIP3    H110177  -0.016   2.936   4.591  0.0199 -1.4878 -0.4598
 3408TIP3    H210178   0.098   2.837   4.604  1.9253  0.7585  0.2103
 3409TIP3   OH210179   0.103   4.159   1.291  0.1861  0.3957  0.3131
 3409TIP3    H110180   0.067   4.086   1.241 -1.4574  1.5486 -0.2483
 3409TIP3    H210181   0.038   4.176   1.359  2.5942 -1.4243  3.1714
 3410TIP3   OH210182   3.436   1.706   1.149  0.1210  0.3277 -0.1190
 3410TIP3    H110183   3.436   1.744   1.061  3.1638 -0.7850 -0.6653
 3410TIP3    H210184   3.453   1.780   1.208 -1.5260  1.0055 -0.4699
 3411TIP3   OH210185   3.801   2.885   1.311 -0.3955 -0.2210  0.8114
 3411TIP3    H110186   3.820   2.978   1.321  0.9909 -0.2776 -1.0225
 3411TIP3    H210187   3.862   2.841   1.370 -0.1673 -0.0313  0.7159
 3412TIP3   OH210188   1.558   3.162   1.702 -0.0745  0.1105 -0.5246
 3412TIP3    H110189   1.619   3.206   1.642  0.0705  0.2866 -0.2475
 3412TIP3    H210190   1.608   3.151   1.783 -0.1644 -0.4162 -0.5406
 3413TIP3   OH210191   3.196   2.033   4.415 -0.6045  0.5966 -0.1832
 3413TIP3    H110192   3.125   2.076   4.369 -1.3497  0.0425  0.4322
 3413TIP3    H210193   3.153   1.973   4.476  0.3981 -0.2152 -0.2539
 3414TIP3   OH210194   3.442   5.942   4.281  0.0175  0.6537  0.2391
 3414TIP3    H110195   3.377   5.872   4.274 -0.7345  1.3224  0.3987
 3414TIP3    H210196   3.498   5.931   4.205  0.6557 -0.8731  0.9135
 3415TIP3   OH210197   7.358   0.984   5.865  0.0096 -0.5148 -0.1694
 3415TIP3    H110198   7.328   0.898   5.894 -0.8037 -0.1050  0.2288
 3415TIP3    H210199   7.279   1.026   5.829  0.6576 -0.3994 -1.4858
 3416TIP3   OH210200   3.285   1.789   1.960 -0.0014 -0.0508 -0.2457
 3416TIP3    H110201   3.372   1.750   1.947 -1.3168 -3.2170  0.0761
 3416TIP3    H210202   3.268   1.838   1.880  0.7020 -2.1698 -1.7195
 3417TIP3   OH210203   2.163   1.325   2.437  0.3212 -0.2447 -0.3879
 3417TIP3    H110204   2.130   1.245   2.396  0.5349 -0.8665  0.6267
 3417TIP3    H210205   2.115   1.331   2.520  1.6985 -0.3798  0.4307
 3418TIP3   OH210206   3.215   3.467   1.373  0.0754 -0.5085  0.5129
 3418TIP3    H110207   3.153   3.465   1.446 -1.3245 -0.3610 -0.6513
 3418TIP3    H210208   3.275   3.395   1.391 -0.6691 -0.9150  1.4597
 3419TIP3   OH210209   5.328   3.257   1.886  0.0448  0.1327  0.1856
 3419TIP3    H110210   5.347   3.176   1.839 -3.0277 -1.0857  0.9361
 3419TIP3    H210211   5.373   3.248   1.970 -0.3087 -0.8148  0.2773
 3420TIP3   OH210212   3.265   6.055   4.490  0.3875 -0.1416 -0.4507
 3420TIP3    H110213   3.324   6.099   4.428  0.6076 -1.0428 -0.8844
 3420TIP3    H210214   3.194   6.021   4.435  0.6368 -1.0375 -0.2279
 3421TIP3   OH210215   4.274   3.588   2.671 -0.2695  0.0193 -0.5071
 3421TIP3    H110216   4.249   3.506   2.629 -1.3453  0.4211 -0.6701
 3421TIP3    H210217   4.313   3.561   2.754  1.2827 -0.7478 -1.4641
 3422TIP3   OH210218   3.204   4.088   0.867 -0.2057 -0.6299 -0.0142
 3422TIP3    H110219   3.124   4.117   0.910  0.6922 -0.1233  1.3584
 3422TIP3    H210220   3.230   4.009   0.915  1.0661  0.2105  0.7109
 3423TIP3   OH210221   2.774   5.229   2.294  0.1368  0.2716 -0.7597
 3423TIP3    H110222   2.820   5.210   2.213 -0.1604 -0.6895 -0.7067
 3423TIP3    H210223   2.840   5.221   2.362  1.2243  4.4086 -1.1694
 3424TIP3   OH210224   1.873   3.468   2.442  0.1305  0.2412  0.2574
 3424TIP3    H110225   1.791   3.455   2.489  0.7335 -0.8005  1.0614
 3424TIP3    H210226   1.871   3.404   2.371 -0.3044  1.0698 -0.4722
 3425TIP3   OH210227   5.331   3.474   1.588 -0.6035 -0.0151  0.5654
 3425TIP3    H110228   5.271   3.441   1.655 -1.2318  1.9911  1.0279
 3425TIP3    H210229   5.370   3.396   1.550 -2.0383 -1.2743  1.6263
 3426TIP3   OH210230   2.591   7.144   1.199  0.5566  0.0001  0.1317
 3426TIP3    H110231   2.601   7.217   1.138  1.0590  1.3345  1.7638
 3426TIP3    H210232   2.596   7.184   1.285  1.9766 -2.1167  1.0779
 3427TIP3   OH210233   5.097   4.801   2.118 -0.4974  0.0550 -0.0227
 3427TIP3    H110234   5.131   4.851   2.193  0.4252 -0.3750 -0.1406
 3427TIP3    H210235   5.043   4.732   2.157  1.1675 -1.0774  0.3544
 3428TIP3   OH210236   3.059   1.952   2.028  0.3113  0.8320 -0.3956
 3428TIP3    H110237   3.118   1.880   2.004  1.8403  1.1431  2.2308
 3428TIP3    H210238   3.117   2.020   2.062 -1.4110  1.9002  0.4862
 3429TIP3   OH210239   3.173   1.839   2.785  0.1220 -0.1442 -0.1250
 3429TIP3    H110240   3.112   1.847   2.712 -1.3606 -1.7640  0.8794
 3429TIP3    H210241   3.164   1.921   2.833  0.7788  0.7475 -1.5130
 3430TIP3   OH210242   5.218   3.816   1.641 -0.0572  0.5702 -0.3240
 3430TIP3    H110243   5.300   3.775   1.669 -0.1788  1.5284  1.4972
 3430TIP3    H210244   5.246   3.889   1.585  0.2307 -0.6269 -1.7682
 3431TIP3   OH210245   1.722   5.860   1.782 -0.4587  0.3551 -0.1303
 3431TIP3    H110246   1.650   5.806   1.749 -0.3853 -0.7262  1.4460
 3431TIP3    H210247   1.747   5.913   1.707 -3.4212  1.3332 -0.5199
 3432TIP3   OH210248   2.937   3.275   2.174 -0.2862 -0.2649 -0.4819
 3432TIP3    H110249   2.857   3.305   2.131  0.8419  0.7059 -1.9477
 3432TIP3    H210250   3.007   3.294   2.111  1.1323 -0.8426  0.8871
 3433TIP3   OH210251   6.004   2.919   2.248  0.4093 -0.5728  0.0176
 3433TIP3    H110252   6.089   2.935   2.291 -0.7071  2.6448  1.1217
 3433TIP3    H210253   5.942   2.914   2.320 -1.1133  2.3527 -1.0231
 3434TIP3   OH210254   4.043   5.056   2.731 -0.0740  0.6662 -0.0514
 3434TIP3    H110255   4.137   5.047   2.743 -0.2890 -1.1933  0.3177
 3434TIP3    H210256   4.018   4.982   2.677 -1.3784  0.9889  0.0934
 3435TIP3   OH210257   4.471   3.997   3.159  0.1989  0.5918  0.0741
 3435TIP3    H110258   4.496   4.085   3.187 -1.0740  0.7999  0.6124
 3435TIP3    H210259   4.479   3.999   3.064 -1.5520  1.8819 -0.0796
 3436TIP3   OH210260   4.144   0.730   0.561  0.0835 -0.2382  0.3475
 3436TIP3    H110261   4.186   0.646   0.578 -0.6490 -0.6573  0.1487
 3436TIP3    H210262   4.181   0.790   0.626  2.7845  0.0300 -1.3439
 3437TIP3   OH210263   1.088   1.552   4.558 -0.3514  0.3596  0.2763
 3437TIP3    H110264   1.166   1.553   4.503 -0.5705  1.6039 -0.0275
 3437TIP3    H210265   1.120   1.528   4.645  0.2578  0.1479 -0.0076
 3438TIP3   OH210266   4.550   3.108   1.986 -0.3185  0.0457 -0.5458
 3438TIP3    H110267   4.597   3.067   1.913 -2.5971 -0.8643 -1.5651
 3438TIP3    H210268   4.519   3.034   2.039 -0.0043  0.6500  0.4883
 3439TIP3   OH210269   3.924   5.986   2.409 -0.1887  0.1732  0.1221
 3439TIP3    H110270   3.835   6.011   2.435  0.2223 -0.1531  1.8436
 3439TIP3    H210271   3.951   5.921   2.474  1.9844  1.5840  0.6554
 3440TIP3   OH210272   2.858   7.065   0.195 -0.2148  0.6821 -0.6597
 3440TIP3    H110273   2.776   7.064   0.146 -0.3338  0.7933 -0.4627
 3440TIP3    H210274   2.845   7.132   0.262 -0.5707 -0.4559  0.4325
 3441TIP3   OH210275   3.951   2.233   3.558 -0.2935  0.1525  0.0856
 3441TIP3    H110276   3.921   2.271   3.475  0.1485 -1.3532 -0.7799
 3441TIP3    H210277   3.885   2.168   3.580 -1.6540  2.1308  2.1617
 3442TIP3   OH210278   3.529   1.776   2.638  0.1527  0.1524  0.0543
 3442TIP3    H110279   3.618   1.771   2.602 -0.0973 -0.5190 -0.4839
 3442TIP3    H210280   3.493   1.857   2.602  0.6161  0.5229  0.4261
 3443TIP3   OH210281   2.985   5.439   0.863 -0.0832 -0.4103 -0.3334
 3443TIP3    H110282   2.972   5.444   0.958  0.4724  1.8632 -0.3508
 3443TIP3    H210283   3.071   5.398   0.854  0.7773  1.2142  0.2209
 3444TIP3   OH210284   5.770   3.385   2.473  0.0262  0.0506 -0.1475
 3444TIP3    H110285   5.830   3.363   2.545 -0.9293 -1.0118  0.3416
 3444TIP3    H210286   5.827   3.409   2.400  1.0139  1.8632  1.1799
 3445TIP3   OH210287   2.202   2.978   4.784 -0.8785 -0.1965  0.2466
 3445TIP3    H110288   2.148   3.042   4.738 -0.7898 -0.2190  0.1100
 3445TIP3    H210289   2.279   2.967   4.728 -1.9405 -2.1507 -0.9233
 3446TIP3   OH210290   3.029   1.342   3.342  0.1466 -0.0575  0.1225
 3446TIP3    H110291   2.998   1.418   3.390  1.0526 -0.1618  0.8839
 3446TIP3    H210292   2.963   1.275   3.358 -0.5839  0.5229 -0.4448
 3447TIP3   OH210293   3.264   2.939   3.334 -0.3792  0.1583  0.5633
 3447TIP3    H110294   3.346   2.950   3.285 -1.4192 -0.1639 -1.2977
 3447TIP3    H210295   3.269   3.004   3.404  1.3976  0.2485  0.3756
 3448TIP3   OH210296   4.826   2.728   2.641  0.6421 -0.1665 -0.4278
 3448TIP3    H110297   4.800   2.677   2.565  1.9886  0.5001 -1.3701
 3448TIP3    H210298   4.861   2.664   2.703 -1.5503 -0.8467  0.1390
 3449TIP3   OH210299   1.970   4.263   3.224 -0.3332 -0.2311  0.3708
 3449TIP3    H110300   1.906   4.193   3.207  1.8394 -1.7116 -2.0165
 3449TIP3    H210301   1.934   4.339   3.179 -1.0405 -0.7222  0.0925
 3450TIP3   OH210302   2.761   3.797   1.641 -0.3463  0.4003 -0.2735
 3450TIP3    H110303   2.813   3.735   1.692  0.2090 -0.3579 -1.7371
 3450TIP3    H210304   2.817   3.820   1.567 -1.4769  0.8135 -1.0091
 3451TIP3   OH210305   4.111   3.705   1.467 -0.2456 -0.3182  0.1986
 3451TIP3    H110306   4.094   3.687   1.559  1.8517 -1.0726  0.4620
 3451TIP3    H210307   4.152   3.625   1.434  1.4175  0.8791 -0.7249
 3452TIP3   OH210308   2.660   6.492   1.993 -0.1226 -0.0691  0.3309
 3452TIP3    H110309   2.610   6.412   2.004  0.4131 -0.2942  1.1285
 3452TIP3    H210310   2.710   6.501   2.074  0.2004  0.8020  0.0418
 3453TIP3   OH210311   2.536   0.327   5.825 -0.0144 -0.6891 -0.3803
 3453TIP3    H110312   2.478   0.269   5.776 -0.4301 -1.4565  1.0044
 3453TIP3    H210313   2.621   0.316   5.783 -0.2701 -1.6884 -0.6559
 3454TIP3   OH210314   3.243   4.845   5.879  0.0889 -0.3432  0.0740
 3454TIP3    H110315   3.255   4.862   5.973  1.4666 -0.5343 -0.0467
 3454TIP3    H210316   3.325   4.803   5.852  0.6249  1.7130 -1.6778
 3455TIP3   OH210317   6.459   3.370   0.713 -0.6839  0.2345  0.3124
 3455TIP3    H110318   6.492   3.403   0.629  1.1848  0.3294  1.0393
 3455TIP3    H210319   6.407   3.442   0.748 -0.2185  0.7787 -0.0984
 3456TIP3   OH210320   6.336   3.006   4.014 -0.8306  0.3348 -0.4165
 3456TIP3    H110321   6.317   2.914   4.033 -1.0382  0.4443 -0.0791
 3456TIP3    H210322   6.428   3.007   3.988 -0.5609  0.1594  0.4937
 3457TIP3   OH210323   2.915   2.214   4.815 -0.2042  0.6378  0.1720
 3457TIP3    H110324   2.993   2.269   4.822 -0.7063  1.1558  1.8023
 3457TIP3    H210325   2.847   2.273   4.785 -0.1668  0.3465 -0.5075
 3458TIP3   OH210326   3.948   3.063   4.203  0.4433  0.0308 -0.0898
 3458TIP3    H110327   3.861   3.095   4.179 -0.0829 -0.2716  1.3581
 3458TIP3    H210328   3.970   3.000   4.135 -0.6995 -0.2704 -0.1955
 3459TIP3   OH210329   3.648   3.638   3.560 -0.6075  0.1725 -0.1252
 3459TIP3    H110330   3.716   3.596   3.506 -0.0162 -0.4568  1.0716
 3459TIP3    H210331   3.686   3.722   3.585  0.1158 -0.5332  1.2437
 3460TIP3   OH210332   3.610   3.881   0.243  0.0887  0.1338 -0.3319
 3460TIP3    H110333   3.695   3.842   0.261 -0.0250  0.3088  0.6328
 3460TIP3    H210334   3.566   3.884   0.328 -0.6828  0.5134 -0.7308
 3461TIP3   OH210335   1.736   3.354   3.828 -0.9632  0.1027  0.0352
 3461TIP3    H110336   1.668   3.325   3.889  0.3146 -1.5180  0.7256
 3461TIP3    H210337   1.808   3.382   3.885  0.9121 -3.0232 -0.6936
 3462TIP3   OH210338   3.781   2.678   2.366 -0.1616 -0.2483 -0.3269
 3462TIP3    H110339   3.772   2.591   2.404  1.5028  0.5533  2.0679
 3462TIP3    H210340   3.875   2.691   2.357 -0.3848  1.2903 -0.6820
 3463TIP3   OH210341   6.581   5.144   3.853  0.0817 -0.7281 -0.3553
 3463TIP3    H110342   6.584   5.188   3.768  3.2456  0.6409  0.4039
 3463TIP3    H210343   6.543   5.208   3.912  1.2151 -0.3645 -0.0149
 3464TIP3   OH210344   5.403   4.735   1.855  0.1512 -0.4067 -0.8040
 3464TIP3    H110345   5.391   4.689   1.939 -1.0435  0.6016 -0.4137
 3464TIP3    H210346   5.439   4.820   1.880 -0.2821 -0.0777 -1.3089
 3465TIP3   OH210347   5.770   3.109   1.570  0.0409  0.0909 -0.2292
 3465TIP3    H110348   5.813   3.036   1.615 -3.8766 -0.8512  2.2751
 3465TIP3    H210349   5.815   3.187   1.603  1.8356 -0.9697 -0.0995
 3466TIP3   OH210350   3.001   3.056   1.118  0.3906 -0.2251  0.4929
 3466TIP3    H110351   2.982   2.970   1.082  0.2242  0.0321 -0.0388
 3466TIP3    H210352   3.024   3.040   1.209 -0.2635 -0.7656  0.5627
 3467TIP3   OH210353   6.002   3.526   0.858 -0.1314 -0.1862  0.3008
 3467TIP3    H110354   6.085   3.566   0.830 -0.8013 -0.1856 -1.7241
 3467TIP3    H210355   5.983   3.568   0.942  1.5730  0.3273  0.4476
 3468TIP3   OH210356   3.896   4.752   1.101 -0.4069 -0.9242 -0.5936
 3468TIP3    H110357   3.852   4.668   1.108 -2.6739  0.0801 -1.9711
 3468TIP3    H210358   3.944   4.747   1.018 -0.6960 -0.8333 -0.7716
 3469TIP3   OH210359   7.219   5.066   3.244  0.3563  0.5190  0.0478
 3469TIP3    H110360   7.172   5.010   3.306  2.1018  0.1069  1.0477
 3469TIP3    H210361   7.167   5.146   3.239 -0.2524  0.2132  1.3966
 3470TIP3   OH210362   2.982   4.154   4.307 -0.3305 -0.3188  0.1514
 3470TIP3    H110363   2.896   4.176   4.271 -0.0797  1.4010  0.5652
 3470TIP3    H210364   3.044   4.204   4.254  0.2563  0.0388  1.1689
 3471TIP3   OH210365   1.957   2.608   2.390 -0.2846 -0.2518  0.5855
 3471TIP3    H110366   1.907   2.564   2.321 -1.1014 -0.4082  1.2723
 3471TIP3    H210367   1.956   2.546   2.463 -0.6418  0.5094  1.2308
 3472TIP3   OH210368   5.114   4.154   2.315  0.4561 -0.1056 -0.7150
 3472TIP3    H110369   5.115   4.204   2.397 -0.1294 -0.7800 -0.2932
 3472TIP3    H210370   5.023   4.123   2.307  0.2906  0.7080 -2.0766
 3473TIP3   OH210371   3.900   5.603   3.158  0.5058  0.5292 -0.0357
 3473TIP3    H110372   3.952   5.524   3.144  0.1995  0.5197 -1.1934
 3473TIP3    H210373   3.856   5.617   3.074  0.5758  1.9379  0.1587
 3474TIP3   OH210374   5.330   4.239   1.901  0.1797  0.0956 -1.1145
 3474TIP3    H110375   5.259   4.283   1.949  0.2815  0.9214 -1.7079
 3474TIP3    H210376   5.389   4.208   1.969 -0.0461  0.6264 -0.6695
 3475TIP3   OH210377   4.386   2.254   3.167  0.2425  0.3774 -0.1284
 3475TIP3    H110378   4.461   2.290   3.121  0.5525 -0.3418 -0.1923
 3475TIP3    H210379   4.407   2.263   3.259  0.0131  0.9913 -0.1315
 3476TIP3   OH210380   3.372   3.230   2.793  0.1982  0.3830  0.5681
 3476TIP3    H110381   3.292   3.234   2.741 -0.4483 -2.6042  1.2225
 3476TIP3    H210382   3.348   3.179   2.870  2.8803 -1.1381  0.4650
 3477TIP3   OH210383   4.467   5.246   2.741 -0.1684 -0.5565 -0.0539
 3477TIP3    H110384   4.389   5.298   2.760  0.2031  1.0524 -2.7461
 3477TIP3    H210385   4.493   5.210   2.826 -0.8798  3.0213  1.7539
 3478TIP3   OH210386   0.572   1.722   2.870 -0.4613 -0.0477 -0.0514
 3478TIP3    H110387   0.656   1.710   2.824 -0.5387  0.0039 -0.2060
 3478TIP3    H210388   0.557   1.639   2.915  0.5427  0.5356  1.4101
 3479TIP3   OH210389   5.553   4.564   2.942  0.2533  0.2181  0.7419
 3479TIP3    H110390   5.543   4.612   3.024  0.4323 -0.4735  1.1708
 3479TIP3    H210391   5.646   4.575   2.919  0.1530  0.5976  0.5168
 3480TIP3   OH210392   3.506   3.298   3.649  0.6077 -0.0664  0.2502
 3480TIP3    H110393   3.587   3.325   3.605  0.1107  0.2374 -0.5004
 3480TIP3    H210394   3.500   3.355   3.725  0.4669  0.7721 -0.3749
 3481TIP3   OH210395   3.400   4.556   5.104 -0.5926  0.9296  0.1677
 3481TIP3    H110396   3.485   4.598   5.094 -0.5530  1.1510  1.2878
 3481TIP3    H210397   3.405   4.477   5.051 -0.2015  1.6626 -0.9152
 3482TIP3   OH210398   3.104   2.579   1.844 -0.3067  0.2157  0.3653
 3482TIP3    H110399   3.143   2.658   1.805  0.4065 -0.1639  0.3096
 3482TIP3    H210400   3.011   2.601   1.853  0.1604  1.6580  1.8092
 3483TIP3   OH210401   3.397   5.643   3.906  0.5456  0.2011 -0.5777
 3483TIP3    H110402   3.488   5.647   3.936 -0.0685  1.3040  1.2353
 3483TIP3    H210403   3.380   5.728   3.868  0.6977 -0.5118 -2.2755
 3484TIP3   OH210404   1.839   3.484   1.667 -0.3658 -0.0699 -0.9637
 3484TIP3    H110405   1.932   3.497   1.648  0.2930 -2.2777  0.5947
 3484TIP3    H210406   1.813   3.414   1.608 -0.7149 -0.3553 -0.4657
 3485TIP3   OH210407   4.061   4.044   0.530 -0.1587 -0.2358  0.2921
 3485TIP3    H110408   4.050   4.025   0.436 -1.8070 -2.1411  0.8514
 3485TIP3    H210409   4.127   3.981   0.559 -0.0089  0.0298  0.5276
 3486TIP3   OH210410   2.462   5.348   2.909 -0.6921 -0.4584 -0.3361
 3486TIP3    H110411   2.420   5.333   2.993 -2.3132  0.0627 -1.0342
 3486TIP3    H210412   2.555   5.360   2.930 -1.0431 -0.5717  1.3357
 3487TIP3   OH210413   2.889   1.242   2.366  0.5220 -0.3397 -0.2659
 3487TIP3    H110414   2.854   1.167   2.413  1.3523 -1.2258 -1.0241
 3487TIP3    H210415   2.923   1.205   2.284  0.5849  0.9183 -0.8222
 3488TIP3   OH210416   4.633   2.877   1.828 -0.2324 -0.3379  0.7641
 3488TIP3    H110417   4.665   2.896   1.740 -1.7099 -2.2865 -0.2271
 3488TIP3    H210418   4.684   2.801   1.856 -0.4866 -0.3643  1.1537
 3489TIP3   OH210419   4.657   3.778   1.972  0.6870  0.5302 -0.0946
 3489TIP3    H110420   4.569   3.801   1.942 -0.2233 -1.3837  1.0502
 3489TIP3    H210421   4.704   3.755   1.892 -0.0371  0.9107 -0.6410
 3490TIP3   OH210422   3.347   4.145   2.792  0.2871  0.3153  0.2223
 3490TIP3    H110423   3.335   4.154   2.697 -1.0093 -0.1834  0.3257
 3490TIP3    H210424   3.342   4.050   2.807 -0.0400  0.4319  0.8512
 3491TIP3   OH210425   2.558   2.733   2.021  0.2588  0.2532 -0.5180
 3491TIP3    H110426   2.554   2.638   2.037  0.2267  0.7138  2.4186
 3491TIP3    H210427   2.632   2.763   2.073 -0.1935  1.9670 -0.8537
 3492TIP3   OH210428   2.812   5.371   2.638 -0.1978 -0.5561 -0.5512
 3492TIP3    H110429   2.854   5.311   2.576 -0.2335 -2.0756  0.8547
 3492TIP3    H210430   2.854   5.455   2.621  2.9113 -1.8594  0.2682
 3493TIP3   OH210431   2.384   4.080   2.115  0.4118 -0.0272  0.3504
 3493TIP3    H110432   2.472   4.050   2.091  0.6513  1.6120 -0.9096
 3493TIP3    H210433   2.375   4.057   2.208  2.0194 -0.5644  0.3845
 3494TIP3   OH210434   3.767   0.960   4.617  0.0405  0.0362 -0.5673
 3494TIP3    H110435   3.711   0.898   4.663  1.8051  0.3821  2.1414
 3494TIP3    H210436   3.723   1.044   4.627 -0.2596 -0.1011 -0.7080
 3495TIP3   OH210437   3.388   2.964   4.261 -0.0218 -0.1533 -0.4068
 3495TIP3    H110438   3.415   2.879   4.295 -0.9363 -0.2946 -0.0317
 3495TIP3    H210439   3.470   3.006   4.234  0.5988 -0.5145  0.8593
 3496TIP3   OH210440   0.397   5.127   0.487  0.0088 -0.1226  0.5026
 3496TIP3    H110441   0.449   5.164   0.559  0.7455 -1.9842  0.9406
 3496TIP3    H210442   0.461   5.095   0.424 -0.6072 -1.4992  0.5671
 3497TIP3   OH210443   2.484   4.137   2.739  0.1505  0.0813 -0.1774
 3497TIP3    H110444   2.416   4.071   2.727 -1.1203  1.4738 -0.8340
 3497TIP3    H210445   2.535   4.105   2.814 -0.3448 -1.6899 -0.5650
 3498TIP3   OH210446   2.975   4.882   2.299 -0.0497  0.2029 -0.3084
 3498TIP3    H110447   3.034   4.946   2.341  0.1038  0.3469 -0.7455
 3498TIP3    H210448   2.929   4.841   2.373  1.0345 -0.3390  0.0838
 3499TIP3   OH210449   3.360   5.609   1.442  0.6964 -0.3565  0.0368
 3499TIP3    H110450   3.395   5.632   1.528  2.2807 -2.2425 -0.0549
 3499TIP3    H210451   3.374   5.686   1.388  1.4533  0.1702  0.9766
 3500TIP3   OH210452   5.847   2.740   2.438 -0.2706 -0.8416  0.0508
 3500TIP3    H110453   5.817   2.655   2.470  1.4738 -1.4005  0.2397
 3500TIP3    H210454   5.926   2.759   2.489 -0.5766  0.8296 -0.0762
 3501TIP3   OH210455   3.154   3.422   1.106  1.0863  0.1497  0.0568
 3501TIP3    H110456   3.159   3.454   1.196  0.1351  0.6789 -0.0810
 3501TIP3    H210457   3.238   3.448   1.067  1.3895  0.1573  0.6987
 3502TIP3   OH210458   5.928   4.825   0.241 -0.1545 -0.0878 -0.0808
 3502TIP3    H110459   6.004   4.878   0.267 -1.7106  1.2303  1.8551
 3502TIP3    H210460   5.899   4.782   0.321 -1.4317 -0.6345 -0.8166
 3503TIP3   OH210461   3.892   3.818   3.600 -0.1252  0.1896  0.0702
 3503TIP3    H110462   3.953   3.745   3.612 -1.3363 -0.7175  0.7336
 3503TIP3    H210463   3.897   3.866   3.683 -0.6492 -0.1436  0.2962
 3504TIP3   OH210464   3.364   4.192   3.843  0.3465  0.5983 -0.6810
 3504TIP3    H110465   3.364   4.159   3.933 -0.4557 -0.0449 -0.9109
 3504TIP3    H210466   3.271   4.207   3.823  0.4084 -0.4318 -1.8107
 3505TIP3   OH210467   3.510   3.729   3.100 -1.0764  0.0482 -0.0617
 3505TIP3    H110468   3.582   3.773   3.055  1.4640 -1.2772  2.5472
 3505TIP3    H210469   3.525   3.636   3.083 -0.4277 -0.4313  2.8755
 3506TIP3   OH210470   6.611   2.770   2.220 -0.3234 -0.5875  0.0776
 3506TIP3    H110471   6.518   2.771   2.241 -0.6252  1.4607 -1.2998
 3506TIP3    H210472   6.628   2.679   2.194 -1.7774 -1.1410  1.0141
 3507TIP3   OH210473   7.616   5.945   3.293  0.4659 -0.7847 -0.3572
 3507TIP3    H110474   7.540   5.891   3.272  0.5136 -0.6831 -0.7875
 3507TIP3    H210475   7.669   5.944   3.213  0.3908  0.0328 -0.4128
 3508TIP3   OH210476   6.239   5.944   6.250 -0.1207  0.4036 -0.3813
 3508TIP3    H110477   6.191   5.981   6.176 -0.0358  0.1584 -0.5610
 3508TIP3    H210478   6.182   5.958   6.325  0.3591  1.8181 -0.2777
 3509TIP3   OH210479   2.884   2.974   3.433  0.2069  0.6597 -0.1139
 3509TIP3    H110480   2.867   3.008   3.521 -2.4857 -1.8683  0.4280
 3509TIP3    H210481   2.810   3.004   3.381  0.1326 -0.5385 -0.7133
 3510TIP3   OH210482   2.188   4.356   2.922 -0.0126 -0.1866  0.7011
 3510TIP3    H110483   2.130   4.305   2.978 -0.8822 -1.9377 -1.7158
 3510TIP3    H210484   2.239   4.291   2.874 -0.2683  1.1975 -1.5323
 3511TIP3   OH210485   4.716   4.660   1.178  0.3829  0.2687 -0.8014
 3511TIP3    H110486   4.791   4.666   1.119  1.9045 -0.4802  1.0074
 3511TIP3    H210487   4.728   4.733   1.240 -1.3311  1.2034 -1.5270
 3512TIP3   OH210488   2.986   5.701   0.531  0.0929 -0.5116 -0.6023
 3512TIP3    H110489   2.926   5.744   0.592  1.4231  0.1384  0.2820
 3512TIP3    H210490   3.007   5.617   0.572  1.6547  0.2872  0.2827
 3513TIP3   OH210491   3.152   5.119   0.400  0.0563 -0.8453 -0.1993
 3513TIP3    H110492   3.126   5.198   0.448  1.5493 -0.6456  0.3220
 3513TIP3    H210493   3.129   5.047   0.459 -1.0864 -0.7912 -0.5715
 3514TIP3   OH210494   6.922   6.451   6.310 -0.2666  0.4205 -0.4783
 3514TIP3    H110495   6.835   6.455   6.351 -0.4240  0.4998 -0.8167
 3514TIP3    H210496   6.940   6.541   6.284 -0.3760  0.2846 -1.0174
 3515TIP3   OH210497   2.219   3.193   2.117 -0.3219  0.1849 -0.3651
 3515TIP3    H110498   2.275   3.149   2.053 -1.6139 -1.1272 -0.6127
 3515TIP3    H210499   2.224   3.137   2.195  0.9626  1.5851  0.5877
 3516TIP3   OH210500   0.369   1.289   6.345  0.4401 -0.9882  0.3238
 3516TIP3    H110501   0.336   1.228   6.278  0.2355 -0.3567 -0.1519
 3516TIP3    H210502   0.290   1.328   6.383  0.5249 -1.8639  1.4354
 3517TIP3   OH210503   4.627   4.632   0.901  0.6460  0.4837 -0.5899
 3517TIP3    H110504   4.644   4.615   0.993  0.3905 -1.1681 -0.8332
 3517TIP3    H210505   4.636   4.727   0.892 -0.0301  0.7414  1.2602
 3518TIP3   OH210506   5.036   3.625   1.485 -0.0854  0.2407  0.6987
 3518TIP3    H110507   5.027   3.550   1.545  0.0418  0.4624  0.9950
 3518TIP3    H210508   5.099   3.682   1.528 -0.2138  0.5392  0.4912
 3519TIP3   OH210509   4.594   2.938   4.175 -0.2460  0.0292  0.1579
 3519TIP3    H110510   4.684   2.906   4.187 -0.0821  0.2262 -0.5103
 3519TIP3    H210511   4.552   2.872   4.120 -0.7410 -0.4477  1.1001
 3520TIP3   OH210512   6.475   6.866   6.330  0.3967 -0.1787 -0.0051
 3520TIP3    H110513   6.386   6.888   6.359  0.6553 -0.2829  0.8715
 3520TIP3    H210514   6.475   6.771   6.320 -0.0663 -0.0221 -1.6165
 3521TIP3   OH210515   5.848   3.414   1.126 -0.0126 -0.1655  0.3877
 3521TIP3    H110516   5.909   3.349   1.092 -0.1038  0.3164 -0.7238
 3521TIP3    H210517   5.787   3.364   1.180  0.0523 -0.9750 -0.2684
 3522TIP3   OH210518   2.245   3.289   0.488 -0.1616 -0.3881  0.5449
 3522TIP3    H110519   2.299   3.264   0.413  0.3920 -1.7169  1.3623
 3522TIP3    H210520   2.268   3.380   0.506  1.2969 -0.7326  0.4654
 3523TIP3   OH210521   2.914   6.110   1.501 -0.1724 -0.2390  0.7898
 3523TIP3    H110522   2.906   6.058   1.421 -1.0782 -1.9616  1.9621
 3523TIP3    H210523   2.824   6.118   1.533  0.0281  1.5326  0.9800
 3524TIP3   OH210524   3.428   2.708   0.240  0.4128  0.1837  0.1724
 3524TIP3    H110525   3.503   2.740   0.290  0.9684 -1.8611  0.6862
 3524TIP3    H210526   3.442   2.613   0.232 -0.0778  0.3112 -3.1685
 3525TIP3   OH210527   4.619   4.048   0.139 -0.5444  0.2606 -0.3261
 3525TIP3    H110528   4.549   4.057   0.074 -1.4622 -0.2048  0.5852
 3525TIP3    H210529   4.573   4.029   0.221  0.6784 -0.4910  0.1965
 3526TIP3   OH210530   3.892   3.426   2.394  0.1685 -1.1665 -0.6009
 3526TIP3    H110531   3.863   3.347   2.347 -1.2441 -0.3928 -1.0503
 3526TIP3    H210532   3.900   3.493   2.326 -1.5180 -0.1402  0.1707
 3527TIP3   OH210533   4.585   4.111   1.778  0.3294  0.1769 -0.0040
 3527TIP3    H110534   4.497   4.084   1.753  0.0568 -1.3497  2.5193
 3527TIP3    H210535   4.583   4.207   1.774 -1.7122  0.1862  0.8693
 3528TIP3   OH210536   3.368   1.490   1.683  0.1063 -0.1178  0.0565
 3528TIP3    H110537   3.391   1.414   1.630 -1.2139 -0.5266  0.0513
 3528TIP3    H210538   3.275   1.503   1.668  0.6128  2.4801 -1.1883
 3529TIP3   OH210539   3.621   6.139   1.842 -0.4478 -0.3295 -0.1308
 3529TIP3    H110540   3.657   6.065   1.794 -1.7101 -2.2053  1.7530
 3529TIP3    H210541   3.530   6.145   1.811 -0.4584  0.1896  0.0020
 3530TIP3   OH210542   3.352   0.684   1.667  0.4070  0.4880 -0.7105
 3530TIP3    H110543   3.265   0.711   1.637 -0.4132 -1.9142 -0.6369
 3530TIP3    H210544   3.364   0.729   1.750 -1.0509  0.3344 -0.3974
 3531TIP3   OH210545   2.098   3.614   1.582 -0.4913  0.0190 -0.1837
 3531TIP3    H110546   2.101   3.657   1.667  0.0733  1.9131 -1.1334
 3531TIP3    H210547   2.047   3.673   1.527 -3.3472 -2.5572 -0.4342
 3532TIP3   OH210548   4.240   2.548   3.350 -0.4543  0.2382 -0.8441
 3532TIP3    H110549   4.265   2.477   3.291  0.2654  0.2066 -0.5001
 3532TIP3    H210550   4.163   2.588   3.309 -0.9780 -0.8582 -0.9486
 3533TIP3   OH210551   6.180   2.595   3.153 -0.5027  0.1304 -0.2757
 3533TIP3    H110552   6.152   2.505   3.173 -0.6863  0.0820 -0.7522
 3533TIP3    H210553   6.230   2.587   3.072  1.3545  0.1313  0.8171
 3534TIP3   OH210554   2.670   4.716   2.148  0.0760 -0.1578  0.1253
 3534TIP3    H110555   2.587   4.709   2.100  1.2331  1.1716 -2.1881
 3534TIP3    H210556   2.645   4.741   2.237 -2.0631 -1.1067 -0.1790
 3535TIP3   OH210557   3.167   2.208   2.145  0.8005  0.0274  0.1906
 3535TIP3    H110558   3.073   2.224   2.145  0.9596  1.0659  1.1085
 3535TIP3    H210559   3.203   2.271   2.083  0.8995 -0.3480 -0.1376
 3536TIP3   OH210560   2.192   4.145   1.378 -0.4654 -0.4325 -0.4996
 3536TIP3    H110561   2.257   4.212   1.394 -1.1761  0.3793 -0.9508
 3536TIP3    H210562   2.162   4.119   1.466 -0.4111  0.0593 -0.3344
 3537TIP3   OH210563   3.661   4.291   3.205 -0.0815  0.1524 -0.5250
 3537TIP3    H110564   3.606   4.229   3.253 -1.7210  1.4717 -0.6529
 3537TIP3    H210565   3.711   4.236   3.144  0.5799 -1.3263  1.2848
 3538TIP3   OH210566   3.822   3.707   0.282 -0.5838 -0.0725 -0.2431
 3538TIP3    H110567   3.863   3.625   0.252 -1.3071 -1.0023  1.2730
 3538TIP3    H210568   3.824   3.701   0.377 -0.5876  1.7219 -0.1288
 3539TIP3   OH210569   3.999   5.029   4.026 -0.2253  0.0817  0.0523
 3539TIP3    H110570   4.000   5.024   3.930  0.5994 -0.3107  0.0725
 3539TIP3    H210571   3.912   4.997   4.051 -0.6306  0.6856 -0.5899
 3540TIP3   OH210572   4.314   3.886   4.668  0.5608  0.4764  0.0187
 3540TIP3    H110573   4.261   3.809   4.685  1.4589  0.1216  1.2743
 3540TIP3    H210574   4.362   3.865   4.587 -1.1362  0.7840 -1.0953
 3541TIP3   OH210575   3.691   4.029   3.466 -0.7608  0.4237  0.0935
 3541TIP3    H110576   3.690   3.956   3.528 -2.4161 -0.7562 -1.2716
 3541TIP3    H210577   3.754   4.002   3.399 -0.9987  0.4661 -0.1489
 3542TIP3   OH210578   3.328   3.055   2.353 -0.0804  0.0113  0.0946
 3542TIP3    H110579   3.332   3.027   2.262 -0.5359 -1.5517  0.5392
 3542TIP3    H210580   3.312   2.975   2.402  0.8480  0.7229  1.6196
 3543TIP3   OH210581   0.755   1.147   5.403  0.2261  0.0786 -0.4620
 3543TIP3    H110582   0.692   1.123   5.334 -0.0722  0.0851 -0.1961
 3543TIP3    H210583   0.834   1.171   5.356  0.0724 -0.0646 -0.7988
 3544TIP3   OH210584   4.304   4.548   1.414 -0.2830 -0.3053 -0.0705
 3544TIP3    H110585   4.210   4.555   1.431 -0.4340 -0.4214 -0.8483
 3544TIP3    H210586   4.312   4.480   1.348  0.5371 -1.7873  1.5169
 3545TIP3   OH210587   5.537   4.086   2.860 -0.6499  0.9722 -0.1781
 3545TIP3    H110588   5.489   4.167   2.877 -2.0374  0.7585 -2.8941
 3545TIP3    H210589   5.479   4.034   2.804  0.8036 -1.3270  0.3497
 3546TIP3   OH210590   4.753   4.933   2.255  0.1884 -0.5109  0.1976
 3546TIP3    H110591   4.664   4.900   2.248 -0.2769  0.8884 -0.7135
 3546TIP3    H210592   4.808   4.855   2.261 -0.9342 -1.4211 -1.2987
 3547TIP3   OH210593   2.377   3.029   0.218 -0.2437  0.1999 -0.3594
 3547TIP3    H110594   2.463   2.993   0.194 -1.5131 -1.2708 -2.9862
 3547TIP3    H210595   2.393   3.122   0.229  1.5782  0.0597 -1.5288
 3548TIP3   OH210596   2.762   4.627   3.449 -0.2022  0.1630 -0.1579
 3548TIP3    H110597   2.764   4.721   3.465 -0.0635  0.2246 -0.5167
 3548TIP3    H210598   2.836   4.592   3.498  0.9775  0.5119 -1.6528
 3549TIP3   OH210599   3.651   4.797   3.903  0.5834  0.0198  0.7160
 3549TIP3    H110600   3.705   4.855   3.957  1.1957 -0.0323  0.1657
 3549TIP3    H210601   3.657   4.712   3.946 -0.0605  0.2829  1.3457
 3550TIP3   OH210602   2.850   2.048   0.609 -0.0897  0.0728 -0.3475
 3550TIP3    H110603   2.849   2.119   0.545 -0.6292  0.9585  0.6332
 3550TIP3    H210604   2.769   1.999   0.591  0.3022 -0.3297 -1.0483
 3551TIP3   OH210605   6.345   3.349   2.937  0.2939  0.5933  0.0843
 3551TIP3    H110606   6.336   3.308   3.023 -2.0932 -1.3242 -1.0073
 3551TIP3    H210607   6.438   3.337   2.914  0.4231 -1.0207  1.3614
 3552TIP3   OH210608   4.037   3.611   4.343  0.0838 -0.1747  0.1068
 3552TIP3    H110609   4.038   3.703   4.315  0.8191  0.2486  1.4659
 3552TIP3    H210610   4.046   3.561   4.262  1.3095  1.0117 -0.5142
 3553TIP3   OH210611   3.099   3.052   2.570  0.4581  0.1500 -0.5517
 3553TIP3    H110612   3.078   2.961   2.588 -1.8892  0.7180 -0.2474
 3553TIP3    H210613   3.072   3.065   2.479  0.5372  0.6144 -0.5090
 3554TIP3   OH210614   2.677   2.867   0.944 -0.2098 -0.4121  0.2541
 3554TIP3    H110615   2.592   2.824   0.953 -0.9018  0.8978  0.0856
 3554TIP3    H210616   2.663   2.955   0.980  1.0759 -0.1848  0.2222
 3555TIP3   OH210617   4.932   5.103   3.326 -0.1593  0.5953  0.3738
 3555TIP3    H110618   4.902   5.133   3.240  0.4208  0.5028  0.1340
 3555TIP3    H210619   4.855   5.063   3.366  0.0644 -1.2408 -0.9557
 3556TIP3   OH210620   3.640   6.638   4.000  0.4688 -0.1372  0.2433
 3556TIP3    H110621   3.654   6.704   4.069 -2.2143 -0.6997  1.4030
 3556TIP3    H210622   3.713   6.651   3.940  1.0372  2.6540  1.4208
 3557TIP3   OH210623   1.746   5.108   1.902 -0.3558 -0.0511 -0.4174
 3557TIP3    H110624   1.709   5.062   1.977  1.2526  0.0524  0.4706
 3557TIP3    H210625   1.729   5.050   1.828  2.9524 -2.8917  0.8925
 3558TIP3   OH210626   3.718   2.602   3.525  0.7902 -0.0847 -0.5686
 3558TIP3    H110627   3.710   2.544   3.600  1.4227 -0.9583 -1.1762
 3558TIP3    H210628   3.792   2.659   3.547  0.8566 -0.2183 -0.4464
 3559TIP3   OH210629   5.063   0.080   1.964 -0.4410 -0.0302  0.0654
 3559TIP3    H110630   5.038   0.049   1.877  0.1458  2.6039 -1.0929
 3559TIP3    H210631   5.158   0.069   1.967 -0.3374  0.8559 -0.0163
 3560TIP3   OH210632   3.290   0.276   4.305 -0.1475 -0.7514 -0.5138
 3560TIP3    H110633   3.313   0.253   4.215  0.9298 -0.1865 -0.3916
 3560TIP3    H210634   3.373   0.302   4.345 -0.9523  1.0228  0.0377
 3561TIP3   OH210635   3.300   3.278   3.258 -0.4929  0.3111  0.1768
 3561TIP3    H110636   3.280   3.236   3.341  1.3388  0.1956  0.5746
 3561TIP3    H210637   3.272   3.369   3.270 -2.5896 -0.2657  0.0072
 3562TIP3   OH210638   2.167   2.873   2.715 -0.8814 -0.0688  0.1844
 3562TIP3    H110639   2.251   2.831   2.697 -0.5542 -0.6030  2.7738
 3562TIP3    H210640   2.185   2.966   2.714 -0.0213 -0.2020  1.6803
 3563TIP3   OH210641   2.862   5.997   2.020  0.1237 -0.0160 -0.7166
 3563TIP3    H110642   2.884   5.972   1.930  2.2639 -1.1325  0.0807
 3563TIP3    H210643   2.814   5.921   2.053 -0.9974  0.5495 -1.0084
 3564TIP3   OH210644   5.852   4.362   2.439 -0.0107 -0.5217 -0.7048
 3564TIP3    H110645   5.758   4.345   2.431 -0.4088  0.8987  0.6031
 3564TIP3    H210646   5.885   4.288   2.490 -1.2712  1.1813  2.7669
 3565TIP3   OH210647   2.395   2.243   4.170  0.5346 -0.0961 -0.6422
 3565TIP3    H110648   2.361   2.241   4.081 -0.6436  2.5947 -0.2965
 3565TIP3    H210649   2.455   2.168   4.175 -1.8068 -2.1912 -2.6934
 3566TIP3   OH210650   4.318   2.299   4.524 -0.6059  0.4418  0.1349
 3566TIP3    H110651   4.399   2.298   4.474 -0.2652 -0.2197  0.6952
 3566TIP3    H210652   4.275   2.217   4.501 -0.8631  0.5408  0.2600
 3567TIP3   OH210653   3.615   3.569   4.645  0.1603 -0.1898 -0.0045
 3567TIP3    H110654   3.552   3.515   4.597 -1.2191 -0.0430  1.5796
 3567TIP3    H210655   3.695   3.567   4.592 -0.1749 -2.9659 -0.4537
 3568TIP3   OH210656   2.042   5.530   0.869  0.3900 -0.5421 -0.2212
 3568TIP3    H110657   2.077   5.619   0.860 -2.3705  0.7943  1.8113
 3568TIP3    H210658   2.119   5.476   0.888  1.8057  1.7937  0.8804
 3569TIP3   OH210659   7.518   3.963   0.964 -0.4705 -0.3530 -0.4200
 3569TIP3    H110660   7.518   3.870   0.986 -0.5299 -0.0341  0.9852
 3569TIP3    H210661   7.572   3.969   0.885 -0.7916 -1.6251 -0.7387
 3570TIP3   OH210662   3.735   5.123   2.109 -0.3163  0.2192  0.3144
 3570TIP3    H110663   3.676   5.054   2.140 -1.6603  1.2049 -0.0012
 3570TIP3    H210664   3.704   5.144   2.021  1.3339 -0.1630 -0.3695
 3571TIP3   OH210665   2.272   2.271   1.765 -0.4280 -0.2522  0.2958
 3571TIP3    H110666   2.334   2.322   1.713 -1.0024  0.8048  0.6102
 3571TIP3    H210667   2.266   2.187   1.721  0.7042 -0.1179 -0.1232
 3572TIP3   OH210668   4.115   3.267   3.089  0.7455 -0.4907 -0.2008
 3572TIP3    H110669   4.171   3.197   3.056 -1.4910 -2.3919 -0.0465
 3572TIP3    H210670   4.042   3.271   3.027  0.3529  1.0713  0.3280
 3573TIP3   OH210671   7.381   3.742   2.471 -0.2641  0.5408  0.3769
 3573TIP3    H110672   7.436   3.663   2.467 -0.9927  0.0363  0.1986
 3573TIP3    H210673   7.436   3.811   2.434  0.4744  0.1773  0.7612
 3574TIP3   OH210674   6.540   3.599   4.331  0.3440  0.2093 -0.0299
 3574TIP3    H110675   6.524   3.598   4.236 -0.8079 -0.9594  0.1576
 3574TIP3    H210676   6.454   3.584   4.369  0.9624 -0.2527  1.1891
 3575TIP3   OH210677   6.904   2.503   1.720 -0.2978 -0.0750  0.2140
 3575TIP3    H110678   6.816   2.467   1.703 -0.1500 -2.0466  3.2659
 3575TIP3    H210679   6.964   2.438   1.684 -0.0561  0.2635  0.0016
 3576TIP3   OH210680   3.323   1.547   2.103 -0.3141  0.2095  0.5023
 3576TIP3    H110681   3.270   1.614   2.060  1.4036  0.0202 -2.0009
 3576TIP3    H210682   3.382   1.595   2.160 -0.6646  0.6803  0.4669
 3577TIP3   OH210683   4.209   1.450   2.703  0.0880 -0.3304 -0.5393
 3577TIP3    H110684   4.189   1.537   2.670 -0.6545 -0.2137  0.2119
 3577TIP3    H210685   4.280   1.418   2.646  0.3436  0.7448 -0.8286
 3578TIP3   OH210686   4.912   4.467   3.406 -0.5678 -0.0442  0.0535
 3578TIP3    H110687   4.824   4.467   3.370 -0.4068 -2.6287 -0.4601
 3578TIP3    H210688   4.970   4.469   3.329 -0.2105 -1.0673  0.2815
 3579TIP3   OH210689   5.147   3.047   0.226  0.0661 -0.3451 -0.0135
 3579TIP3    H110690   5.210   2.991   0.272 -1.2388 -1.4609  0.4493
 3579TIP3    H210691   5.115   3.107   0.293 -0.4395 -0.7370  0.0994
 3580TIP3   OH210692   6.198   2.961   1.776  0.0047  0.5150 -0.0265
 3580TIP3    H110693   6.150   2.880   1.795  0.2143  0.7650  1.6171
 3580TIP3    H210694   6.165   2.989   1.691 -0.8597 -0.7289 -0.1071
 3581TIP3   OH210695   1.992   3.687   2.579 -0.3441  0.3516 -0.1661
 3581TIP3    H110696   1.932   3.619   2.548 -0.1375 -0.2281  0.6932
 3581TIP3    H210697   1.958   3.711   2.665  1.5203 -1.0388  0.9726
 3582TIP3   OH210698   5.664   5.194   2.588  0.0319 -0.1053  0.1318
 3582TIP3    H110699   5.651   5.286   2.565  1.8455  0.4168  1.1626
 3582TIP3    H210700   5.651   5.147   2.505  1.6999  1.3223 -0.9691
 3583TIP3   OH210701   5.873   4.423   0.881 -0.3597  0.0996 -0.2052
 3583TIP3    H110702   5.920   4.437   0.963 -1.0120  1.6332 -0.0675
 3583TIP3    H210703   5.890   4.332   0.858  2.5721  0.5782 -0.1254
 3584TIP3   OH210704   3.229   1.289   0.947  0.3641 -0.0969  0.6676
 3584TIP3    H110705   3.302   1.274   1.007  1.2554  2.5592  0.3223
 3584TIP3    H210706   3.269   1.289   0.860  0.0254  1.7049  0.4960
 3585TIP3   OH210707   2.945   3.012   3.954  0.1569 -0.1849 -0.1089
 3585TIP3    H110708   3.035   2.984   3.936 -0.5778 -1.2562 -2.3599
 3585TIP3    H210709   2.954   3.086   4.013  2.5658  0.2801 -0.9994
 3586TIP3   OH210710   3.831   3.775   1.938 -0.0375  0.0533 -0.4431
 3586TIP3    H110711   3.745   3.816   1.922 -0.2958 -0.4916 -0.4416
 3586TIP3    H210712   3.892   3.827   1.885 -0.2600  0.8727  0.0957
 3587TIP3   OH210713   3.867   2.443   3.967 -0.1000 -0.3763  0.3570
 3587TIP3    H110714   3.861   2.509   4.036 -0.5819  0.7400 -0.7422
 3587TIP3    H210715   3.961   2.426   3.958 -0.0096 -0.2234  0.9983
 3588TIP3   OH210716   4.567   3.693   4.826  0.1871  0.0967  0.0887
 3588TIP3    H110717   4.492   3.711   4.768  0.1215 -0.5870 -0.0497
 3588TIP3    H210718   4.639   3.742   4.787  0.6375 -1.9049 -1.7442
 3589TIP3   OH210719   4.309   3.329   2.535 -0.1676  0.3824 -0.0949
 3589TIP3    H110720   4.332   3.237   2.523 -0.2569  0.0860  1.7565
 3589TIP3    H210721   4.381   3.378   2.496  0.4269 -0.4983 -0.1018
 3590TIP3   OH210722   4.461   2.849   3.798 -0.4828 -0.6086 -0.6838
 3590TIP3    H110723   4.549   2.811   3.806  0.5191  1.9069  0.7853
 3590TIP3    H210724   4.458   2.883   3.709 -0.1649 -1.1117 -0.8931
 3591TIP3   OH210725   2.839   4.349   2.675 -0.3586  0.0317  0.0854
 3591TIP3    H110726   2.787   4.426   2.652 -2.3792 -0.3027  3.2669
 3591TIP3    H210727   2.858   4.360   2.768 -0.3601 -3.0848  0.5000
 3592TIP3   OH210728   6.094   4.192   1.515  0.0374 -0.1452  0.4964
 3592TIP3    H110729   6.035   4.128   1.475 -0.3969 -0.1672  1.1638
 3592TIP3    H210730   6.038   4.267   1.534  0.9937  1.4108 -2.4628
 3593TIP3   OH210731   4.468   3.491   2.349  0.0387  0.7967  0.8200
 3593TIP3    H110732   4.491   3.584   2.356 -0.4088  0.9497  0.3311
 3593TIP3    H210733   4.472   3.473   2.255  1.2578  0.0284  1.0093
 3594TIP3   OH210734   0.842   3.326   1.137 -0.0076  0.7020  0.1328
 3594TIP3    H110735   0.883   3.249   1.178 -0.0638  0.1930 -0.7553
 3594TIP3    H210736   0.902   3.398   1.157  0.1750  0.3837  0.7595
 3595TIP3   OH210737   3.370   3.127   3.032  0.1236 -0.0701 -0.2619
 3595TIP3    H110738   3.284   3.084   3.033 -0.4100  0.8650 -2.0855
 3595TIP3    H210739   3.373   3.177   3.114 -0.9005 -0.4482  0.0120
 3596TIP3   OH210740   1.793   2.422   2.196 -0.1023  0.1995 -0.7265
 3596TIP3    H110741   1.704   2.446   2.168  0.1498 -0.2736 -1.9256
 3596TIP3    H210742   1.811   2.339   2.153  0.9758  0.3544 -0.5956
 3597TIP3   OH210743   3.383   4.073   0.678 -0.0635 -0.6181  0.2335
 3597TIP3    H110744   3.467   4.087   0.722  0.5019 -2.4903 -0.2028
 3597TIP3    H210745   3.318   4.091   0.746  0.6925  0.6489  0.6348
 3598TIP3   OH210746   4.517   3.801   1.275  0.0711  0.0250 -0.2077
 3598TIP3    H110747   4.575   3.735   1.314  1.7771  1.0732 -0.9243
 3598TIP3    H210748   4.560   3.885   1.293 -2.7452  1.1381  1.9240
 3599TIP3   OH210749   3.119   4.549   3.208 -0.2584 -0.6865  0.0183
 3599TIP3    H110750   3.054   4.504   3.261 -0.0229 -0.7519  0.2503
 3599TIP3    H210751   3.136   4.631   3.254  1.1453 -1.4647  0.9029
 3600TIP3   OH210752   5.102   5.979   4.321 -0.2438  0.1809  0.1119
 3600TIP3    H110753   5.160   6.000   4.393 -1.3749 -0.9132  1.3754
 3600TIP3    H210754   5.159   5.944   4.253  0.4273 -2.3937  1.9238
 3601TIP3   OH210755   2.924   3.218   2.716  0.3214 -0.1562 -0.0297
 3601TIP3    H110756   2.947   3.214   2.809 -2.1829 -0.3995  0.6151
 3601TIP3    H210757   2.977   3.149   2.675  0.0983 -1.2764  1.5262
 3602TIP3   OH210758   2.955   4.951   2.725 -0.4322  0.3885  0.5436
 3602TIP3    H110759   2.870   4.993   2.736 -0.0650  1.2594  0.1754
 3602TIP3    H210760   2.937   4.872   2.675 -0.8840  1.1426 -0.5099
 3603TIP3   OH210761   4.846   2.523   1.242 -0.4427 -0.5575 -0.1815
 3603TIP3    H110762   4.830   2.568   1.325  0.1997 -0.7819  0.0584
 3603TIP3    H210763   4.767   2.541   1.190 -0.0700  1.0756 -0.1897
 3604TIP3   OH210764   1.884   4.237   2.473 -0.0977  0.2235  0.2288
 3604TIP3    H110765   1.811   4.186   2.507  0.3267  0.6598  1.8106
 3604TIP3    H210766   1.890   4.211   2.381 -0.7858 -1.5228  0.6537
 3605TIP3   OH210767   4.280   4.725   3.239  0.0062  0.5292  0.1734
 3605TIP3    H110768   4.205   4.755   3.290  0.4877  0.3781  0.9790
 3605TIP3    H210769   4.285   4.631   3.257  1.3763  0.8256  1.4387
 3606TIP3   OH210770   2.734   5.337   0.764  0.3770  0.7018  0.1367
 3606TIP3    H110771   2.745   5.245   0.787 -1.1149  0.0478 -1.6646
 3606TIP3    H210772   2.815   5.379   0.793  0.8140 -1.0576  1.5132
 3607TIP3   OH210773   4.251   4.492   2.573  0.3219 -0.3684 -0.4358
 3607TIP3    H110774   4.242   4.461   2.663  0.5501  0.7274 -0.0235
 3607TIP3    H210775   4.302   4.425   2.528  0.1674 -0.9376  0.2403
 3608TIP3   OH210776   2.305   4.973   1.488 -0.1013 -0.4029 -0.1660
 3608TIP3    H110777   2.296   4.897   1.546 -0.0260 -0.9921 -0.9232
 3608TIP3    H210778   2.379   5.022   1.524 -1.0469  0.0778  1.1686
 3609TIP3   OH210779   5.604   4.220   1.384 -0.2955 -0.1149 -0.2630
 3609TIP3    H110780   5.526   4.275   1.378 -0.6330 -0.6793 -1.2157
 3609TIP3    H210781   5.662   4.253   1.316 -0.5927 -1.0732 -0.9865
 3610TIP3   OH210782   4.630   3.733   2.238 -0.1131 -0.2811  0.2961
 3610TIP3    H110783   4.658   3.761   2.151 -1.6426 -0.0432 -0.1439
 3610TIP3    H210784   4.683   3.656   2.257 -1.8471 -2.1681 -2.1596
 3611TIP3   OH210785   4.041   3.582   3.089 -0.1727 -0.6176 -0.5159
 3611TIP3    H110786   4.002   3.652   3.142  1.8459 -0.8032  1.2592
 3611TIP3    H210787   4.014   3.502   3.132  0.3282 -0.8218 -0.5820
 3612TIP3   OH210788   4.276   3.630   2.972  0.3959 -0.2269  0.4724
 3612TIP3    H110789   4.265   3.656   3.063 -0.3781 -2.5796  1.0995
 3612TIP3    H210790   4.370   3.641   2.955 -0.0547  4.0325  0.2621
 3613TIP3   OH210791   2.993   2.541   2.189  0.3489  0.1001 -0.2281
 3613TIP3    H110792   2.926   2.498   2.243  0.3055  0.4552  0.0020
 3613TIP3    H210793   2.985   2.499   2.103  0.4145 -0.4620  0.0378
 3614TIP3   OH210794   3.284   1.775   1.565  0.2816  0.8320 -0.3385
 3614TIP3    H110795   3.340   1.849   1.590  0.7141  0.1332  0.7656
 3614TIP3    H210796   3.342   1.699   1.570 -0.6873  0.1529  0.4756
 3615TIP3   OH210797   4.042   1.877   2.659  0.1578 -0.0085  0.5987
 3615TIP3    H110798   4.103   1.832   2.718 -1.6188  0.7157  3.0253
 3615TIP3    H210799   4.020   1.958   2.704 -0.2507  1.1671 -1.6628
 3616TIP3   OH210800   1.778   2.910   2.040  0.3207 -0.3056 -0.0810
 3616TIP3    H110801   1.824   2.852   2.101 -0.3804 -1.0012 -0.2099
 3616TIP3    H210802   1.803   2.878   1.953 -0.1343 -0.4629 -0.1517
 3617TIP3   OH210803   4.467   2.006   2.603 -0.5631 -0.2497 -0.2495
 3617TIP3    H110804   4.459   2.032   2.511  0.6450  2.0105  0.2764
 3617TIP3    H210805   4.392   2.047   2.646  0.1106  0.5147  0.1860
 3618TIP3   OH210806   3.851   6.461   3.365  0.6802 -0.2795  0.4425
 3618TIP3    H110807   3.922   6.522   3.342  0.8167 -0.3679  0.6249
 3618TIP3    H210808   3.897   6.382   3.396  0.4946 -0.1107  1.1530
 3619TIP3   OH210809   4.053   2.700   2.403  0.1706  0.3702  0.2772
 3619TIP3    H110810   4.060   2.771   2.468  1.8696 -0.4039  0.9773
 3619TIP3    H210811   4.129   2.713   2.346  1.0601 -1.4648  1.0119
 3620TIP3   OH210812   2.443   3.071   0.732  0.3487  0.4617  0.2320
 3620TIP3    H110813   2.519   3.069   0.791  1.3065  0.8675 -0.9517
 3620TIP3    H210814   2.440   2.983   0.695  0.9860  0.7795 -0.6105
 3621TIP3   OH210815   3.805   3.401   2.655 -0.0480  0.5172  0.6323
 3621TIP3    H110816   3.860   3.417   2.579 -0.9300  1.4031  0.1695
 3621TIP3    H210817   3.716   3.422   2.626 -0.5546 -0.2837  1.5527
 3622TIP3   OH210818   4.372   3.484   0.575 -0.2750 -0.3922 -0.1515
 3622TIP3    H110819   4.396   3.533   0.653  3.1835  1.4784 -2.2694
 3622TIP3    H210820   4.381   3.392   0.601 -2.3354  0.1017  2.5194
 3623TIP3   OH210821   3.254   1.597   3.232 -0.4529 -0.0314 -0.0706
 3623TIP3    H110822   3.182   1.542   3.263 -0.5850 -0.0336 -0.3906
 3623TIP3    H210823   3.328   1.571   3.287 -0.4617 -0.6704 -0.3587
 3624TIP3   OH210824   5.070   3.822   4.045 -0.2010 -0.2476  0.0182
 3624TIP3    H110825   5.055   3.861   3.958  0.5566  1.6792  0.7084
 3624TIP3    H210826   5.002   3.756   4.054  0.3708 -1.2327 -2.4857
 3625TIP3   OH210827   4.692   2.744   3.938 -0.1438  0.6396 -0.2113
 3625TIP3    H110828   4.745   2.667   3.919  0.7876  1.0908  0.4908
 3625TIP3    H210829   4.624   2.713   3.998  0.2046  0.3490  0.0344
 3626TIP3   OH210830   4.877   3.803   3.800 -0.7488  0.3038 -0.0602
 3626TIP3    H110831   4.832   3.748   3.736  0.4174 -0.2903 -0.3833
 3626TIP3    H210832   4.880   3.890   3.761 -2.8018  0.6658  0.5485
 3627TIP3   OH210833   4.887   3.868   3.336  0.6504 -0.0103  0.0080
 3627TIP3    H110834   4.850   3.817   3.408  0.0922  0.1085 -0.1987
 3627TIP3    H210835   4.958   3.812   3.302 -1.7654 -1.9192 -2.0507
 3628TIP3   OH210836   0.177   2.567   1.040  0.2350  0.3264 -0.5070
 3628TIP3    H110837   0.134   2.617   0.970 -1.7095 -0.7648 -0.1233
 3628TIP3    H210838   0.142   2.478   1.030  0.2944  0.0635  1.5846
 3629TIP3   OH210839   6.128   4.911   1.818 -0.2521 -0.1919  0.0898
 3629TIP3    H110840   6.098   4.863   1.895 -0.6924  0.5104  0.3680
 3629TIP3    H210841   6.207   4.865   1.789 -0.2902 -0.6712  0.7465
 3630TIP3   OH210842   6.715   3.671   1.871 -0.4533 -0.5653  0.5279
 3630TIP3    H110843   6.753   3.684   1.784 -0.6107  0.4889  0.6060
 3630TIP3    H210844   6.622   3.687   1.858 -0.5849 -1.1968  0.7278
 3631TIP3   OH210845   6.146   2.956   3.243  0.0321  0.1844 -0.0289
 3631TIP3    H110846   6.177   2.898   3.173 -0.7319  0.4614 -0.6020
 3631TIP3    H210847   6.188   2.923   3.322  0.8800 -0.1544 -0.6146
 3632TIP3   OH210848   6.998   2.849   2.254  0.6299 -0.4236 -0.1374
 3632TIP3    H110849   6.920   2.843   2.309  2.0262 -0.1264  1.8962
 3632TIP3    H210850   6.984   2.783   2.186 -1.2355 -0.6065  0.4044
 3633TIP3   OH210851   4.431   4.018   2.410  0.9409  0.4175 -0.5462
 3633TIP3    H110852   4.461   3.972   2.332  0.0279 -0.8946 -0.1362
 3633TIP3    H210853   4.425   3.950   2.477 -2.1597  0.7655 -0.3907
 3634TIP3   OH210854   7.077   7.362   5.110 -0.4293 -0.0379 -0.2746
 3634TIP3    H110855   7.152   7.406   5.149 -0.3103 -0.0729 -0.4686
 3634TIP3    H210856   7.032   7.430   5.059 -0.5439 -0.0109 -0.1392
 3635TIP3   OH210857   6.435   3.468   3.310  0.1777  0.4795  0.1751
 3635TIP3    H110858   6.414   3.449   3.402 -2.1737  0.9936 -0.2264
 3635TIP3    H210859   6.504   3.405   3.288 -1.9834 -2.3242  1.1695
 3636TIP3   OH210860   5.327   4.934   2.036 -0.2901  0.0837 -0.3194
 3636TIP3    H110861   5.247   4.882   2.029  0.5446 -1.3841  0.8870
 3636TIP3    H210862   5.303   5.008   2.092 -0.2775 -1.4514  1.7602
 3637TIP3   OH210863   6.241   5.514   2.374  0.3417 -0.0313 -0.0437
 3637TIP3    H110864   6.301   5.589   2.375  0.1965  0.1022 -1.3863
 3637TIP3    H210865   6.188   5.526   2.453  1.5969  0.2326  0.7771
 3638TIP3   OH210866   3.452   0.685   5.916 -0.1916  0.5794  0.0773
 3638TIP3    H110867   3.517   0.749   5.887 -0.9901  1.3006 -0.1265
 3638TIP3    H210868   3.381   0.738   5.952 -0.2008 -0.2404  1.2796
 3639TIP3   OH210869   4.990   3.095   3.496 -0.3288  0.2586  0.4416
 3639TIP3    H110870   4.973   3.086   3.402  0.1714 -0.7322  0.4387
 3639TIP3    H210871   5.038   3.016   3.519 -2.4044 -0.5918  2.0060
 3640TIP3   OH210872   6.447   1.015   0.459  0.2660 -0.3450 -0.4689
 3640TIP3    H110873   6.411   0.960   0.529  2.2151 -1.0179  0.0434
 3640TIP3    H210874   6.371   1.061   0.423 -0.9581 -0.9996  1.1956
 3641TIP3   OH210875   4.307   3.785   3.207  0.1556  0.3004 -0.3046
 3641TIP3    H110876   4.241   3.815   3.270  1.1751 -1.3160  1.5559
 3641TIP3    H210877   4.356   3.865   3.184  0.3050  0.7615  1.5797
 3642TIP3   OH210878   6.081   3.301   2.944 -0.4107  0.9695  0.1661
 3642TIP3    H110879   6.078   3.282   3.038  0.1057 -2.3778 -0.4621
 3642TIP3    H210880   6.173   3.320   2.926 -0.2951  0.3644  0.1116
 3643TIP3   OH210881   7.863   2.203   3.499 -0.3570  0.0780 -0.1307
 3643TIP3    H110882   7.864   2.107   3.499  0.3110  0.0784  0.4778
 3643TIP3    H210883   7.939   2.227   3.551 -0.7594  0.9397  0.0652
 3644TIP3   OH210884   2.599   3.055   2.085 -0.9388  0.2307  0.6175
 3644TIP3    H110885   2.663   2.984   2.080 -0.6711  0.2422  3.1535
 3644TIP3    H210886   2.525   3.025   2.033  0.2895 -0.7028 -0.6029
 3645TIP3   OH210887   4.622   3.445   2.999 -0.0658 -0.2961  0.5831
 3645TIP3    H110888   4.598   3.501   2.925 -0.4876 -0.7318  0.3903
 3645TIP3    H210889   4.658   3.505   3.064 -1.6127  0.3478  0.8533
 3646TIP3   OH210890   5.897   4.204   0.702 -0.1175 -0.5134 -0.1064
 3646TIP3    H110891   5.887   4.110   0.713  1.1172 -0.5794  0.5572
 3646TIP3    H210892   5.900   4.217   0.607 -0.2061 -1.1568 -0.1990
 3647TIP3   OH210893   5.525   2.986   1.291  0.0845  0.0037 -0.0754
 3647TIP3    H110894   5.449   2.965   1.237  0.9422 -2.9190 -0.2486
 3647TIP3    H210895   5.515   2.930   1.368  1.2639  0.7345  0.6144
 3648TIP3   OH210896   6.730   2.892   3.019  0.1435 -0.1377  1.0996
 3648TIP3    H110897   6.806   2.839   2.993 -1.0571 -1.5158  0.3327
 3648TIP3    H210898   6.733   2.968   2.962  0.4852 -0.5998  0.4910
 3649TIP3   OH210899   7.274   0.940   2.210 -0.1535 -0.3918 -0.1339
 3649TIP3    H110900   7.302   0.848   2.206  0.2876 -0.2549 -0.2305
 3649TIP3    H210901   7.196   0.939   2.265  2.2295 -0.2572  3.4327
 3650TIP3   OH210902   1.383   5.536   5.340  0.4126  0.0847 -0.1878
 3650TIP3    H110903   1.336   5.587   5.274  0.5532  0.3866 -0.0604
 3650TIP3    H210904   1.344   5.564   5.423 -0.8873 -1.4823 -0.2446
 3651TIP3   OH210905   5.554   4.770   2.656  0.4344  0.2448 -0.6427
 3651TIP3    H110906   5.619   4.835   2.683  0.3489 -0.0012  0.1438
 3651TIP3    H210907   5.478   4.788   2.710  0.7491 -1.1466  0.2811
 3652TIP3   OH210908   1.917   4.839   2.660 -0.7442 -0.1854  0.0684
 3652TIP3    H110909   1.890   4.808   2.573  0.3885 -0.6730 -0.1217
 3652TIP3    H210910   1.857   4.911   2.679 -0.5714  0.3865 -1.4184
 3653TIP3   OH210911   7.089   5.308   0.262 -0.0679 -0.4678 -0.3883
 3653TIP3    H110912   7.032   5.368   0.215 -1.1177 -1.1881 -0.0434
 3653TIP3    H210913   7.135   5.363   0.325  0.6638  0.3474 -1.6120
 3654TIP3   OH210914   6.960   4.314   3.146 -0.2643 -0.4901  0.1210
 3654TIP3    H110915   7.039   4.348   3.103 -0.0788 -0.2337  0.6666
 3654TIP3    H210916   6.888   4.349   3.093 -0.0960  1.1372  0.9209
 3655TIP3   OH210917   7.010   2.300   0.515 -0.2803  0.1591  0.0495
 3655TIP3    H110918   6.951   2.290   0.590 -2.4773  2.0268 -1.3467
 3655TIP3    H210919   7.069   2.372   0.540 -2.4063  2.2710 -0.7839
 3656TIP3   OH210920   2.830   0.850   6.322  0.3298  0.2303  0.0750
 3656TIP3    H110921   2.833   0.762   6.283 -0.3139  0.2033  0.0718
 3656TIP3    H210922   2.808   0.907   6.249 -0.5873  0.2175  0.3295
 3657TIP3   OH210923   0.408   5.561   0.287  0.1962  0.2034  0.2814
 3657TIP3    H110924   0.353   5.485   0.306  2.4314 -1.1398  1.6317
 3657TIP3    H210925   0.438   5.591   0.374  2.8834 -0.1050 -0.4909
 3658TIP3   OH210926   7.329   2.789   1.491  0.0103 -0.1585  0.7926
 3658TIP3    H110927   7.342   2.837   1.409 -1.6790 -1.4075 -0.2579
 3658TIP3    H210928   7.344   2.853   1.560 -2.4510  1.9701 -0.5612
 3659TIP3   OH210929   5.686   5.203   0.808  0.2135 -0.0419  0.7410
 3659TIP3    H110930   5.635   5.238   0.881 -1.4167 -0.3928 -0.1854
 3659TIP3    H210931   5.620   5.164   0.750  1.3525  1.1724 -1.4251
 3660TIP3   OH210932   4.701   1.406   5.413  0.1071  0.3177 -0.2497
 3660TIP3    H110933   4.776   1.431   5.358  0.5311  0.1018  0.2183
 3660TIP3    H210934   4.683   1.315   5.389 -1.2926  0.9693 -1.7935
 3661TIP3   OH210935   5.675   3.999   2.656  0.2892  0.9217 -0.0453
 3661TIP3    H110936   5.649   3.908   2.664  0.3221  0.9039 -0.1398
 3661TIP3    H210937   5.622   4.045   2.721  0.0552  0.8803 -0.2107
 3662TIP3   OH210938   5.759   3.306   3.190  0.1732 -0.0085 -0.2238
 3662TIP3    H110939   5.734   3.398   3.198  0.3514 -0.0424  0.8128
 3662TIP3    H210940   5.679   3.257   3.209  0.2120 -0.0743 -0.2292
 3663TIP3   OH210941   5.856   4.115   1.390  0.2112  0.2981  0.0349
 3663TIP3    H110942   5.769   4.146   1.416  0.3764  0.0540  0.8940
 3663TIP3    H210943   5.839   4.042   1.330 -0.1716  0.9083 -0.6095
 3664TIP3   OH210944   6.662   2.249   3.949  0.2023  0.1921  0.5267
 3664TIP3    H110945   6.644   2.273   3.858 -1.9984 -2.2071  0.2763
 3664TIP3    H210946   6.620   2.317   4.001 -2.3054 -0.7149 -0.2356
 3665TIP3   OH210947   5.453   3.265   2.948 -0.2586 -0.0432 -0.1220
 3665TIP3    H110948   5.491   3.177   2.952 -1.4521 -0.6199 -0.9895
 3665TIP3    H210949   5.424   3.274   2.857  1.5566  1.9974 -0.5332
 3666TIP3   OH210950   5.019   5.725   3.311 -0.0413 -0.3721  0.0069
 3666TIP3    H110951   5.035   5.702   3.220  1.2346  1.7818 -0.3324
 3666TIP3    H210952   4.926   5.707   3.325 -0.1778 -0.9880 -1.6232
 3667TIP3   OH210953   6.323   3.494   0.161 -0.2725 -0.1354  0.0309
 3667TIP3    H110954   6.375   3.431   0.111  2.4053  1.2917  0.9481
 3667TIP3    H210955   6.308   3.566   0.100  0.4314  0.2874  0.3619
 3668TIP3   OH210956   5.372   3.026   5.003  0.1525  0.4422  0.6212
 3668TIP3    H110957   5.338   2.939   5.021 -0.6720  0.6085 -0.1056
 3668TIP3    H210958   5.458   3.028   5.045  1.4231 -1.6910 -1.7224
 3669TIP3   OH210959   1.141   1.423   6.262 -0.2586  0.1269  0.5163
 3669TIP3    H110960   1.097   1.506   6.243  2.4308  1.2173 -1.4077
 3669TIP3    H210961   1.106   1.362   6.197 -0.4809  0.4188  0.3591
 3670TIP3   OH210962   6.647   2.545   1.536  0.1211 -0.1196 -0.4541
 3670TIP3    H110963   6.721   2.493   1.505 -0.8090 -2.0146  0.3828
 3670TIP3    H210964   6.582   2.480   1.562 -0.7780  1.4667  1.4108
 3671TIP3   OH210965   1.968   1.011   6.015  0.2768  0.2614 -0.3164
 3671TIP3    H110966   2.009   0.977   6.095  1.9982 -2.1970 -2.1669
 3671TIP3    H210967   1.903   0.945   5.992 -0.0042  0.8239 -1.1278
 3672TIP3   OH210968   4.342   3.072   3.144 -0.5372  0.1019 -0.0251
 3672TIP3    H110969   4.424   3.091   3.191  0.2764 -0.7309 -1.0721
 3672TIP3    H210970   4.370   3.054   3.055 -1.8674 -0.3728 -0.3516
 3673TIP3   OH210971   3.673   0.469   5.251 -0.4530 -0.5302  0.7221
 3673TIP3    H110972   3.750   0.429   5.212  0.0707  0.1207  1.0827
 3673TIP3    H210973   3.643   0.404   5.315  0.1534 -0.5280  1.0134
 3674TIP3   OH210974   6.805   3.366   1.608  0.4435 -0.6475 -0.1319
 3674TIP3    H110975   6.743   3.314   1.658  0.6935 -1.1942 -0.3868
 3674TIP3    H210976   6.873   3.304   1.581  0.4656 -0.3008 -0.8982
 3675TIP3   OH210977   4.111   3.142   3.743  0.0191  0.0231  0.3269
 3675TIP3    H110978   4.018   3.126   3.726 -0.0869  1.7741 -0.8426
 3675TIP3    H210979   4.156   3.107   3.666  0.2328  0.2771  0.3357
 3676TIP3   OH210980   6.908   4.331   2.595 -0.3143  0.1767  0.2169
 3676TIP3    H110981   6.863   4.284   2.665  1.3571 -0.6562  0.7690
 3676TIP3    H210982   6.880   4.286   2.515 -0.6527 -0.1709  0.5251
 3677TIP3   OH210983   5.997   3.105   1.900  0.0797  0.6365 -0.3433
 3677TIP3    H110984   6.055   3.037   1.864 -0.3577  0.8197 -1.4331
 3677TIP3    H210985   5.988   3.168   1.828 -0.9582  0.9328  0.0447
 3678TIP3   OH210986   5.305   2.936   1.141 -0.0558  0.3200 -0.1441
 3678TIP3    H110987   5.235   2.992   1.107  0.3660  0.2336 -1.1995
 3678TIP3    H210988   5.274   2.907   1.226 -0.7787  1.2432 -0.0875
 3679TIP3   OH210989   2.197   3.063   2.355 -0.5514 -0.2776  0.1149
 3679TIP3    H110990   2.140   3.119   2.407 -0.2892  1.3027 -1.2660
 3679TIP3    H210991   2.282   3.067   2.399 -0.7504 -0.2912  0.5012
 3680TIP3   OH210992   3.736   5.798   0.952 -0.5032 -0.1489  0.1377
 3680TIP3    H110993   3.697   5.807   0.865  0.4326  1.5452 -0.1122
 3680TIP3    H210994   3.669   5.754   1.004 -1.1602 -0.9624 -1.3635
 3681TIP3   OH210995   6.702   4.554   0.362  0.3859 -0.0322 -0.0506
 3681TIP3    H110996   6.645   4.522   0.292 -1.1300 -0.7384  1.4773
 3681TIP3    H210997   6.666   4.640   0.385  0.4494 -0.1095  0.3418
 3682TIP3   OH210998   6.392   5.142   0.351 -0.0113 -0.3285  0.3201
 3682TIP3    H110999   6.444   5.222   0.362  0.2108 -0.2634 -1.1961
 3682TIP3    H211000   6.416   5.088   0.426  0.1170  0.8688  1.1588
 3683TIP3   OH211001   2.815   3.607   3.177 -1.1106 -0.8511 -0.7544
 3683TIP3    H111002   2.895   3.621   3.228  0.7703 -1.7926 -3.3288
 3683TIP3    H211003   2.764   3.545   3.228 -0.0922 -0.4427  0.8000
 3684TIP3   OH211004   5.946   3.227   3.816  0.0137 -0.4359  0.1380
 3684TIP3    H111005   5.905   3.145   3.789 -0.7009  0.6334 -2.1065
 3684TIP3    H211006   5.907   3.246   3.901 -0.5574 -1.9029  0.2162
 3685TIP3   OH211007   2.521   7.128   6.181 -0.8451  0.0559  0.0275
 3685TIP3    H111008   2.549   7.038   6.194 -0.0850  0.2393 -0.3530
 3685TIP3    H211009   2.484   7.130   6.093  0.6599  0.4920 -0.6088
 3686TIP3   OH211010   6.803   3.395   3.011 -0.2607 -0.4833  0.0420
 3686TIP3    H111011   6.824   3.361   3.098 -0.7943 -0.4152  0.2007
 3686TIP3    H211012   6.795   3.489   3.024  0.1360 -0.4171 -0.1801
 3687TIP3   OH211013   6.707   4.162   0.656  0.2594  0.2077 -0.0694
 3687TIP3    H111014   6.647   4.135   0.586  0.9759  0.8014 -0.9232
 3687TIP3    H211015   6.765   4.226   0.614 -1.4510  3.1742  1.9064
 3688TIP3   OH211016   0.633   7.025   6.400  0.4218  0.4609 -0.0223
 3688TIP3    H111017   0.667   6.981   6.322  1.1445 -0.4692  0.7876
 3688TIP3    H211018   0.705   7.020   6.463 -1.0841 -1.2609  1.6295
 3689TIP3   OH211019   5.804   3.620   3.293 -0.3342  0.0320 -0.1794
 3689TIP3    H111020   5.787   3.630   3.387  0.6406 -1.1198  0.1397
 3689TIP3    H211021   5.894   3.587   3.289 -0.5762 -0.4905 -1.5028
 3690TIP3   OH211022   5.729   2.349   3.116  0.3178  0.3273  0.0851
 3690TIP3    H111023   5.778   2.428   3.092 -0.3292  1.3000  1.8690
 3690TIP3    H211024   5.745   2.338   3.210 -0.5414 -0.9991  0.0836
 3691TIP3   OH211025   6.702   2.801   1.661  0.0090 -0.3059 -0.3901
 3691TIP3    H111026   6.684   2.711   1.635 -1.0059 -0.1257 -0.3156
 3691TIP3    H211027   6.617   2.837   1.686  0.4961  0.4954  0.1474
 3692TIP3   OH211028   3.693   4.932   1.465 -0.1608 -0.3285 -0.5184
 3692TIP3    H111029   3.706   4.961   1.555 -0.5941  0.0578 -0.5820
 3692TIP3    H211030   3.768   4.969   1.417 -0.6789  0.6486 -0.5903
 3693TIP3   OH211031   7.418   5.188   0.784  0.1308 -0.0582 -0.6816
 3693TIP3    H111032   7.443   5.265   0.834 -0.6546  0.5576 -1.2175
 3693TIP3    H211033   7.482   5.184   0.713  0.3676 -0.0909 -0.4672
 3694TIP3   OH211034   3.157   4.456   1.536  0.5198 -0.6141 -0.3827
 3694TIP3    H111035   3.163   4.545   1.502  1.3507 -0.2962  0.5875
 3694TIP3    H211036   3.087   4.461   1.602 -0.4027 -1.0077 -1.3091
 3695TIP3   OH211037   6.556   3.245   2.249  0.5034  1.1919  0.8765
 3695TIP3    H111038   6.490   3.230   2.318 -0.7297  0.1445 -0.4872
 3695TIP3    H211039   6.549   3.168   2.193  0.5636  2.6107 -1.1453
 3696TIP3   OH211040   3.035   2.535   2.724 -0.2700  0.5188  0.3827
 3696TIP3    H111041   3.008   2.449   2.692  0.6371  0.9115 -1.4887
 3696TIP3    H211042   2.953   2.578   2.750 -0.9952 -0.0044 -0.9802
 3697TIP3   OH211043   5.917   4.116   2.563 -0.3008 -0.1152  0.1231
 3697TIP3    H111044   5.914   4.047   2.497  1.1718  0.3252 -0.4335
 3697TIP3    H211045   5.866   4.082   2.636 -0.3113 -1.4352 -0.4883
 3698TIP3   OH211046   1.252   5.939   5.338 -0.1688  0.2143  0.2380
 3698TIP3    H111047   1.188   5.977   5.276  0.9419  0.4069 -0.8069
 3698TIP3    H211048   1.199   5.885   5.396 -1.4689  1.4210  0.2083
 3699TIP3   OH211049   5.363   3.372   2.277 -0.2225 -0.1126  0.1506
 3699TIP3    H111050   5.354   3.277   2.270  1.0053 -0.3227  1.0848
 3699TIP3    H211051   5.419   3.384   2.354 -1.4914  1.4222  0.8586
 3700TIP3   OH211052   5.094   2.191   1.910 -0.2796  1.1519 -0.0047
 3700TIP3    H111053   5.040   2.265   1.882 -0.9709  0.5612 -0.2593
 3700TIP3    H211054   5.044   2.148   1.979  0.6285  1.5680  0.9270
 3701TIP3   OH211055   6.490   3.506   2.270 -0.3077 -0.2256 -1.0987
 3701TIP3    H111056   6.524   3.419   2.250  0.5323  0.1842 -1.4746
 3701TIP3    H211057   6.446   3.534   2.190  1.5577  0.6973 -1.8504
 3702TIP3   OH211058   6.374   3.124   1.494 -0.1582  0.4982  0.0088
 3702TIP3    H111059   6.404   3.215   1.498 -0.9380  0.7706 -0.4748
 3702TIP3    H211060   6.286   3.129   1.459 -0.2903 -0.4312  0.2073
 3703TIP3   OH211061   5.726   2.727   2.187  0.1722  0.3768  0.4816
 3703TIP3    H111062   5.774   2.714   2.269  2.1015 -0.3348 -0.7162
 3703TIP3    H211063   5.766   2.665   2.126  0.5853  2.7509 -1.7304
 3704TIP3   OH211064   6.697   5.849   2.319 -0.0367 -0.1489  0.1610
 3704TIP3    H111065   6.669   5.847   2.410 -2.5049 -0.0173 -0.5469
 3704TIP3    H211066   6.781   5.804   2.318 -0.2256 -0.5903  2.4212
 3705TIP3   OH211067   2.494   4.664   1.325 -0.0111 -0.0135  0.1526
 3705TIP3    H111068   2.463   4.598   1.264  1.1339 -0.2000 -0.2490
 3705TIP3    H211069   2.570   4.703   1.281 -1.1591  2.1648 -0.0175
 3706TIP3   OH211070   6.960   3.080   0.465  0.3212  0.4028  0.0578
 3706TIP3    H111071   6.894   3.065   0.397  0.8038  0.2362 -0.3760
 3706TIP3    H211072   6.909   3.103   0.543 -0.1930  1.9213 -0.6924
 3707TIP3   OH211073   5.269   2.405   0.801  0.0304 -0.1240  0.0465
 3707TIP3    H111074   5.320   2.485   0.814  1.4369 -0.9879 -0.0391
 3707TIP3    H211075   5.276   2.387   0.707  0.1576 -0.6470  0.1567
 3708TIP3   OH211076   5.069   4.769   0.721  0.0073 -0.5670 -0.9267
 3708TIP3    H111077   4.980   4.734   0.720  0.0766 -0.7897  0.2187
 3708TIP3    H211078   5.083   4.802   0.632 -1.1878 -0.6035 -1.1310
 3709TIP3   OH211079   4.775   2.580   1.500  0.0336  0.5500  1.0850
 3709TIP3    H111080   4.684   2.588   1.527 -0.6987 -1.4954 -0.6149
 3709TIP3    H211081   4.816   2.528   1.570 -1.5252 -3.5458 -0.8862
 3710TIP3   OH211082   7.174   4.813   2.087 -0.0040 -0.2230  0.3536
 3710TIP3    H111083   7.180   4.873   2.161  0.9622  0.9439 -0.6673
 3710TIP3    H211084   7.262   4.777   2.078 -0.4309 -1.3523  0.5740
 3711TIP3   OH211085   4.447   4.861   2.294 -0.0516 -0.6355  0.2091
 3711TIP3    H111086   4.364   4.845   2.338  0.7723 -2.4103  1.1593
 3711TIP3    H211087   4.474   4.776   2.261  1.5970 -0.1608  0.2910
 3712TIP3   OH211088   5.061   3.426   1.675 -0.2821  0.0524  0.1004
 3712TIP3    H111089   5.097   3.448   1.762 -1.6554  1.0925  0.4205
 3712TIP3    H211090   5.004   3.352   1.691  1.5653 -1.5117 -0.3868
 3713TIP3   OH211091   4.599   1.786   5.715 -0.4924 -0.3686 -0.6268
 3713TIP3    H111092   4.663   1.827   5.774 -0.9219 -0.0791 -0.3600
 3713TIP3    H211093   4.652   1.734   5.655  0.1681  1.5715 -1.7823
 3714TIP3   OH211094   4.553   3.337   2.132 -0.1727 -0.2714 -0.3490
 3714TIP3    H111095   4.612   3.321   2.206 -2.2614 -1.6831  1.0669
 3714TIP3    H211096   4.546   3.252   2.089 -0.0221  0.2461 -1.4241
 3715TIP3   OH211097   5.298   5.554   3.160 -0.0222  0.4459 -0.0886
 3715TIP3    H111098   5.386   5.569   3.126 -0.0998 -0.7636 -0.8578
 3715TIP3    H211099   5.255   5.639   3.153  1.3323  1.2388  1.0402
 3716TIP3   OH211100   6.740   7.236   5.917 -0.7152 -0.0875  0.4718
 3716TIP3    H111101   6.684   7.286   5.976  1.0763 -0.0406  2.2203
 3716TIP3    H211102   6.787   7.175   5.975  0.7828 -0.3333 -0.9475
 3717TIP3   OH211103   0.343   2.192   2.028 -0.4937  0.5821 -0.3330
 3717TIP3    H111104   0.422   2.184   1.975  0.5383  1.8640  0.9485
 3717TIP3    H211105   0.275   2.215   1.966  0.0315 -1.0089 -1.5271
 3718TIP3   OH211106   4.933   5.279   3.032  0.5129 -0.1499 -0.1522
 3718TIP3    H111107   4.922   5.332   2.954 -0.0089 -1.1401 -0.7560
 3718TIP3    H211108   4.859   5.302   3.088  0.9832  0.6877  0.1373
 3719TIP3   OH211109   2.051   5.122   5.776 -0.2835 -0.1345 -0.4518
 3719TIP3    H111110   2.055   5.060   5.702 -0.5211  0.9035 -1.3438
 3719TIP3    H211111   2.121   5.093   5.835 -1.1474 -1.9754 -0.2898
 3720TIP3   OH211112   1.913   6.853   5.791 -0.1054 -0.6124 -0.5434
 3720TIP3    H111113   1.858   6.808   5.854  0.6892 -1.7002 -0.6126
 3720TIP3    H211114   2.000   6.855   5.831 -0.2916  1.5172 -0.2246
 3721TIP3   OH211115   7.044   3.678   1.829  0.1532 -0.0369  0.1786
 3721TIP3    H111116   7.017   3.761   1.869  0.3797  0.8483 -1.4620
 3721TIP3    H211117   7.023   3.612   1.896 -0.5418  1.2664  1.2924
 3722TIP3   OH211118   2.607   1.259   5.633 -1.4978 -1.0311  0.1795
 3722TIP3    H111119   2.670   1.250   5.704 -1.2143 -1.2883 -0.1043
 3722TIP3    H211120   2.639   1.333   5.582 -1.0820 -1.5524 -0.3184
 3723TIP3   OH211121   7.494   3.322   0.748  0.1712  0.8653 -0.4867
 3723TIP3    H111122   7.477   3.403   0.797  3.4045  0.6268  1.1604
 3723TIP3    H211123   7.554   3.347   0.679 -0.5218  0.2544 -1.3210
 3724TIP3   OH211124   5.100   2.722   2.260 -0.1178 -0.5803  0.0039
 3724TIP3    H111125   5.077   2.667   2.185  0.1490  0.1083 -0.6022
 3724TIP3    H211126   5.126   2.806   2.220 -1.7340  0.3906  0.9728
 3725TIP3   OH211127   5.541   1.911   0.804  0.2448 -0.1903 -0.3094
 3725TIP3    H111128   5.600   1.982   0.831 -0.7404  0.8522 -0.8813
 3725TIP3    H211129   5.514   1.935   0.715 -0.3408 -1.1303 -0.3892
 3726TIP3   OH211130   6.136   3.577   0.335 -0.1397  0.5371 -0.0331
 3726TIP3    H111131   6.149   3.671   0.323 -1.7337  0.7115 -0.3900
 3726TIP3    H211132   6.198   3.537   0.274 -0.5573  1.3660 -1.0147
 3727TIP3   OH211133   5.423   3.746   0.634  0.7421  0.1635  0.3177
 3727TIP3    H111134   5.420   3.709   0.546  0.2568  1.3112 -0.1634
 3727TIP3    H211135   5.337   3.725   0.672 -0.1104  2.0608 -0.4998
 3728TIP3   OH211136   7.697   3.378   1.658  0.4778 -0.4929 -0.8022
 3728TIP3    H111137   7.684   3.372   1.563 -0.2816 -0.2608 -0.7135
 3728TIP3    H211138   7.744   3.460   1.670 -0.0381 -0.1786 -0.9190
 3729TIP3   OH211139   4.853   6.382   0.516 -0.6740  0.1660 -0.1785
 3729TIP3    H111140   4.900   6.317   0.569 -3.6448 -1.9450 -0.0115
 3729TIP3    H211141   4.922   6.441   0.485  1.8745 -1.8587  1.3441
 3730TIP3   OH211142   7.703   5.162   0.660 -0.5622  0.1691 -0.2985
 3730TIP3    H111143   7.774   5.113   0.618 -0.7449  0.5128 -1.0328
 3730TIP3    H211144   7.708   5.249   0.620  0.7708  1.2602  2.1342
 3731TIP3   OH211145   4.213   0.851   5.872  0.7134 -0.2597 -0.0812
 3731TIP3    H111146   4.282   0.884   5.930 -0.9168  0.1583  1.6863
 3731TIP3    H211147   4.175   0.929   5.833  1.9757 -0.5573 -1.9526
 3732TIP3   OH211148   3.006   3.185   4.817 -0.4560  0.1902 -0.0194
 3732TIP3    H111149   3.064   3.253   4.782  0.4103 -0.9834 -0.9324
 3732TIP3    H211150   2.919   3.224   4.816 -0.3444  0.4625 -2.8621
 3733TIP3   OH211151   6.295   4.097   0.519  0.3010 -0.1781 -0.0858
 3733TIP3    H111152   6.235   4.022   0.522  1.3969 -1.0414  0.7675
 3733TIP3    H211153   6.335   4.093   0.433  1.4116 -1.4373  0.4680
 3734TIP3   OH211154   2.196   3.649   1.917 -0.3137 -0.2887 -0.0955
 3734TIP3    H111155   2.262   3.581   1.905 -1.3677 -0.8796 -2.8493
 3734TIP3    H211156   2.227   3.722   1.863 -1.4383 -0.2382 -0.6868
 3735TIP3   OH211157   0.697   5.192   6.248  0.4824  0.5846  0.1293
 3735TIP3    H111158   0.655   5.130   6.307 -0.1883 -0.4602 -1.4014
 3735TIP3    H211159   0.768   5.142   6.207  0.1289  0.8993 -0.8895
 3736TIP3   OH211160   6.483   2.710   3.316  0.7631 -0.1788 -0.2549
 3736TIP3    H111161   6.415   2.748   3.372  1.2598  1.6422 -0.8554
 3736TIP3    H211162   6.545   2.671   3.378  0.9516  1.2228  0.4612
 3737TIP3   OH211163   4.252   2.294   1.297  0.3826  0.1357 -0.7364
 3737TIP3    H111164   4.312   2.360   1.332  1.1621 -1.2255  0.5741
 3737TIP3    H211165   4.296   2.259   1.220 -0.0913  1.2278 -1.5066
 3738TIP3   OH211166   6.036   4.998   5.121  0.4689 -0.2265  0.1506
 3738TIP3    H111167   5.943   5.022   5.112  0.3103 -0.9878 -0.3434
 3738TIP3    H211168   6.048   4.980   5.214  0.0509 -0.3882  0.1748
 3739TIP3   OH211169   7.264   2.375   1.410 -0.3517  0.1533  0.1639
 3739TIP3    H111170   7.250   2.359   1.317 -1.3007 -0.9308  0.4798
 3739TIP3    H211171   7.341   2.432   1.413 -0.0741 -0.1241 -1.2551
 3740TIP3   OH211172   5.973   3.004   2.527 -0.0134 -0.8286  0.0045
 3740TIP3    H111173   6.021   2.942   2.582 -0.1705  0.7567  1.9766
 3740TIP3    H211174   5.982   3.088   2.572  2.0180  1.0652 -3.7374
 3741TIP3   OH211175   7.556   3.382   4.240  0.3717  0.5756  0.1304
 3741TIP3    H111176   7.625   3.433   4.284  1.6130  0.2821 -1.4195
 3741TIP3    H211177   7.583   3.380   4.148 -1.2864 -0.2690 -0.3558
 3742TIP3   OH211178   6.625   3.856   1.628  0.0056 -0.1431  0.2985
 3742TIP3    H111179   6.615   3.912   1.551  0.6188  0.3392  0.5575
 3742TIP3    H211180   6.681   3.784   1.599  1.3368  0.7417  0.6360
 3743TIP3   OH211181   6.099   4.635   0.853  0.1884  0.3587 -0.5242
 3743TIP3    H111182   6.134   4.720   0.825 -0.7824  0.7135 -0.6825
 3743TIP3    H211183   6.113   4.634   0.947 -0.6379  1.1088 -0.3783
 3744TIP3   OH211184   6.093   3.945   0.046  0.9669  0.0697 -0.3465
 3744TIP3    H111185   6.010   3.901   0.026  0.8270  0.4424 -0.6001
 3744TIP3    H211186   6.108   4.003  -0.029  1.3485  0.1589 -0.2018
 3745TIP3   OH211187   5.628   1.672   0.503  0.4912 -0.5772  0.1243
 3745TIP3    H111188   5.687   1.630   0.565 -0.2279 -0.9713  0.5327
 3745TIP3    H211189   5.667   1.759   0.489  1.5180 -1.0597 -0.0908
 3746TIP3   OH211190   7.377   2.958   2.521 -0.5340  0.1977 -0.1671
 3746TIP3    H111191   7.455   2.993   2.565  0.8978 -1.9226 -0.9684
 3746TIP3    H211192   7.304   3.005   2.562  1.0659  1.4799  1.3168
 3747TIP3   OH211193   3.611   0.542   6.098 -0.4640  0.2574 -0.6129
 3747TIP3    H111194   3.688   0.597   6.086  0.7215 -1.5919 -1.8256
 3747TIP3    H211195   3.542   0.587   6.050  0.5970  0.5053 -1.9434
 3748TIP3   OH211196   3.434   2.877   3.692 -0.8109  0.9759  0.3318
 3748TIP3    H111197   3.451   2.942   3.760 -0.7996  1.3017  0.0167
 3748TIP3    H211198   3.436   2.793   3.738  2.4692  0.9184  0.1632
 3749TIP3   OH211199   4.003   3.590   1.128  0.6512 -0.3434  0.0127
 3749TIP3    H111200   4.086   3.636   1.142 -0.8371  2.7817 -0.9753
 3749TIP3    H211201   3.995   3.584   1.033  0.0853 -1.3253  0.1123
 3750TIP3   OH211202   6.981   4.067   3.049 -0.1259  0.5408  0.1075
 3750TIP3    H111203   7.074   4.058   3.029 -0.1411  2.9119 -1.2528
 3750TIP3    H211204   6.973   4.151   3.093 -1.5483  0.0938  0.7469
 3751TIP3   OH211205   5.696   3.467   2.140 -0.0715  0.1552 -0.0773
 3751TIP3    H111206   5.761   3.417   2.190  0.0632  0.8592  0.4610
 3751TIP3    H211207   5.736   3.553   2.129  0.4542 -0.3764 -2.5255
 3752TIP3   OH211208   3.492   2.950   2.714  0.4209 -0.0108  0.3721
 3752TIP3    H111209   3.505   3.041   2.686 -1.5490  0.8032  1.9778
 3752TIP3    H211210   3.501   2.899   2.633  0.5615  1.7045 -0.7268
 3753TIP3   OH211211   3.789   5.398   3.782 -0.0336  0.3589  0.5115
 3753TIP3    H111212   3.720   5.460   3.757  3.1441  3.3151 -1.4044
 3753TIP3    H211213   3.773   5.380   3.874 -2.5833  1.9721  0.4309
 3754TIP3   OH211214   4.802   5.519   1.974 -0.0617 -0.5497  0.3788
 3754TIP3    H111215   4.834   5.430   1.958 -0.9826 -0.7568 -0.3420
 3754TIP3    H211216   4.865   5.575   1.929  0.4583 -0.8395  0.7365
 3755TIP3   OH211217   5.179   1.244   0.013 -0.7660 -0.8162  0.4307
 3755TIP3    H111218   5.110   1.195  -0.030 -1.3843 -1.0323  1.6435
 3755TIP3    H211219   5.143   1.267   0.099 -0.7651  2.3535 -0.3403
 3756TIP3   OH211220   5.132   4.285   5.417 -0.0075  0.2289 -0.2807
 3756TIP3    H111221   5.180   4.358   5.458 -0.4001 -0.0756  0.7414
 3756TIP3    H211222   5.141   4.301   5.323  0.8134  1.0144 -0.0856
 3757TIP3   OH211223   5.178   3.487   1.931  0.2284 -0.8928 -0.0584
 3757TIP3    H111224   5.221   3.401   1.930 -0.5316 -1.3208  1.4466
 3757TIP3    H211225   5.243   3.545   1.971 -1.0808 -1.8672  3.6995
 3758TIP3   OH211226   5.623   5.533   4.867 -0.0267  0.0105  0.5331
 3758TIP3    H111227   5.651   5.595   4.934  0.3783  0.8427 -0.3957
 3758TIP3    H211228   5.567   5.584   4.809 -0.9016 -0.8664  0.5993
 3759TIP3   OH211229   6.835   3.493   0.785  0.3309 -0.0949  0.6103
 3759TIP3    H111230   6.809   3.484   0.693  1.3856  1.0140  0.1774
 3759TIP3    H211231   6.870   3.582   0.791  1.4105 -0.5776  1.7957
 3760TIP3   OH211232   5.989   5.478   2.035  0.3503  0.6260  0.4088
 3760TIP3    H111233   5.983   5.572   2.017 -0.8742  0.1205 -1.9632
 3760TIP3    H211234   6.067   5.449   1.988 -0.8331 -0.0399 -1.1765
 3761TIP3   OH211235   5.147   2.499   1.182 -0.1490 -0.0270  0.3419
 3761TIP3    H111236   5.059   2.519   1.216  0.6937  1.7545  1.5199
 3761TIP3    H211237   5.154   2.552   1.103  0.1107  0.3564  0.6190
 3762TIP3   OH211238   0.665   7.239   6.209  0.1884  0.0167 -0.8608
 3762TIP3    H111239   0.691   7.151   6.180  0.1812 -1.1525  2.5476
 3762TIP3    H211240   0.741   7.293   6.192  1.7737 -1.5736  0.9524
 3763TIP3   OH211241   3.312   3.587   2.057 -0.4402 -0.4153  0.2920
 3763TIP3    H111242   3.279   3.553   2.140  1.0439 -1.9259  0.2850
 3763TIP3    H211243   3.252   3.551   1.991  0.1759 -1.7243  0.4352
 3764TIP3   OH211244   6.497   3.160   3.672  0.1752  0.1377 -0.0365
 3764TIP3    H111245   6.527   3.137   3.584  1.0620 -0.8829  0.5172
 3764TIP3    H211246   6.413   3.115   3.682 -0.6304  1.4367 -0.8874
 3765TIP3   OH211247   5.687   3.132   2.455  0.7615 -0.2116 -0.0496
 3765TIP3    H111248   5.772   3.110   2.494  1.0486  0.2171 -0.4212
 3765TIP3    H211249   5.692   3.226   2.439 -0.1190 -0.0274  0.7183
 3766TIP3   OH211250   5.944   2.523   1.474  0.3122  0.0450  0.6194
 3766TIP3    H111251   5.966   2.589   1.408  0.3508 -0.1295  0.4600
 3766TIP3    H211252   5.848   2.523   1.476  0.2662 -1.4494 -0.9388
 3767TIP3   OH211253   5.970   4.865   1.610  0.0959  0.3559  0.4257
 3767TIP3    H111254   5.922   4.796   1.655  1.4108 -0.7128  0.2040
 3767TIP3    H211255   6.038   4.891   1.672  0.6640  0.2796 -0.1679
 3768TIP3   OH211256   5.812   5.129   1.239 -0.1970 -0.3514  0.4154
 3768TIP3    H111257   5.885   5.080   1.202  0.4746  1.7088 -1.0339
 3768TIP3    H211258   5.734   5.090   1.199  0.3094 -0.4170 -0.5129
 3769TIP3   OH211259   3.423   2.484   2.407  0.2684  0.2098  0.7776
 3769TIP3    H111260   3.341   2.526   2.380 -0.4260 -0.1814  2.2468
 3769TIP3    H211261   3.451   2.435   2.329 -0.2720  1.2929 -0.1092
 3770TIP3   OH211262   5.293   4.746   2.328 -0.0153 -0.4392 -0.2341
 3770TIP3    H111263   5.383   4.739   2.360  0.7951  0.4282 -2.2767
 3770TIP3    H211264   5.250   4.804   2.391  1.2277  0.2648 -0.0067
 3771TIP3   OH211265   5.410   3.669   1.394 -0.0616  0.4270 -0.5036
 3771TIP3    H111266   5.392   3.615   1.471  2.0922 -0.2161 -0.4076
 3771TIP3    H211267   5.359   3.629   1.323 -0.7450  0.0210  0.2137
 3772TIP3   OH211268   7.850   5.169   3.830 -0.6010  0.9912 -0.1979
 3772TIP3    H111269   7.884   5.123   3.906 -0.0420 -0.0231 -1.0416
 3772TIP3    H211270   7.902   5.135   3.756 -1.4203  1.6366 -1.0899
 3773TIP3   OH211271   6.045   5.942   3.720  0.3050 -0.2778 -0.3228
 3773TIP3    H111272   6.130   5.969   3.687  0.1627  0.1543 -0.3422
 3773TIP3    H211273   5.987   6.016   3.701  0.3486  0.2216  1.3744
 3774TIP3   OH211274   3.424   4.492  -0.032 -0.3147  0.0976  0.6724
 3774TIP3    H111275   3.476   4.552   0.021  1.7242 -1.4656  0.5071
 3774TIP3    H211276   3.369   4.445   0.031 -0.0954  0.3613  1.0619
 3775TIP3   OH211277   5.448   3.655   1.784  0.7109 -0.4134 -0.5686
 3775TIP3    H111278   5.407   3.599   1.718  0.6898  0.1824 -1.0747
 3775TIP3    H211279   5.524   3.606   1.814  0.2681 -1.0366 -0.4510
 3776TIP3   OH211280   7.104   3.080   2.166  0.5869 -0.3745 -0.1087
 3776TIP3    H111281   7.113   3.067   2.071 -2.2989  0.7807 -0.6030
 3776TIP3    H211282   7.059   3.002   2.197  3.1875 -1.6107  0.6681
 3777TIP3   OH211283   7.586   3.231   0.238 -0.3816 -0.3217 -0.3943
 3777TIP3    H111284   7.640   3.208   0.314 -1.0730 -1.1145 -0.1262
 3777TIP3    H211285   7.501   3.254   0.275 -0.5237 -0.0609 -0.8826
 3778TIP3   OH211286   6.543   5.512   3.128 -0.7016  0.7128 -1.0050
 3778TIP3    H111287   6.524   5.425   3.161  0.7048 -0.2194 -2.5726
 3778TIP3    H211288   6.466   5.535   3.076 -1.3180  0.6560 -0.1306
 3779TIP3   OH211289   5.379   3.676   3.325 -0.4565 -0.0980 -0.7224
 3779TIP3    H111290   5.380   3.681   3.420 -1.0103 -1.7334 -0.6088
 3779TIP3    H211291   5.463   3.714   3.298  1.1789 -2.6221  0.6135
 3780TIP3   OH211292   6.756   6.547   0.383 -0.4468  0.2508 -0.0990
 3780TIP3    H111293   6.782   6.589   0.302 -1.0885  1.6383  0.3914
 3780TIP3    H211294   6.665   6.521   0.369 -0.0555 -0.9964 -0.3984
 3781TIP3   OH211295   7.867   3.243   0.022  0.7213 -0.1361  0.0065
 3781TIP3    H111296   7.947   3.192   0.034  1.1310  0.2265 -1.1445
 3781TIP3    H211297   7.811   3.188  -0.032  0.3162 -0.2583  0.5506
 3782TIP3   OH211298   4.742   5.853   4.136 -0.0230 -0.2071  0.5656
 3782TIP3    H111299   4.808   5.815   4.078 -0.6423 -0.4803  0.0262
 3782TIP3    H211300   4.772   5.832   4.224  1.0467  0.4074  0.3527
 3783TIP3   OH211301   4.636   4.086   0.861  0.0605  0.0867  0.2146
 3783TIP3    H111302   4.705   4.054   0.919 -0.2291  1.7700  1.5307
 3783TIP3    H211303   4.676   4.088   0.774  1.0334 -0.8453  0.6320
 3784TIP3   OH211304   4.846   4.230   0.437 -0.0969 -0.2730  0.3093
 3784TIP3    H111305   4.881   4.292   0.501  1.3045  1.2929 -1.9041
 3784TIP3    H211306   4.755   4.217   0.465  0.5601  0.1098  2.7723
 3785TIP3   OH211307   4.254   2.500   3.841  0.1464 -0.3549 -0.7249
 3785TIP3    H111308   4.220   2.473   3.926  0.2534 -1.9382 -1.1822
 3785TIP3    H211309   4.197   2.574   3.815  1.9336  2.0900  2.0115
 3786TIP3   OH211310   7.595   3.154   0.933  0.2678 -0.8263  0.0269
 3786TIP3    H111311   7.564   3.180   0.846  0.2017 -0.3600  0.1882
 3786TIP3    H211312   7.584   3.232   0.986 -0.3334 -1.3142  0.6257
 3787TIP3   OH211313   7.460   4.199   1.592  0.5673 -0.2686  0.3566
 3787TIP3    H111314   7.435   4.236   1.507  0.2297  1.2710  1.1127
 3787TIP3    H211315   7.389   4.138   1.613 -0.2224  0.6271  0.3341
 3788TIP3   OH211316   7.558   5.138   3.242 -0.2356  0.5815 -0.4073
 3788TIP3    H111317   7.478   5.159   3.194 -0.5468 -0.1358 -0.2053
 3788TIP3    H211318   7.584   5.052   3.209 -0.1727  0.3094  0.3417
 3789TIP3   OH211319   5.404   6.070   0.925  0.3820 -0.0024 -0.2136
 3789TIP3    H111320   5.363   6.146   0.966  0.4397  0.9365 -1.8293
 3789TIP3    H211321   5.333   6.008   0.912  0.5645 -0.7763  2.2802
 3790TIP3   OH211322   4.390   2.506   2.309 -0.1684  0.5122 -0.3041
 3790TIP3    H111323   4.424   2.577   2.364  2.5949 -1.3478  0.5532
 3790TIP3    H211324   4.468   2.454   2.287 -2.0238 -1.9719 -1.2671
 3791TIP3   OH211325   6.930   4.724   2.041  0.2373  0.3718 -0.0373
 3791TIP3    H111326   6.898   4.751   1.955  1.0777  0.0021 -0.4646
 3791TIP3    H211327   7.019   4.757   2.045  0.0062  0.8876  0.9274
 3792TIP3   OH211328   6.318   5.096   2.029  0.0321 -0.5917  0.2269
 3792TIP3    H111329   6.239   5.135   2.066  0.8081  1.5805 -0.3233
 3792TIP3    H211330   6.289   5.057   1.946 -0.4693  0.1470  0.0509
 3793TIP3   OH211331   0.306   0.701   5.622 -0.2553  0.0752 -0.4103
 3793TIP3    H111332   0.320   0.612   5.590 -0.4099  0.1036 -0.5551
 3793TIP3    H211333   0.296   0.691   5.717  0.9255  0.0695 -0.2718
 3794TIP3   OH211334   4.642   2.108   5.698 -0.2237  0.3269 -0.3731
 3794TIP3    H111335   4.550   2.089   5.677 -0.3468  0.5792 -0.0585
 3794TIP3    H211336   4.653   2.200   5.676  0.2951 -0.0211 -1.6126
 3795TIP3   OH211337   5.469   0.610   4.717  0.3698  0.3837  0.0787
 3795TIP3    H111338   5.386   0.650   4.741 -0.2248 -1.3338  0.9398
 3795TIP3    H211339   5.535   0.667   4.756 -0.4098  1.2851  0.1066
 3796TIP3   OH211340   0.202   0.521   3.354 -0.0636  0.1869 -0.4505
 3796TIP3    H111341   0.162   0.567   3.428 -0.7796 -0.2434 -0.5638
 3796TIP3    H211342   0.263   0.460   3.394  0.7345  1.0825 -0.2894
 3797TIP3   OH211343   1.447   3.279   2.770  0.3274 -0.0659  0.1461
 3797TIP3    H111344   1.499   3.237   2.839  2.1291  0.7752 -0.6493
 3797TIP3    H211345   1.439   3.371   2.799  1.0471  0.2758 -0.7221
 3798TIP3   OH211346   5.651   4.006   1.011 -0.0659 -0.6040  0.0166
 3798TIP3    H111347   5.579   4.069   1.009 -1.9483 -2.6347  1.1765
 3798TIP3    H211348   5.730   4.060   1.023 -1.8103  1.4324  3.3697
 3799TIP3   OH211349   0.417   6.006   6.309 -0.5212  0.7408 -0.4335
 3799TIP3    H111350   0.334   5.959   6.308  0.3916 -0.9158 -0.1915
 3799TIP3    H211351   0.449   6.001   6.219  0.5863 -0.9764  0.0319
 3800TIP3   OH211352   5.637   0.018   6.421 -0.1841 -0.4124  0.0029
 3800TIP3    H111353   5.541   0.020   6.411 -0.3895  0.6009  1.9234
 3800TIP3    H211354   5.663   0.110   6.414  0.5807 -0.6192  0.1508
 3801TIP3   OH211355   3.650   3.959   1.688  0.0417 -0.8638 -0.4375
 3801TIP3    H111356   3.730   4.002   1.718 -1.3862  1.6731 -0.1178
 3801TIP3    H211357   3.626   3.901   1.760 -0.3846  1.1217  1.0808
 3802TIP3   OH211358   4.902   3.404   0.099  0.2341 -0.1495  0.3661
 3802TIP3    H111359   4.894   3.404   0.195 -1.5998  1.1734  0.2462
 3802TIP3    H211360   4.924   3.313   0.077 -1.3270 -0.9344  1.9035
 3803TIP3   OH211361   4.170   4.041   2.344 -0.4528 -0.2160  0.5167
 3803TIP3    H111362   4.262   4.039   2.369 -0.7110 -0.7099  1.4449
 3803TIP3    H211363   4.166   3.992   2.262  0.2872  0.8116 -0.1410
 3804TIP3   OH211364   7.185   5.251   2.554 -0.0928 -0.2525 -0.4090
 3804TIP3    H111365   7.132   5.290   2.484 -1.4299 -0.3909  0.4925
 3804TIP3    H211366   7.269   5.296   2.549 -0.1509 -0.3056 -2.1433
 3805TIP3   OH211367   0.559   6.784   6.104  0.2660 -0.1560  0.1736
 3805TIP3    H111368   0.599   6.730   6.172  0.5849 -0.2815 -0.1118
 3805TIP3    H211369   0.633   6.824   6.058  0.0807 -0.5826 -0.5177
 3806TIP3   OH211370   4.895   2.907   2.349 -0.0571  0.0758 -0.3207
 3806TIP3    H111371   4.975   2.883   2.395 -0.6554 -1.3775 -0.0010
 3806TIP3    H211372   4.908   2.873   2.260  0.5480  1.7107 -0.8754
 3807TIP3   OH211373   3.856   2.877   3.788 -0.2253 -0.4575 -0.0286
 3807TIP3    H111374   3.845   2.964   3.750  0.7302 -0.7333 -0.9646
 3807TIP3    H211375   3.790   2.873   3.858 -0.4414  0.9152 -0.1335
 3808TIP3   OH211376   7.812   3.633   1.637 -0.1414  0.1761 -0.5393
 3808TIP3    H111377   7.905   3.647   1.620 -0.0855 -1.3496 -1.4846
 3808TIP3    H211378   7.768   3.697   1.581  0.3182  0.9214 -0.0692
 3809TIP3   OH211379   2.197   0.664   4.936 -0.5329 -0.3153 -0.6719
 3809TIP3    H111380   2.284   0.639   4.966 -0.9350 -1.0806 -0.1462
 3809TIP3    H211381   2.169   0.733   4.997  0.1561  0.7348 -1.5154
 3810TIP3   OH211382   3.280   4.095   0.264 -0.4899 -0.7621 -0.5882
 3810TIP3    H111383   3.203   4.084   0.320 -0.4471  0.9573 -0.1606
 3810TIP3    H211384   3.343   4.032   0.298 -0.5996  0.0085  1.1149
 3811TIP3   OH211385   6.363   4.574   2.023  0.0844 -0.7647 -0.2475
 3811TIP3    H111386   6.330   4.498   1.976 -0.4007 -0.9749  0.4275
 3811TIP3    H211387   6.451   4.550   2.049 -0.3823 -1.4242  0.7187
 3812TIP3   OH211388   4.248   3.321   3.332  0.1741 -0.1408  0.0051
 3812TIP3    H111389   4.219   3.309   3.242 -0.3263 -0.1504  0.1679
 3812TIP3    H211390   4.333   3.277   3.336  0.0679 -0.3818 -0.3896
 3813TIP3   OH211391   4.529   5.815   3.974  0.1350 -0.3161  0.2767
 3813TIP3    H111392   4.517   5.720   3.985  1.5468 -0.8003 -1.8581
 3813TIP3    H211393   4.588   5.840   4.044 -1.1940 -0.7704  1.5861
 3814TIP3   OH211394   5.657   4.338   0.557 -0.3403  0.4313 -0.6244
 3814TIP3    H111395   5.663   4.356   0.651 -2.4625  0.4203 -0.4740
 3814TIP3    H211396   5.653   4.243   0.551 -0.8924  0.4590 -0.6864
 3815TIP3   OH211397   4.289   3.682   1.176  0.4598 -0.0598  0.1403
 3815TIP3    H111398   4.375   3.716   1.202  0.9872 -1.7701  0.7080
 3815TIP3    H211399   4.285   3.595   1.215 -1.7653  0.1970  0.5562
 3816TIP3   OH211400   6.763   4.231   2.805 -0.1530 -0.5521  0.3532
 3816TIP3    H111401   6.783   4.142   2.835  1.0163 -0.0087  1.2272
 3816TIP3    H211402   6.670   4.242   2.822  0.0793 -0.9696  1.9926
 3817TIP3   OH211403   5.911   2.608   1.805 -0.6237  0.3656 -0.2959
 3817TIP3    H111404   5.966   2.648   1.872  0.7133 -0.0074 -1.1450
 3817TIP3    H211405   5.973   2.567   1.744 -1.9160 -2.2372  0.0684
 3818TIP3   OH211406   4.703   3.954   2.680 -0.0507 -0.1096  0.0694
 3818TIP3    H111407   4.737   4.018   2.617 -1.0116  0.0377 -0.2945
 3818TIP3    H211408   4.691   3.874   2.630  0.8752 -0.5043  0.4650
 3819TIP3   OH211409   6.637   3.950   2.082 -0.4042  0.1139  0.0228
 3819TIP3    H111410   6.676   3.864   2.095 -1.2885 -0.0827  1.4188
 3819TIP3    H211411   6.592   3.942   1.997  2.1529  0.2207 -1.4032
 3820TIP3   OH211412   7.524   4.580   4.465  0.0915 -0.2946 -0.0377
 3820TIP3    H111413   7.584   4.648   4.435  2.1311 -1.6505  0.8309
 3820TIP3    H211414   7.440   4.602   4.425  0.6645  2.7946  0.3659
 3821TIP3   OH211415   3.824   4.107   1.837 -0.4417 -0.4371 -0.1650
 3821TIP3    H111416   3.842   4.108   1.931 -0.7412 -0.5144 -0.1062
 3821TIP3    H211417   3.794   4.196   1.818 -0.2520 -0.3836 -0.2115
 3822TIP3   OH211418   3.889   1.179   5.980  0.7335  0.4548  0.3080
 3822TIP3    H111419   3.937   1.257   5.953 -0.5365  1.3477  0.5358
 3822TIP3    H211420   3.835   1.209   6.053 -0.4582 -0.4058 -0.1980
 3823TIP3   OH211421   4.341   3.273   0.961 -0.1919  0.2062 -0.4383
 3823TIP3    H111422   4.263   3.222   0.941  0.6953 -0.7778 -1.4623
 3823TIP3    H211423   4.394   3.215   1.015 -0.3457  1.0286  0.6123
 3824TIP3   OH211424   4.854   3.608   1.267  0.2329 -0.2374 -0.3245
 3824TIP3    H111425   4.762   3.596   1.293  0.0635  0.9541 -0.3189
 3824TIP3    H211426   4.898   3.635   1.348  0.9856 -2.6884  0.1023
 3825TIP3   OH211427   3.373   2.897   2.134  0.4398  0.2474 -0.0602
 3825TIP3    H111428   3.448   2.837   2.134  0.6988  0.5630 -0.8971
 3825TIP3    H211429   3.381   2.945   2.052 -0.4549  0.5700  0.0369
 3826TIP3   OH211430   0.383   5.010   2.082  0.2641  0.3269  0.5189
 3826TIP3    H111431   0.343   4.959   2.012 -1.3366  0.0304  1.6222
 3826TIP3    H211432   0.356   5.100   2.065  0.5481  0.3770  0.3156
 3827TIP3   OH211433   6.684   5.382   2.591  0.0819 -1.0368  0.2253
 3827TIP3    H111434   6.686   5.413   2.500  0.0385 -0.5957  0.3736
 3827TIP3    H211435   6.623   5.309   2.590  0.3206 -1.2332 -0.1665
 3828TIP3   OH211436   6.573   0.653   0.500 -0.5545 -0.1762  0.2010
 3828TIP3    H111437   6.597   0.693   0.416  0.3172  0.7794  0.8878
 3828TIP3    H211438   6.655   0.615   0.532 -1.0730 -1.2885  0.2290
 3829TIP3   OH211439   3.742   0.071   5.639  0.1502  0.3701 -0.2501
 3829TIP3    H111440   3.695   0.154   5.645  0.5983  0.6020  0.0366
 3829TIP3    H211441   3.752   0.056   5.545  0.7726  1.0386 -0.2920
 3830TIP3   OH211442   3.967   2.081   1.899  0.0923 -0.1154 -0.1203
 3830TIP3    H111443   4.006   2.042   1.977 -0.3496 -0.7615 -0.2183
 3830TIP3    H211444   3.873   2.080   1.916  0.0102 -0.0368 -0.5617
 3831TIP3   OH211445   6.255   2.055   2.316 -0.3733  0.1290 -0.1234
 3831TIP3    H111446   6.221   2.042   2.228 -0.4017  0.1163 -0.1105
 3831TIP3    H211447   6.182   2.093   2.365  0.1941  1.8256 -0.5603
 3832TIP3   OH211448   6.275   3.353   3.489  0.3713 -0.4559 -0.0317
 3832TIP3    H111449   6.248   3.269   3.526  0.5080 -0.4606  0.0593
 3832TIP3    H211450   6.194   3.394   3.461  0.2967 -0.5871 -0.0092
 3833TIP3   OH211451   3.799   7.179   1.214 -0.0637  0.1445  0.1331
 3833TIP3    H111452   3.731   7.188   1.147 -0.7237  3.1229  1.1216
 3833TIP3    H211453   3.768   7.108   1.271 -2.1022  1.1195  0.2740
 3834TIP3   OH211454   5.814   3.777   1.502 -0.3413  0.8265 -0.0999
 3834TIP3    H111455   5.832   3.800   1.411  1.3095  4.8105  1.1697
 3834TIP3    H211456   5.736   3.827   1.525 -0.0304  0.8041  1.0562
 3835TIP3   OH211457   6.178   3.916   2.527 -0.4025 -0.0737 -0.1526
 3835TIP3    H111458   6.116   3.934   2.457  0.2775  1.4034 -0.4069
 3835TIP3    H211459   6.230   3.996   2.534 -2.1350  0.8080  3.8025
 3836TIP3   OH211460   5.912   2.534   0.872 -0.8738 -0.1138 -0.0544
 3836TIP3    H111461   5.948   2.454   0.834  1.2719  0.8666 -0.1523
 3836TIP3    H211462   5.977   2.602   0.853 -1.9564  1.3614  1.3077
 3837TIP3   OH211463   6.563   7.368   5.263 -0.2332  0.5203 -0.0214
 3837TIP3    H111464   6.634   7.307   5.242 -0.6789 -0.1308  0.3305
 3837TIP3    H211465   6.559   7.427   5.189  2.3193  2.1174  1.0780
 3838TIP3   OH211466   1.314   6.432   6.101  0.2918  0.1878 -0.3093
 3838TIP3    H111467   1.303   6.337   6.099 -1.0309  0.3527 -1.5408
 3838TIP3    H211468   1.345   6.455   6.013 -0.5785  1.0232 -0.4117
 3839TIP3   OH211469   7.220   2.778   3.018  0.1326  0.3729 -0.2460
 3839TIP3    H111470   7.148   2.835   3.045  1.7241  1.8833  0.8883
 3839TIP3    H211471   7.284   2.837   2.979  1.3159 -0.8041 -0.1071
 3840TIP3   OH211472   6.747   4.424   3.002  0.1393 -0.0408  0.2379
 3840TIP3    H111473   6.784   4.378   2.927  0.5595  0.9270 -0.1612
 3840TIP3    H211474   6.659   4.449   2.974 -0.1206 -0.6575  0.4856
 3841TIP3   OH211475   4.911   4.227   1.039 -0.1089 -0.3327  0.0476
 3841TIP3    H111476   4.870   4.280   1.108  0.1456 -0.9517  0.6734
 3841TIP3    H211477   4.890   4.274   0.958 -0.6678  0.2340  0.5128
 3842TIP3   OH211478   0.582   2.232   3.669 -0.2648 -0.0484 -0.9947
 3842TIP3    H111479   0.675   2.220   3.685 -0.0162  0.8696 -1.7037
 3842TIP3    H211480   0.557   2.160   3.612 -0.2196 -0.8754  0.0156
 3843TIP3   OH211481   5.560   5.020   1.883 -0.1814  0.0680 -0.3298
 3843TIP3    H111482   5.495   4.997   1.949 -1.4627  0.5620 -1.3899
 3843TIP3    H211483   5.643   5.019   1.929 -0.8834 -1.1331  0.9167
 3844TIP3   OH211484   5.606   3.010   6.308  0.1631  0.1509 -0.2895
 3844TIP3    H111485   5.661   2.989   6.384 -0.5936 -0.2105  0.1687
 3844TIP3    H211486   5.583   3.102   6.320 -0.0237  0.0716 -0.0335
 3845TIP3   OH211487   3.626   0.193   5.988  0.2167 -0.4740 -0.6616
 3845TIP3    H111488   3.715   0.225   5.997 -0.1620  0.3499  0.2796
 3845TIP3    H211489   3.583   0.258   5.932 -0.7625  1.1663  1.8841
 3846TIP3   OH211490   6.726   6.153   0.317  0.0920 -0.6935 -0.0355
 3846TIP3    H111491   6.703   6.132   0.227  0.8688  0.6365 -0.5690
 3846TIP3    H211492   6.691   6.081   0.369 -2.0771 -0.5108 -1.1804
 3847TIP3   OH211493   4.380   1.801   6.306  0.3291  0.0137 -0.3392
 3847TIP3    H111494   4.320   1.819   6.379  0.9821  2.9004 -0.4596
 3847TIP3    H211495   4.464   1.784   6.348  0.1937 -0.7294 -0.3458
 3848TIP3   OH211496   1.521   7.422   5.461  0.5620  0.5660  0.6813
 3848TIP3    H111497   1.429   7.434   5.436  0.4766  1.3622  1.3294
 3848TIP3    H211498   1.525   7.334   5.498  0.2672  0.1620 -0.2253
 3849TIP3   OH211499   7.185   5.503   1.379  0.9706  0.7811  0.0004
 3849TIP3    H111500   7.276   5.482   1.360  0.2280 -1.1356 -1.6264
 3849TIP3    H211501   7.144   5.513   1.293 -0.6521  0.2838  0.6972
 3850TIP3   OH211502   5.263   0.372   5.787 -0.0056 -0.3389 -0.7446
 3850TIP3    H111503   5.187   0.322   5.819 -0.8247  0.9580 -0.6204
 3850TIP3    H211504   5.293   0.323   5.710  0.1880 -1.8885  0.3090
 3851TIP3   OH211505   6.660   4.823   0.667 -0.0483 -0.1445 -0.2279
 3851TIP3    H111506   6.655   4.734   0.634 -1.1397  0.2352 -1.1300
 3851TIP3    H211507   6.638   4.816   0.760  0.5392 -0.9013 -0.1502
 3852TIP3   OH211508   6.757   4.366   1.954 -0.2857 -0.3363  0.3154
 3852TIP3    H111509   6.737   4.314   1.876  0.7943 -0.8044  0.3421
 3852TIP3    H211510   6.802   4.443   1.921  0.4136 -0.6644  0.4895
 3853TIP3   OH211511   1.284   4.959   2.279  0.6054 -0.2329  0.1172
 3853TIP3    H111512   1.370   4.987   2.312  1.3376 -0.4003 -1.6306
 3853TIP3    H211513   1.277   4.868   2.306  1.5402 -0.5975 -0.8314
 3854TIP3   OH211514   7.661   5.414   3.522  0.3384  0.4521 -0.1408
 3854TIP3    H111515   7.714   5.336   3.505  1.1065  0.7935  0.6239
 3854TIP3    H211516   7.586   5.382   3.571  1.2665  0.3565  1.2404
 3855TIP3   OH211517   7.817   2.228   1.930  0.7824 -0.3716  0.5853
 3855TIP3    H111518   7.898   2.203   1.886  0.5015 -2.1639  1.0253
 3855TIP3    H211519   7.748   2.183   1.880  0.2453 -0.4762  1.4102
 3856TIP3   OH211520   2.035   5.723   0.626 -0.4648 -0.2305  0.0463
 3856TIP3    H111521   2.124   5.688   0.617  0.0149  0.6088  1.4558
 3856TIP3    H211522   1.978   5.652   0.596  0.6937 -0.5999 -1.3275
 3857TIP3   OH211523   0.642   6.056   5.347 -0.1801  0.1187 -0.0408
 3857TIP3    H111524   0.735   6.062   5.325 -0.2659 -0.3529 -0.5413
 3857TIP3    H211525   0.629   6.123   5.414  0.5527  0.0834  0.1401
 3858TIP3   OH211526   0.826   2.339   2.713 -0.4287  0.1575  0.4218
 3858TIP3    H111527   0.846   2.355   2.620 -0.7593  0.1633  0.3512
 3858TIP3    H211528   0.911   2.340   2.756 -0.1693 -0.8739 -0.0406
 3859TIP3   OH211529   6.661   3.268   1.291 -0.3511 -0.2269  0.5691
 3859TIP3    H111530   6.584   3.324   1.300  0.6980  1.1603  0.9780
 3859TIP3    H211531   6.692   3.283   1.202 -0.1037 -0.1981  0.6594
 3860TIP3   OH211532   5.381   3.234   0.837 -0.0504  0.3450 -0.5429
 3860TIP3    H111533   5.447   3.176   0.875 -0.5655  0.5761  0.7258
 3860TIP3    H211534   5.414   3.322   0.854 -0.7965  0.4640  0.2898
 3861TIP3   OH211535   7.637   5.068   1.620  0.2054 -0.2039 -0.4867
 3861TIP3    H111536   7.558   5.119   1.637 -0.3549 -0.6739 -1.6147
 3861TIP3    H211537   7.625   5.034   1.532  1.3505 -0.8720 -0.3983
 3862TIP3   OH211538   7.187   3.367   1.170 -0.1871  0.2649  0.3192
 3862TIP3    H111539   7.263   3.422   1.191 -0.7828  0.9081  0.8261
 3862TIP3    H211540   7.148   3.409   1.093  0.9235 -1.0315 -1.0027
 3863TIP3   OH211541   7.934   3.843   1.967 -0.1626  0.1295  0.3114
 3863TIP3    H111542   7.861   3.786   1.940  0.7629 -0.8923 -0.0663
 3863TIP3    H211543   7.894   3.906   2.028 -1.0461 -1.4708  1.4240
 3864TIP3   OH211544   0.880   3.364   2.892 -0.1042  0.1814 -0.1011
 3864TIP3    H111545   0.791   3.387   2.865  0.3268  1.0668 -0.7844
 3864TIP3    H211546   0.931   3.368   2.811  0.5481 -0.3738  0.2818
 3865TIP3   OH211547   0.382   5.215   2.385 -0.2100  0.1435 -0.3943
 3865TIP3    H111548   0.313   5.229   2.320  0.1850 -1.2346 -1.1283
 3865TIP3    H211549   0.455   5.269   2.354 -0.9497  1.6539  0.4169
 3866TIP3   OH211550   0.629   4.872   0.861 -0.0694 -0.1680 -0.0451
 3866TIP3    H111551   0.686   4.816   0.913  1.9731  0.7716 -1.1765
 3866TIP3    H211552   0.623   4.953   0.912 -0.3027 -0.2332  0.0297
 3867TIP3   OH211553   6.464   3.068   2.484 -0.6751 -0.4942  0.2226
 3867TIP3    H111554   6.480   3.154   2.523  0.0334 -0.2007 -0.6807
 3867TIP3    H211555   6.525   3.010   2.528 -1.4664 -0.6366  1.1532
 3868TIP3   OH211556   6.976   3.240   2.829 -0.7161 -0.2423 -0.2206
 3868TIP3    H111557   7.013   3.303   2.767 -0.3596 -0.5719 -0.3434
 3868TIP3    H211558   6.937   3.294   2.897 -0.1698  0.1111 -0.1830
 3869TIP3   OH211559   2.132   0.721   6.073  0.1047  0.6147  0.4499
 3869TIP3    H111560   2.075   0.655   6.112 -3.2365  1.9628 -1.8974
 3869TIP3    H211561   2.158   0.778   6.146 -0.5400 -0.7484  1.7477
 3870TIP3   OH211562   6.819   2.532   1.013 -0.4372 -0.2914  0.6458
 3870TIP3    H111563   6.736   2.492   1.039 -0.6598 -0.2475  0.0099
 3870TIP3    H211564   6.827   2.512   0.920 -0.6423  1.2776  0.2686
 3871TIP3   OH211565   6.918   2.906   1.516  0.8408  0.5696 -0.4664
 3871TIP3    H111566   6.852   2.852   1.558  1.8634  1.0096  1.7795
 3871TIP3    H211567   6.998   2.854   1.520  1.3834  1.4095 -0.1033
 3872TIP3   OH211568   4.521   5.351   1.441  0.0339 -0.0902  0.5860
 3872TIP3    H111569   4.447   5.391   1.395 -1.8890 -1.3349  2.5423
 3872TIP3    H211570   4.529   5.401   1.522 -0.5998 -1.8440  1.7588
 3873TIP3   OH211571   0.128   3.981   3.397 -0.0426 -0.5227 -0.6088
 3873TIP3    H111572   0.089   3.948   3.478  0.3273  0.4463 -0.0340
 3873TIP3    H211573   0.053   4.001   3.340 -0.3588  0.4676  0.1495
 3874TIP3   OH211574   5.779   3.323   0.363  0.2650  0.4295 -0.1892
 3874TIP3    H111575   5.775   3.414   0.390 -3.2666 -0.2580  1.8509
 3874TIP3    H211576   5.733   3.321   0.279  0.9950  0.5917 -0.6067
 3875TIP3   OH211577   5.879   3.063   3.462 -0.4189  0.2766  0.1434
 3875TIP3    H111578   5.822   3.006   3.514 -1.2696 -0.6941 -1.7727
 3875TIP3    H211579   5.881   3.021   3.376  2.9662  0.4774  0.0793
 3876TIP3   OH211580   4.699   0.619   6.038  0.2714 -0.5377  0.1388
 3876TIP3    H111581   4.635   0.644   5.972  0.8382  0.7174  0.0485
 3876TIP3    H211582   4.725   0.701   6.079  1.4933 -1.0746  0.4715
 3877TIP3   OH211583   4.828   2.645   0.190  0.4434 -0.0326 -0.1871
 3877TIP3    H111584   4.904   2.648   0.248  0.8824  0.6847 -0.7939
 3877TIP3    H211585   4.817   2.735   0.160 -0.4589 -0.1891 -0.3527
 3878TIP3   OH211586   7.393   5.587   1.183 -0.1622  0.4531 -0.1887
 3878TIP3    H111587   7.330   5.645   1.139  1.0213  1.5958 -0.4082
 3878TIP3    H211588   7.472   5.640   1.191  1.1518 -1.3547 -0.9322
 3879TIP3   OH211589   5.885   4.142   1.084  0.2167  0.0062  0.0458
 3879TIP3    H111590   5.880   4.180   1.172 -0.0972  0.0229  0.0189
 3879TIP3    H211591   5.965   4.181   1.047 -1.0670  2.0688 -0.6470
 3880TIP3   OH211592   4.965   0.280   5.468 -0.0294 -0.1689 -0.1916
 3880TIP3    H111593   5.019   0.218   5.518 -1.4381 -0.5606  0.8765
 3880TIP3    H211594   4.990   0.266   5.377  2.8517  0.7983  0.3861
 3881TIP3   OH211595   7.440   4.441   0.507  0.0908  0.5021 -0.5653
 3881TIP3    H111596   7.406   4.352   0.504  0.6073  0.2758  0.1685
 3881TIP3    H211597   7.386   4.485   0.573  2.9461 -0.6231  2.6601
 3882TIP3   OH211598   7.132   5.554   0.444  0.4065 -0.0810 -0.2045
 3882TIP3    H111599   7.179   5.599   0.374 -1.2060 -2.3050 -2.7994
 3882TIP3    H211600   7.201   5.511   0.495  1.4050 -1.3646 -2.5735
 3883TIP3   OH211601   4.163   0.323   4.592 -0.2106 -0.5499  0.3707
 3883TIP3    H111602   4.127   0.369   4.668  0.9349 -1.0444  1.2191
 3883TIP3    H211603   4.102   0.344   4.521 -0.3350  1.3356  1.0052
 3884TIP3   OH211604   0.241   4.651   3.699  0.2151  0.7622 -0.0842
 3884TIP3    H111605   0.288   4.689   3.625  0.4726 -0.8072 -0.7337
 3884TIP3    H211606   0.149   4.655   3.675  0.2858  0.4209 -0.3997
 3885TIP3   OH211607   6.492   3.337   0.034 -0.2895  0.2825  0.2098
 3885TIP3    H111608   6.575   3.385   0.033  0.1899 -0.5316 -1.5199
 3885TIP3    H211609   6.483   3.303  -0.056 -2.1940 -0.1419  0.5449
 3886TIP3   OH211610   0.124   5.104   4.969 -0.4443 -0.0641  0.1860
 3886TIP3    H111611   0.044   5.051   4.966  0.0202 -0.8056  0.7319
 3886TIP3    H211612   0.134   5.127   5.061 -0.9117  1.3959 -0.1249
 3887TIP3   OH211613   3.886   7.174   0.527  0.5110  0.3348 -0.2817
 3887TIP3    H111614   3.919   7.126   0.451  0.9040  2.8222 -1.7115
 3887TIP3    H211615   3.958   7.230   0.554  0.0799  0.1215  1.4384
 3888TIP3   OH211616   0.725   2.678   1.002  0.0430 -0.2729 -0.0983
 3888TIP3    H111617   0.653   2.685   0.938 -0.8697  1.2574  1.0628
 3888TIP3    H211618   0.764   2.766   1.003 -0.3306 -0.1135  1.8691
 3889TIP3   OH211619   3.487   0.475   5.021  0.0765 -0.5715 -0.2227
 3889TIP3    H111620   3.406   0.523   5.004 -0.8173 -2.3210 -0.9957
 3889TIP3    H211621   3.534   0.529   5.085 -1.0992  1.0914 -0.7396
 3890TIP3   OH211622   4.367   0.408   6.068  0.3672  0.2834  0.6578
 3890TIP3    H111623   4.457   0.390   6.096  0.0797 -0.6988  0.9289
 3890TIP3    H211624   4.365   0.381   5.976  0.6467  1.3254  0.3331
 3891TIP3   OH211625   6.233   6.237   3.220 -0.0455 -0.2690 -0.0545
 3891TIP3    H111626   6.146   6.268   3.195  0.5183 -0.0330 -1.7801
 3891TIP3    H211627   6.216   6.169   3.285 -1.4562  0.7569  0.6923
 3892TIP3   OH211628   0.330   5.300   3.745  0.1880 -0.5048  0.1990
 3892TIP3    H111629   0.258   5.304   3.682 -0.5948  2.9534  1.1762
 3892TIP3    H211630   0.402   5.261   3.697 -1.4542 -1.2863 -1.7112
 3893TIP3   OH211631   2.155   5.925   5.365 -0.0823 -0.8379 -0.0133
 3893TIP3    H111632   2.179   5.998   5.308  0.2145 -0.9131  0.0164
 3893TIP3    H211633   2.120   5.859   5.305  0.3151 -0.9529 -0.1172
 3894TIP3   OH211634   7.719   4.722   0.916 -0.1789 -0.4059 -0.8052
 3894TIP3    H111635   7.749   4.649   0.970  0.1359  0.8041  0.7033
 3894TIP3    H211636   7.626   4.704   0.901 -0.0990 -1.1175 -0.4481
 3895TIP3   OH211637   6.566   4.426   0.131  0.3475 -0.4308  0.0172
 3895TIP3    H111638   6.570   4.366   0.057 -0.2422 -3.3137  2.2611
 3895TIP3    H211639   6.477   4.418   0.164  1.2041 -0.7957  2.3359
 3896TIP3   OH211640   6.711   3.236   0.338 -0.6653 -0.0721 -0.3502
 3896TIP3    H111641   6.753   3.217   0.255 -0.3743  0.1944 -0.2662
 3896TIP3    H211642   6.625   3.193   0.333  1.6439 -5.2317  1.5910
 3897TIP3   OH211643   6.847   4.608   1.784 -0.2627  0.3939  0.6507
 3897TIP3    H111644   6.770   4.582   1.733 -0.3843 -1.7690  1.9076
 3897TIP3    H211645   6.893   4.670   1.727 -2.0222  0.4135 -0.8055
 3898TIP3   OH211646   4.996   1.498   5.909 -0.2889  0.4247 -0.3413
 3898TIP3    H111647   5.006   1.573   5.851  0.7078  0.3855 -0.2317
 3898TIP3    H211648   5.041   1.524   5.990 -0.9952  0.1804  0.1292
 3899TIP3   OH211649   6.318   2.330   0.039 -0.1247  0.1979 -0.2576
 3899TIP3    H111650   6.410   2.311   0.025 -0.0675 -2.1532  2.8131
 3899TIP3    H211651   6.283   2.345  -0.049  3.0189  0.5620 -1.5140
 3900TIP3   OH211652   3.702   1.772   6.305 -0.0873  0.3127 -0.1612
 3900TIP3    H111653   3.732   1.739   6.389  0.8459  4.1977  1.1154
 3900TIP3    H211654   3.780   1.807   6.263 -1.0200  0.9111 -1.4638
 3901TIP3   OH211655   6.918   4.343   0.622 -0.2117 -0.6362  0.4343
 3901TIP3    H111656   6.868   4.422   0.643  0.4012 -0.2317  0.3783
 3901TIP3    H211657   6.983   4.337   0.692  1.4936  0.4199 -1.0195
 3902TIP3   OH211658   5.571   0.403   4.845 -0.4747 -0.1207 -0.0455
 3902TIP3    H111659   5.538   0.470   4.784  0.0062  0.5486  0.4116
 3902TIP3    H211660   5.516   0.327   4.829 -1.2959  0.5111 -0.3014
 3903TIP3   OH211661   4.823   6.204   2.626 -0.4682 -0.0870  0.2327
 3903TIP3    H111662   4.832   6.175   2.535  1.6507 -2.3715  1.1163
 3903TIP3    H211663   4.886   6.275   2.635 -0.6111  0.0765 -0.0435
 3904TIP3   OH211664   6.983   0.350   4.624 -0.1265  0.4875  0.7546
 3904TIP3    H111665   7.004   0.440   4.602  1.9653 -0.1252  0.1042
 3904TIP3    H211666   6.944   0.314   4.545  1.5360  0.0751  0.1082
 3905TIP3   OH211667   6.728   3.607   0.271  0.0996  0.2550  0.1798
 3905TIP3    H111668   6.796   3.544   0.294 -1.8858 -1.9481  0.2360
 3905TIP3    H211669   6.706   3.586   0.180 -1.8334 -0.4003  0.7620
 3906TIP3   OH211670   7.124   2.632   0.059 -0.0375 -0.3141 -0.1038
 3906TIP3    H111671   7.199   2.583   0.025  1.6064  1.5662  0.7075
 3906TIP3    H211672   7.089   2.679  -0.018  0.5988  0.0401 -0.1778
 3907TIP3   OH211673   4.411   0.871   6.117 -0.1502  0.1308 -0.4683
 3907TIP3    H111674   4.393   0.788   6.161  1.7687  0.1605  0.4278
 3907TIP3    H211675   4.437   0.846   6.029 -0.0324 -0.1876 -0.3432
 3908TIP3   OH211676   7.734   5.121   0.950  0.0838 -0.3208 -0.2533
 3908TIP3    H111677   7.828   5.105   0.959 -0.0527 -1.1896 -0.2768
 3908TIP3    H211678   7.721   5.133   0.856  0.6612  3.1278  0.0657
 3909TIP3   OH211679   7.659   4.938   2.052  0.4410  0.1087  0.1749
 3909TIP3    H111680   7.596   4.868   2.034  1.1502 -0.0575 -1.8674
 3909TIP3    H211681   7.609   5.006   2.096 -1.1605 -0.0877 -1.2780
 3910TIP3   OH211682   6.514   4.164   3.845  0.4450 -0.3542  0.6487
 3910TIP3    H111683   6.471   4.110   3.779  1.6207  0.3462 -0.7450
 3910TIP3    H211684   6.587   4.204   3.798  0.0582  1.8255  1.8508
 3911TIP3   OH211685   1.175   5.146   4.118 -0.2453 -0.7855  0.5139
 3911TIP3    H111686   1.168   5.199   4.198 -1.4896  0.4264 -0.3861
 3911TIP3    H211687   1.114   5.074   4.132 -0.6358 -0.4465  0.5406
 3912TIP3   OH211688   6.920   3.110   1.350 -0.9516  0.5385  0.0986
 3912TIP3    H111689   6.911   3.040   1.415  0.1286  1.9485  1.8386
 3912TIP3    H211690   6.840   3.162   1.360 -1.3774  0.0234 -0.6139
 3913TIP3   OH211691   6.515   3.995   1.418 -0.2236  0.0022 -0.9448
 3913TIP3    H111692   6.455   3.967   1.350 -2.2107  0.7260  0.4725
 3913TIP3    H211693   6.486   4.083   1.442 -0.3630 -0.7076  1.6675
 3914TIP3   OH211694   6.518   1.973   0.466  0.1509  0.0988 -0.5948
 3914TIP3    H111695   6.544   1.895   0.418 -1.0525  0.1536 -1.3321
 3914TIP3    H211696   6.442   2.007   0.420 -0.5937  0.5550  0.9209
 3915TIP3   OH211697   6.901   4.405   1.535 -0.1416 -0.1345 -0.0022
 3915TIP3    H111698   6.857   4.475   1.486  2.3018  2.0459  0.8212
 3915TIP3    H211699   6.964   4.369   1.472 -1.0339 -1.2658 -0.2590
 3916TIP3   OH211700   6.832   0.788   5.278 -0.1073  0.4247 -0.3079
 3916TIP3    H111701   6.894   0.769   5.348  0.4207  0.7392 -0.6842
 3916TIP3    H211702   6.805   0.703   5.245 -0.4356  0.2779  0.3527
 3917TIP3   OH211703   1.292   4.806   3.426 -0.4957  0.2980 -0.2743
 3917TIP3    H111704   1.208   4.832   3.388 -0.5397  0.6042  0.0273
 3917TIP3    H211705   1.275   4.803   3.521 -0.5853 -1.1705 -0.3370
 3918TIP3   OH211706   0.441   2.758   2.827 -0.0063 -0.3087 -0.7604
 3918TIP3    H111707   0.461   2.664   2.822  0.2804 -0.3523  1.1186
 3918TIP3    H211708   0.505   2.793   2.888 -1.9161  0.6049  0.7586
 3919TIP3   OH211709   0.744   6.112   6.079 -0.5211 -0.1378  0.0837
 3919TIP3    H111710   0.751   6.203   6.105  1.9819 -0.1186 -0.5844
 3919TIP3    H211711   0.693   6.114   5.998 -0.3725  0.6560  0.0091
 3920TIP3   OH211712   7.620   4.421   1.695  0.2760 -0.1145 -0.1411
 3920TIP3    H111713   7.577   4.341   1.662  0.2401 -0.1878  0.0850
 3920TIP3    H211714   7.572   4.443   1.774  0.6242 -0.1675  0.0822
 3921TIP3   OH211715   0.441   4.245   1.608  0.2434 -0.1541  0.4223
 3921TIP3    H111716   0.347   4.263   1.608  0.5820  1.8589 -0.8343
 3921TIP3    H211717   0.479   4.315   1.662  1.0690 -0.5123  0.3194
 3922TIP3   OH211718   0.352   3.803   3.517  0.4402  0.2847  0.3007
 3922TIP3    H111719   0.438   3.844   3.520 -0.1112  1.4669  0.3473
 3922TIP3    H211720   0.303   3.855   3.452  0.4670 -1.7619 -1.4210
 3923TIP3   OH211721   0.753   3.851   2.892  0.3182 -0.1480  0.0062
 3923TIP3    H111722   0.780   3.881   2.979 -0.6859 -0.1810  0.3339
 3923TIP3    H211723   0.690   3.917   2.863  1.2658  0.3108 -1.0521
 3924TIP3   OH211724   1.205   3.835   5.901  0.1964 -0.0693 -0.2644
 3924TIP3    H111725   1.134   3.837   5.837 -0.1078 -1.6588  0.0138
 3924TIP3    H211726   1.277   3.792   5.855 -0.1561 -1.5761  0.5876
 3925TIP3   OH211727   3.798   1.866   5.996  0.0072  0.1589 -0.1536
 3925TIP3    H111728   3.791   1.961   5.980 -1.4766  0.3639  1.5318
 3925TIP3    H211729   3.870   1.838   5.940 -0.3538  2.0674 -1.6558
 3926TIP3   OH211730   1.085   7.271   5.791  0.5360 -1.0185  0.1078
 3926TIP3    H111731   1.095   7.340   5.726 -1.2941  1.0321  1.9072
 3926TIP3    H211732   1.149   7.294   5.860 -1.6688  0.2970  1.8033
 3927TIP3   OH211733   7.173   4.734   0.974 -0.1334 -0.0774  0.4573
 3927TIP3    H111734   7.223   4.766   1.049  0.8882 -0.3484 -0.1075
 3927TIP3    H211735   7.165   4.810   0.916 -0.9833  0.1516  0.8664
 3928TIP3   OH211736   0.394   2.909   1.569  0.2403 -0.3005 -0.7000
 3928TIP3    H111737   0.311   2.890   1.526 -0.7011  1.3591  0.3044
 3928TIP3    H211738   0.450   2.835   1.547 -1.9717 -2.1973 -0.1555
 3929TIP3   OH211739   6.070   5.933   0.047  0.3707  0.0180  0.3153
 3929TIP3    H111740   6.148   5.886   0.019  1.0230  0.2870  1.6007
 3929TIP3    H211741   6.033   5.879   0.117 -1.6360 -1.0202 -1.5029
 3930TIP3   OH211742   6.673   5.221   0.701 -0.2750  0.6194 -0.0534
 3930TIP3    H111743   6.739   5.195   0.636  0.8129  1.0771  0.8412
 3930TIP3    H211744   6.596   5.168   0.679  0.6218 -0.4722 -0.6776
 3931TIP3   OH211745   1.506   4.981   2.435  0.4040  0.1427  0.9063
 3931TIP3    H111746   1.530   5.026   2.354 -0.0921 -1.1886  0.0031
 3931TIP3    H211747   1.579   4.998   2.495  2.2402 -1.4336 -0.8454
 3932TIP3   OH211748   0.565   2.405   1.940  0.2298  0.7992 -0.4260
 3932TIP3    H111749   0.509   2.482   1.925  0.2746  0.9163  0.0077
 3932TIP3    H211750   0.564   2.359   1.856 -1.9418 -0.1352  0.0782
 3933TIP3   OH211751   6.668   3.143   1.773 -0.0296  0.5834 -0.1362
 3933TIP3    H111752   6.608   3.069   1.775  1.0651 -0.3341 -0.6647
 3933TIP3    H211753   6.623   3.212   1.821 -0.8796 -0.5547  0.7189
 3934TIP3   OH211754   7.884   6.638   0.429  0.1612  0.0447  0.3909
 3934TIP3    H111755   7.805   6.690   0.415  0.8445  0.3418 -2.7544
 3934TIP3    H211756   7.854   6.561   0.478 -2.3082 -0.4034 -1.7509
 3935TIP3   OH211757   6.120   0.356   6.291 -0.0274  0.1996  0.3651
 3935TIP3    H111758   6.172   0.303   6.351  1.2375 -1.4534 -2.1254
 3935TIP3    H211759   6.096   0.297   6.220 -1.5983  2.0698 -0.7263
 3936TIP3   OH211760   7.620   6.546   1.715  0.6798  0.0369 -0.3558
 3936TIP3    H111761   7.594   6.454   1.726 -1.8273  0.5123 -1.8599
 3936TIP3    H211762   7.703   6.543   1.669  0.4294 -1.4802 -0.7198
 3937TIP3   OH211763   6.210   5.773   2.568 -0.0302 -0.0326 -0.0141
 3937TIP3    H111764   6.213   5.750   2.475  1.4218  1.2995 -0.3204
 3937TIP3    H211765   6.257   5.856   2.573  1.0812 -0.7643  2.0980
 3938TIP3   OH211766   6.875   5.330   1.616  0.3631  0.3920  0.0955
 3938TIP3    H111767   6.945   5.315   1.680  0.4209  1.1299  0.2120
 3938TIP3    H211768   6.921   5.333   1.532  0.2080 -1.2084 -0.0541
 3939TIP3   OH211769   5.118   5.270   2.366 -0.3703 -0.3893  0.0008
 3939TIP3    H111770   5.122   5.253   2.460 -0.0898  1.4643  0.3370
 3939TIP3    H211771   5.062   5.346   2.357  1.0285  0.5304 -1.1873
 3940TIP3   OH211772   7.775   4.207   0.581  0.2907 -0.0586 -0.0611
 3940TIP3    H111773   7.807   4.266   0.513 -0.3017  1.3487  0.8684
 3940TIP3    H211774   7.729   4.137   0.533 -0.3181  1.0379 -1.0978
 3941TIP3   OH211775   7.624   5.306   2.114 -0.6745  0.0652 -0.3100
 3941TIP3    H111776   7.593   5.239   2.175  0.4150 -0.6513 -0.5173
 3941TIP3    H211777   7.625   5.262   2.029 -0.8577  0.6325 -0.6083
 3942TIP3   OH211778   3.915   2.777   5.803  0.0318 -0.0886  0.1036
 3942TIP3    H111779   3.966   2.858   5.794 -2.3942  1.4000 -0.8342
 3942TIP3    H211780   3.868   2.788   5.885 -0.3464 -0.5479 -0.0524
 3943TIP3   OH211781   2.424   0.560   5.753  0.3227 -0.1699 -0.2366
 3943TIP3    H111782   2.354   0.509   5.713  2.2759 -0.5654 -3.2417
 3943TIP3    H211783   2.479   0.496   5.798 -0.2548 -0.0403  0.6837
 3944TIP3   OH211784   5.963   4.289   0.408 -0.0424  0.1351  0.2114
 3944TIP3    H111785   5.951   4.380   0.381 -1.9120  0.0435  0.6567
 3944TIP3    H211786   5.955   4.238   0.327 -0.1962  0.2787  0.1365
 3945TIP3   OH211787   7.775   3.147   0.427  0.1533 -0.1514  0.2004
 3945TIP3    H111788   7.862   3.189   0.431  0.4796 -0.6505 -1.4203
 3945TIP3    H211789   7.791   3.057   0.455  0.4951 -0.7153 -1.7226
 3946TIP3   OH211790   5.159   4.080   1.052  0.3060 -0.2910 -0.0657
 3946TIP3    H111791   5.134   3.988   1.042  2.7269 -1.0456  0.3711
 3946TIP3    H211792   5.076   4.128   1.050 -1.1460 -2.6236  1.3899
 3947TIP3   OH211793   6.713   2.716   0.610 -0.3254 -0.3311  0.1891
 3947TIP3    H111794   6.671   2.802   0.615  0.5562  0.0670  0.8670
 3947TIP3    H211795   6.732   2.703   0.517 -0.1128  0.3694  0.1358
 3948TIP3   OH211796   7.629   3.370   3.976 -0.1543 -0.3692 -0.2639
 3948TIP3    H111797   7.590   3.452   3.945  1.8032  1.5001  2.0262
 3948TIP3    H211798   7.690   3.344   3.907  1.0033  1.4233  0.0709
 3949TIP3   OH211799   1.328   1.997   2.352 -0.2101 -0.3231 -0.3749
 3949TIP3    H111800   1.360   1.974   2.439 -1.3993  0.5622  0.3032
 3949TIP3    H211801   1.244   2.039   2.367 -0.5755 -0.4439 -1.9791
 3950TIP3   OH211802   1.066   3.007   1.175  0.7404  0.0197  0.5283
 3950TIP3    H111803   1.039   3.032   1.264  1.0621  2.3165  0.0234
 3950TIP3    H211804   1.133   2.940   1.189  1.6971  1.2476  2.0887
 3951TIP3   OH211805   1.234   4.134   2.784  0.5348 -0.6402 -0.0856
 3951TIP3    H111806   1.164   4.078   2.818  0.1983  0.2669  0.7262
 3951TIP3    H211807   1.195   4.179   2.709  0.5763 -0.9035 -0.2692
 3952TIP3   OH211808   1.100   0.110   3.733 -0.3339 -0.1658 -0.3858
 3952TIP3    H111809   1.073   0.038   3.791  0.9564 -0.5505 -0.2420
 3952TIP3    H211810   1.075   0.081   3.646 -0.6536 -0.3808 -0.2255
 3953TIP3   OH211811   0.937   0.034   1.562 -0.4581  0.4216  0.1107
 3953TIP3    H111812   0.934   0.129   1.553 -1.3777  0.1991 -2.1169
 3953TIP3    H211813   1.006   0.006   1.502 -0.5943 -0.3785  0.3229
 3954TIP3   OH211814   6.591   3.699   0.501  0.1240  0.5554 -0.2140
 3954TIP3    H111815   6.631   3.679   0.416  1.3618  0.4678  0.3763
 3954TIP3    H211816   6.660   3.681   0.564 -1.2615 -0.8120  0.9409
 3955TIP3   OH211817   7.674   4.962   3.614  0.7259  0.3595  0.5936
 3955TIP3    H111818   7.610   4.906   3.570  0.4604  0.1504  1.2423
 3955TIP3    H211819   7.702   5.024   3.547  0.1084  0.2260  0.2109
 3956TIP3   OH211820   2.346   4.289   3.699 -0.0727 -0.6383 -0.3272
 3956TIP3    H111821   2.374   4.249   3.781 -0.8264 -2.2366 -0.8275
 3956TIP3    H211822   2.257   4.322   3.717  0.5748  0.9131  0.1062
 3957TIP3   OH211823   7.851   6.109   3.570  0.0320  0.0661  0.2712
 3957TIP3    H111824   7.783   6.156   3.522 -0.7127  1.0037  2.1923
 3957TIP3    H211825   7.825   6.017   3.566  0.6845 -0.0554 -2.2063
 3958TIP3   OH211826   0.972   4.267   1.483 -0.0633 -0.5357 -0.1852
 3958TIP3    H111827   1.009   4.338   1.431 -1.7397 -0.8057 -1.8103
 3958TIP3    H211828   1.037   4.197   1.479  0.9669  0.3857  0.2569
 3959TIP3   OH211829   2.637   2.654   4.699  0.1309 -0.0858 -0.2457
 3959TIP3    H111830   2.660   2.680   4.788  0.7595 -1.6232  0.0654
 3959TIP3    H211831   2.673   2.723   4.644 -1.4876  1.6034  0.7721
 3960TIP3   OH211832  -0.006   6.842   3.076 -0.2464 -0.7145 -0.3957
 3960TIP3    H111833   0.017   6.913   3.137 -0.5718 -0.2787 -0.7836
 3960TIP3    H211834   0.038   6.866   2.995  0.2068 -1.3133 -0.3269
 3961TIP3   OH211835   6.542   0.449   2.089  0.2407 -0.0229  0.1751
 3961TIP3    H111836   6.569   0.511   2.022  3.4465 -0.9452  0.5264
 3961TIP3    H211837   6.478   0.498   2.142  0.2947  1.8756 -1.4447
 3962TIP3   OH211838   0.287   5.031   3.425  0.3390  0.6176 -0.7699
 3962TIP3    H111839   0.310   5.012   3.334  1.6983  0.5018 -0.4222
 3962TIP3    H211840   0.348   5.101   3.450 -0.7264  1.3757 -0.2667
 3963TIP3   OH211841   7.469   6.777   0.745 -0.2687 -0.2991  0.0762
 3963TIP3    H111842   7.485   6.711   0.677 -1.3667 -0.7216  0.2120
 3963TIP3    H211843   7.551   6.825   0.752  0.4469 -1.4688 -0.2326
 3964TIP3   OH211844   5.546   7.313   2.102  0.0467 -0.0502  0.0740
 3964TIP3    H111845   5.451   7.301   2.097  0.2400 -1.3795 -0.7133
 3964TIP3    H211846   5.573   7.260   2.178  0.3738 -1.1776 -0.8138
 3965TIP3   OH211847   0.909   5.904   2.186  0.0225  0.3458  0.6760
 3965TIP3    H111848   0.880   5.994   2.169  0.2351  0.3007  0.0601
 3965TIP3    H211849   0.831   5.859   2.218  0.0965  0.9428  1.7113
 3966TIP3   OH211850   1.361   5.304   1.902 -0.1512 -0.0382 -0.0892
 3966TIP3    H111851   1.330   5.218   1.931  0.1872 -0.6649 -1.5322
 3966TIP3    H211852   1.433   5.284   1.842  0.5551  1.2877  0.3152
 3967TIP3   OH211853   7.774   5.296   4.670 -0.2876 -0.3293  0.4386
 3967TIP3    H111854   7.813   5.355   4.605 -1.2458 -0.1539  0.0206
 3967TIP3    H211855   7.779   5.210   4.629  1.7998 -0.6721  1.3588
 3968TIP3   OH211856   1.735   5.878   2.059 -0.8256  0.3819  0.1588
 3968TIP3    H111857   1.720   5.882   1.964 -2.2438 -1.8441  0.2540
 3968TIP3    H211858   1.823   5.841   2.067 -0.2388  1.6408 -0.2783
 3969TIP3   OH211859   6.131   6.230   2.440 -0.3550 -0.1909  0.3246
 3969TIP3    H111860   6.139   6.311   2.490  0.6478  0.0687 -0.2621
 3969TIP3    H211861   6.186   6.167   2.487  0.6524  0.0751 -0.5035
 3970TIP3   OH211862   4.235   6.094   3.046  0.0699 -0.2996 -0.5844
 3970TIP3    H111863   4.243   6.114   2.953  1.3874  1.6536 -0.0738
 3970TIP3    H211864   4.189   6.169   3.084 -0.2616 -0.9755  0.3830
 3971TIP3   OH211865   0.287   5.466   3.262 -0.1437 -0.4241 -0.2582
 3971TIP3    H111866   0.262   5.449   3.353 -1.7062  0.7936 -0.4338
 3971TIP3    H211867   0.381   5.484   3.266  0.2202 -2.4891  0.8068
 3972TIP3   OH211868   0.276   4.657   1.170  0.3309 -0.1256 -0.0901
 3972TIP3    H111869   0.308   4.589   1.111  0.6227 -0.6963  0.7242
 3972TIP3    H211870   0.236   4.722   1.112 -1.1809 -1.6496 -0.7581
 3973TIP3   OH211871   1.633   4.607   3.669 -0.2150 -0.6910  0.4944
 3973TIP3    H111872   1.538   4.594   3.658 -0.0436 -1.2113 -0.4646
 3973TIP3    H211873   1.672   4.536   3.618  0.7242  1.1861 -1.4525
 3974TIP3   OH211874   6.745   4.504   0.783  0.3659 -0.0081  0.3589
 3974TIP3    H111875   6.796   4.436   0.827  0.7100 -0.2708 -0.4260
 3974TIP3    H211876   6.788   4.586   0.806  0.1353 -0.0820  1.0574
 3975TIP3   OH211877   1.903   6.411   4.058  0.4257 -0.3944 -0.4403
 3975TIP3    H111878   1.853   6.396   4.138 -0.3265 -1.1767 -1.0467
 3975TIP3    H211879   1.990   6.377   4.078  1.1014  2.0429  1.0239
 3976TIP3   OH211880   0.727   6.000   0.957  0.2384  0.0570 -0.1929
 3976TIP3    H111881   0.796   6.026   0.895  0.6598 -0.9501 -0.1684
 3976TIP3    H211882   0.656   6.061   0.942  0.5610  0.1680 -1.2908
 3977TIP3   OH211883   2.825  -0.024   3.691 -0.0429 -0.0464  0.5201
 3977TIP3    H111884   2.745   0.017   3.726  0.0811  2.3951 -1.9355
 3977TIP3    H211885   2.885   0.049   3.677  1.7166 -1.5739 -0.0680
 3978TIP3   OH211886   1.390   4.630   4.649 -0.1193  0.1217  0.2771
 3978TIP3    H111887   1.445   4.591   4.581 -0.5302  0.1643 -0.0764
 3978TIP3    H211888   1.300   4.618   4.618 -0.3223 -0.1597  0.9670
 3979TIP3   OH211889   0.042   7.296   1.696  0.7204 -0.0398 -0.0938
 3979TIP3    H111890   0.074   7.217   1.653  0.2168 -1.2596  1.7106
 3979TIP3    H211891   0.007   7.349   1.625 -0.7281 -2.3052 -1.1334
 3980TIP3   OH211892   7.807   4.237   1.458 -0.9584 -0.0734  0.3479
 3980TIP3    H111893   7.806   4.331   1.445  0.5479 -0.2511 -1.3044
 3980TIP3    H211894   7.748   4.203   1.390  0.8693 -0.4971 -1.0753
 3981TIP3   OH211895   6.486   4.458   0.687 -0.0140  0.0054  1.2544
 3981TIP3    H111896   6.475   4.433   0.596  0.5801  0.9155  0.9309
 3981TIP3    H211897   6.580   4.471   0.698  0.0171 -0.8750  2.2123
 3982TIP3   OH211898   1.444   4.871   3.078 -0.0260  0.1031  0.5574
 3982TIP3    H111899   1.453   4.935   3.008 -0.1374 -1.0218 -0.5180
 3982TIP3    H211900   1.354   4.839   3.068 -0.3374  0.5892  1.7919
 3983TIP3   OH211901   2.103   5.269   3.296  0.5418 -0.1234  0.0314
 3983TIP3    H111902   2.119   5.191   3.350 -0.4812  0.7418  1.6431
 3983TIP3    H211903   2.010   5.261   3.271  1.1484 -0.7994 -2.1003
 3984TIP3   OH211904   5.387   0.171   3.240 -0.3043 -0.1602 -0.3822
 3984TIP3    H111905   5.400   0.109   3.312  0.8736  0.0896 -0.3770
 3984TIP3    H211906   5.459   0.153   3.179  1.2152  2.4976  0.5411
 3985TIP3   OH211907  -0.008   6.541   2.228  0.3246 -0.1919 -0.1452
 3985TIP3    H111908   0.047   6.463   2.233  0.3898 -0.1547 -0.2839
 3985TIP3    H211909  -0.032   6.548   2.135 -1.5105 -1.3176  0.2330
 3986TIP3   OH211910   7.340   3.747   3.222  0.0552 -0.0869 -0.2888
 3986TIP3    H111911   7.284   3.672   3.238  0.3870 -0.3310 -0.2675
 3986TIP3    H211912   7.414   3.712   3.172  1.3757 -0.2316  1.7145
 3987TIP3   OH211913   7.047   5.519   4.235 -0.6172  0.8458  0.2877
 3987TIP3    H111914   6.968   5.554   4.193  0.0051  0.8314 -0.9330
 3987TIP3    H211915   7.029   5.425   4.246 -0.0104  0.4517 -1.8339
 3988TIP3   OH211916   0.339   5.580   3.826  0.0768  0.2217 -0.1208
 3988TIP3    H111917   0.283   5.588   3.903 -0.6348 -0.4272 -0.5732
 3988TIP3    H211918   0.334   5.487   3.801 -1.2686  0.8081 -2.1339
 3989TIP3   OH211919   7.549   4.275   2.285 -0.2833  0.0599  0.0848
 3989TIP3    H111920   7.529   4.325   2.364 -1.6819 -1.4722  0.7145
 3989TIP3    H211921   7.488   4.309   2.219 -1.2358 -0.7959  0.5134
 3990TIP3   OH211922   6.997   5.400   2.390  0.0721 -0.0812  0.7016
 3990TIP3    H111923   6.906   5.376   2.409 -0.1859  1.3816  1.3750
 3990TIP3    H211924   7.019   5.466   2.457  1.4914 -0.1319  0.2969
 3991TIP3   OH211925   7.477   6.020   3.640 -0.1775 -0.5396 -0.4017
 3991TIP3    H111926   7.476   5.940   3.693 -0.7440  0.3512  0.9643
 3991TIP3    H211927   7.566   6.025   3.606 -0.2397 -1.9447 -0.8003
 3992TIP3   OH211928   2.353   4.576   3.195 -0.2087 -0.3051 -0.2837
 3992TIP3    H111929   2.438   4.541   3.221 -1.7231 -1.7602  2.9351
 3992TIP3    H211930   2.289   4.512   3.226 -2.5596  1.0965 -2.0001
 3993TIP3   OH211931   7.098   5.506   2.848  0.2529  0.3053 -0.0179
 3993TIP3    H111932   7.007   5.537   2.846  0.2188  0.1854 -0.4386
 3993TIP3    H211933   7.096   5.429   2.904  0.5076  1.5862  1.7753
 3994TIP3   OH211934   0.609   6.825   3.828  0.5675 -0.4002  0.7359
 3994TIP3    H111935   0.657   6.879   3.765 -0.7187  1.2290  1.1237
 3994TIP3    H211936   0.657   6.742   3.829  2.8098  0.8505  0.4049
 3995TIP3   OH211937   1.493   3.208   0.404  0.3617 -0.1570  0.0805
 3995TIP3    H111938   1.536   3.290   0.428 -1.3271  0.3371  1.5438
 3995TIP3    H211939   1.460   3.173   0.487  0.9244 -2.2516 -0.5446
 3996TIP3   OH211940   7.098   6.943   2.049 -0.1669  0.2808  0.3609
 3996TIP3    H111941   7.010   6.935   2.087 -0.0465 -0.8665  0.4157
 3996TIP3    H211942   7.092   6.896   1.966  0.8851 -1.4045  1.2125
 3997TIP3   OH211943   1.132   5.284   0.013  0.6850  0.3168  0.0657
 3997TIP3    H111944   1.223   5.256   0.023  0.4451 -0.2695  0.6009
 3997TIP3    H211945   1.108   5.318   0.099 -0.8475 -3.1571  1.0936
 3998TIP3   OH211946   1.651   3.469   2.171  0.0161 -0.1356 -0.7696
 3998TIP3    H111947   1.710   3.455   2.097  0.2383 -0.4931 -0.5288
 3998TIP3    H211948   1.678   3.553   2.208 -1.2105  0.8665 -2.1223
 3999TIP3   OH211949   2.955   0.387   2.789 -0.2768 -0.3643  0.2191
 3999TIP3    H111950   2.903   0.310   2.813  0.9402 -1.7704 -1.4609
 3999TIP3    H211951   3.045   0.354   2.785 -0.1199  0.3389 -3.7408
 4000TIP3   OH211952   0.936   5.480   4.019  0.7396  0.1415 -0.6496
 4000TIP3    H111953   1.030   5.468   4.007  0.7818 -1.6735  1.3214
 4000TIP3    H211954   0.928   5.533   4.098  0.1166  1.0646 -1.3166
 4001TIP3   OH211955   1.254   0.420   3.098  0.3198  0.5266 -0.5067
 4001TIP3    H111956   1.228   0.511   3.112  2.0901  0.8498  0.8595
 4001TIP3    H211957   1.349   0.422   3.098  0.3911 -1.5365  0.9913
 4002TIP3   OH211958   7.696   6.025   1.949  0.0541 -0.0753 -0.5669
 4002TIP3    H111959   7.675   6.002   1.858 -0.8040 -2.2642  0.1558
 4002TIP3    H211960   7.723   5.942   1.989  0.2522  0.8386  1.2180
 4003TIP3   OH211961   6.885   6.107   2.643  0.3702  0.0983  0.6829
 4003TIP3    H111962   6.833   6.079   2.717  1.0605  0.3862  1.2831
 4003TIP3    H211963   6.868   6.201   2.636  1.1256  0.2782  1.1499
 4004TIP3   OH211964   7.241   6.560   2.482 -0.2161  0.2589  0.6961
 4004TIP3    H111965   7.259   6.654   2.489  0.9465  0.2303 -1.4857
 4004TIP3    H211966   7.328   6.519   2.484 -0.4611 -0.4838 -1.7966
 4005TIP3   OH211967   1.072   4.882   4.339 -0.4889 -0.0040 -0.0161
 4005TIP3    H111968   1.065   4.928   4.423  0.7622  1.9634 -0.9589
 4005TIP3    H211969   1.153   4.832   4.345 -0.2859  0.3080 -0.1100
 4006TIP3   OH211970   0.131   4.755   4.145 -0.1092  0.0836 -0.1206
 4006TIP3    H111971   0.056   4.771   4.088 -0.0312  0.4790 -0.1130
 4006TIP3    H211972   0.184   4.834   4.137 -0.6327  0.5850  1.3350
 4007TIP3   OH211973   1.368   6.556   3.078  0.1874 -0.1288 -0.4765
 4007TIP3    H111974   1.288   6.594   3.113 -1.1199 -0.1109 -3.3410
 4007TIP3    H211975   1.437   6.618   3.103 -0.8430  0.4096  1.0790
 4008TIP3   OH211976   7.728   6.705   2.504 -0.2023 -0.9833 -0.4701
 4008TIP3    H111977   7.766   6.618   2.517 -0.5917 -0.9176  1.1665
 4008TIP3    H211978   7.647   6.689   2.456 -0.9218 -1.6648  0.9288
 4009TIP3   OH211979   7.167   5.240   3.640  0.0825  0.0388  0.5950
 4009TIP3    H111980   7.255   5.211   3.619 -0.2030 -0.7789  0.5261
 4009TIP3    H211981   7.109   5.187   3.585 -0.4515  0.6440  0.5549
 4010TIP3   OH211982   5.209   5.226   0.874 -0.1900  0.2517  0.5630
 4010TIP3    H111983   5.253   5.243   0.958 -0.9982 -1.6782  1.4035
 4010TIP3    H211984   5.204   5.131   0.869 -0.2719  0.3600 -1.6437
 4011TIP3   OH211985   0.747   7.302   3.572 -0.4840  0.4737  1.0398
 4011TIP3    H111986   0.670   7.260   3.610 -1.4521  0.2267 -1.1330
 4011TIP3    H211987   0.818   7.242   3.590 -1.2789 -0.5668  0.7684
 4012TIP3   OH211988   1.369   0.102   3.872  0.1600  0.5046 -0.1210
 4012TIP3    H111989   1.300   0.114   3.806  0.5587  0.3326 -0.5677
 4012TIP3    H211990   1.380   0.007   3.878 -0.1430  0.5032  0.4758
 4013TIP3   OH211991   7.372   5.317   1.265 -0.1392 -0.0306 -0.3436
 4013TIP3    H111992   7.357   5.392   1.208 -1.0881  0.2099  0.2093
 4013TIP3    H211993   7.385   5.244   1.204 -2.9125 -0.1204 -0.9253
 4014TIP3   OH211994   7.899   5.421   0.730  0.0591  0.1219  0.3237
 4014TIP3    H111995   7.939   5.339   0.702  0.1373  0.6645 -1.1720
 4014TIP3    H211996   7.838   5.444   0.660  0.9229  1.9615  0.1440
 4015TIP3   OH211997   6.678   5.987   4.290  0.3308  0.4031 -0.0537
 4015TIP3    H111998   6.643   6.066   4.249  0.0489  1.4916  2.2538
 4015TIP3    H211999   6.601   5.940   4.322  0.5136 -0.7215 -1.2117
 4016TIP3   OH212000   7.702   6.764   3.495  0.1697 -0.0544 -0.1826
 4016TIP3    H112001   7.781   6.818   3.499  3.1236 -3.7474 -3.8823
 4016TIP3    H212002   7.717   6.696   3.561  0.4868 -1.1457 -1.3484
 4017TIP3   OH212003   0.867   5.733   3.220  0.1318 -0.2664 -0.3350
 4017TIP3    H112004   0.869   5.829   3.215 -1.2396 -0.2662 -0.9686
 4017TIP3    H212005   0.931   5.705   3.154  1.0117  0.2171  0.3035
 4018TIP3   OH212006   7.430   6.789   3.316  0.2295  0.4447 -0.2531
 4018TIP3    H112007   7.468   6.796   3.228 -0.6708  2.7157 -0.4852
 4018TIP3    H212008   7.505   6.796   3.375  0.9346 -1.8599 -0.8248
 4019TIP3   OH212009   6.250   5.612   3.093  1.0809  0.3516  0.0221
 4019TIP3    H112010   6.186   5.652   3.152  2.7733  2.4815  0.4820
 4019TIP3    H212011   6.213   5.624   3.006 -0.1970 -0.4768  0.4279
 4020TIP3   OH212012   1.135   3.889   1.681  0.4651  0.3230  0.1310
 4020TIP3    H112013   1.144   3.915   1.589 -2.4986 -1.5324 -0.7451
 4020TIP3    H212014   1.091   3.964   1.722  0.8846  0.7412 -0.1721
 4021TIP3   OH212015   0.925   4.685   3.652 -0.1905  0.3450  0.3647
 4021TIP3    H112016   0.874   4.611   3.619  1.0690 -1.0229  1.4187
 4021TIP3    H212017   0.923   4.675   3.748 -0.9290  2.2987  0.5616
 4022TIP3   OH212018   0.856   4.458   4.257  0.4531 -0.5375 -0.6939
 4022TIP3    H112019   0.923   4.455   4.189  0.6213 -1.0286 -0.5105
 4022TIP3    H212020   0.905   4.448   4.339  0.5933  3.0367 -0.2860
 4023TIP3   OH212021   2.569   6.634   3.779  0.1454  0.2781 -0.4803
 4023TIP3    H112022   2.597   6.625   3.870  0.9349  0.6791 -0.6712
 4023TIP3    H212023   2.623   6.571   3.731  0.2996  0.6287 -0.7737
 4024TIP3   OH212024   2.752   0.345   3.602  0.7094  0.6954 -0.2447
 4024TIP3    H112025   2.797   0.406   3.660  0.1072  0.4814  0.4557
 4024TIP3    H212026   2.815   0.275   3.586  0.4473  0.1269  1.1642
 4025TIP3   OH212027   6.039   5.747   4.668 -0.2276  0.1416 -0.1966
 4025TIP3    H112028   6.057   5.816   4.732 -1.7687 -1.6166  2.1983
 4025TIP3    H212029   5.952   5.768   4.634 -0.5460 -0.4414  0.2681
 4026TIP3   OH212030   6.942   5.007   4.243  0.1187  0.3455  0.0687
 4026TIP3    H112031   6.895   4.988   4.324  1.4208 -0.5453  0.6305
 4026TIP3    H212032   7.034   4.989   4.263  0.3315 -1.0426 -1.9486
 4027TIP3   OH212033   0.216   4.713   1.461 -0.6316  0.1234  0.5720
 4027TIP3    H112034   0.225   4.695   1.368 -2.0280 -0.6132  0.5656
 4027TIP3    H212035   0.306   4.719   1.494 -0.1415 -0.5566 -0.6400
 4028TIP3   OH212036   7.617   7.388   4.371 -0.3358  0.2917 -0.7800
 4028TIP3    H112037   7.661   7.313   4.410  0.8138  1.3050 -0.0978
 4028TIP3    H212038   7.525   7.363   4.369 -0.0552 -0.8517  0.1045
 4029TIP3   OH212039   6.901   6.218   0.848  0.0563 -0.1583  0.1671
 4029TIP3    H112040   6.905   6.125   0.870  2.8025  0.0234  0.6283
 4029TIP3    H212041   6.903   6.219   0.752  2.3854 -0.5372  0.1839
 4030TIP3   OH212042   7.316   6.310   2.113 -0.2458  0.2238  0.1152
 4030TIP3    H112043   7.265   6.245   2.065 -0.3287  1.2506 -1.1973
 4030TIP3    H212044   7.251   6.358   2.164 -0.4341  0.7258 -0.6057
 4031TIP3   OH212045   7.431   5.920   5.973  0.5941 -0.2092 -0.5532
 4031TIP3    H112046   7.383   5.995   6.009  0.2467 -0.3416 -0.7328
 4031TIP3    H212047   7.514   5.919   6.021  0.8308  0.6246 -0.9361
 4032TIP3   OH212048   7.474   6.057   5.747 -0.2190  0.2295 -0.6023
 4032TIP3    H112049   7.396   6.041   5.694  0.2316 -0.4541 -1.0594
 4032TIP3    H212050   7.458   6.009   5.829 -0.0618 -0.3163 -0.8919
 4033TIP3   OH212051   6.939   5.702   2.304  0.3399  0.0407  0.2233
 4033TIP3    H112052   6.960   5.688   2.396  1.8249  3.2595  0.4460
 4033TIP3    H212053   7.012   5.663   2.256  1.1394  1.1165  0.5508
 4034TIP3   OH212054   6.333   4.077   1.241 -0.2430  0.1341  0.6908
 4034TIP3    H112055   6.297   4.166   1.241 -1.3775 -0.3148  1.7824
 4034TIP3    H212056   6.258   4.021   1.222  0.2871 -0.6650  0.9497
 4035TIP3   OH212057   7.365   6.411   3.587  0.2558  0.2005 -0.3515
 4035TIP3    H112058   7.402   6.433   3.501  0.9425 -0.8533 -0.3367
 4035TIP3    H212059   7.271   6.422   3.576  0.5343  2.8574 -0.4124
 4036TIP3   OH212060   2.901   4.880   3.509  0.1088  0.1485 -0.7186
 4036TIP3    H112061   2.873   4.936   3.581  1.2664 -0.7513  0.4628
 4036TIP3    H212062   2.982   4.839   3.541  0.3976 -0.5984 -2.3584
 4037TIP3   OH212063   1.815   0.167   4.953  0.1718 -0.5674  0.1035
 4037TIP3    H112064   1.809   0.245   4.898  1.3861  0.7020  1.7200
 4037TIP3    H212065   1.871   0.107   4.903  0.4591  0.1914 -0.4930
 4038TIP3   OH212066   0.733   6.505   2.178  0.0768 -0.0527  0.3131
 4038TIP3    H112067   0.801   6.511   2.245  0.4754  0.7509 -0.1626
 4038TIP3    H212068   0.722   6.595   2.146  0.8691 -0.6458 -1.6895
 4039TIP3   OH212069   1.608   0.059   3.348  0.2984  0.6381 -0.0418
 4039TIP3    H112070   1.668   0.132   3.334  0.4167  0.7293  0.9466
 4039TIP3    H212071   1.525   0.101   3.371  0.7019  0.4352  1.8124
 4040TIP3   OH212072   7.779   5.644   2.658  0.0633 -0.7512 -0.0778
 4040TIP3    H112073   7.793   5.662   2.751 -2.1509  2.0181 -0.2453
 4040TIP3    H212074   7.690   5.608   2.653 -0.8166  1.5044 -1.3713
 4041TIP3   OH212075   7.429   3.676   6.368 -0.1700  0.1996 -0.0800
 4041TIP3    H112076   7.376   3.623   6.428  0.9189  2.2127  2.7467
 4041TIP3    H212077   7.390   3.763   6.371 -0.6344  0.1423 -3.0277
 4042TIP3   OH212078   2.951   5.159   2.506 -0.4062 -0.2403  0.2297
 4042TIP3    H112079   2.971   5.136   2.596 -1.4876 -1.5088  0.1567
 4042TIP3    H212080   3.019   5.117   2.454  1.3522  2.0804  0.5672
 4043TIP3   OH212081   1.016   5.069   2.298  0.1838  0.3412 -0.0823
 4043TIP3    H112082   1.099   5.022   2.284  0.3638 -0.0836  2.2416
 4043TIP3    H212083   0.951   5.016   2.250  1.0551  0.0404 -0.9576
 4044TIP3   OH212084   7.166   6.187   3.144 -0.3134 -0.2603 -0.2453
 4044TIP3    H112085   7.250   6.159   3.107  1.2652  0.0658  2.9152
 4044TIP3    H212086   7.103   6.123   3.110  1.4156 -1.2980 -1.6089
 4045TIP3   OH212087   0.349   4.788   0.322  0.2209 -0.2175  0.3577
 4045TIP3    H112088   0.383   4.815   0.407 -0.7787  1.3513  0.2800
 4045TIP3    H212089   0.284   4.720   0.342  0.7246 -0.5753  0.7727
 4046TIP3   OH212090   6.967   4.938   0.796 -0.4438  0.0416 -0.1817
 4046TIP3    H112091   7.035   5.001   0.773 -0.3496 -0.4965 -1.4193
 4046TIP3    H212092   6.899   4.951   0.730 -0.5698 -0.9292 -0.2416
 4047TIP3   OH212093   1.441   5.008   3.742  0.2148 -0.6441 -0.2799
 4047TIP3    H112094   1.440   4.982   3.650  0.9399 -1.6447 -0.0165
 4047TIP3    H212095   1.390   5.089   3.745 -0.1766 -0.8377 -1.4889
 4048TIP3   OH212096   4.066   6.794   5.521 -0.0814  0.4343  0.4567
 4048TIP3    H112097   3.998   6.741   5.563  1.4232 -0.1251  2.2305
 4048TIP3    H212098   4.145   6.740   5.525  0.9620  1.9081  0.2986
 4049TIP3   OH212099   0.135   3.612   2.810  0.2547 -0.2641 -0.0589
 4049TIP3    H112100   0.143   3.706   2.825 -0.2716 -0.4715  1.6367
 4049TIP3    H212101   0.192   3.595   2.736 -0.4015  1.5588 -1.0184
 4050TIP3   OH212102   0.841   2.202   4.573  0.0513  0.9488 -0.0499
 4050TIP3    H112103   0.875   2.113   4.580 -0.2504  0.6184 -2.2713
 4050TIP3    H212104   0.913   2.258   4.600  0.7473  0.0761 -0.0855
 4051TIP3   OH212105   2.057   5.109   1.821  0.2604  0.1055  0.4294
 4051TIP3    H112106   2.049   5.135   1.730 -0.4893 -0.1019  0.4310
 4051TIP3    H212107   1.978   5.056   1.838  0.9912 -0.8739  0.8417
 4052TIP3   OH212108   0.070   5.635   4.046 -0.0547  0.0005 -0.4318
 4052TIP3    H112109   0.000   5.617   4.109  1.6157 -0.3760  1.3773
 4052TIP3    H212110   0.035   5.607   3.961 -1.8037 -0.8768  0.5641
 4053TIP3   OH212111   6.550   6.269   4.178 -0.7540  0.8842  0.0920
 4053TIP3    H112112   6.467   6.254   4.224 -0.7976 -0.4891 -0.3917
 4053TIP3    H212113   6.591   6.340   4.225 -1.6936  0.8100  1.0529
 4054TIP3   OH212114   2.424   3.488   1.210  0.4090  0.4499  0.1094
 4054TIP3    H112115   2.344   3.533   1.183  0.6248  1.0224  0.4110
 4054TIP3    H212116   2.452   3.534   1.289  1.4965  0.8083 -0.4685
 4055TIP3   OH212117   2.591   0.518   2.524 -0.3637 -0.3016  0.2922
 4055TIP3    H112118   2.548   0.594   2.564  0.3696  1.2281 -1.7348
 4055TIP3    H212119   2.672   0.553   2.487  0.8921 -2.4536  0.9234
 4056TIP3   OH212120   6.131   7.427   0.380 -0.0491 -0.4910  0.0186
 4056TIP3    H112121   6.142   7.335   0.407  1.1374 -0.2461  0.4250
 4056TIP3    H212122   6.177   7.432   0.296  1.4754  0.1481  0.8776
 4057TIP3   OH212123   2.434   5.503   4.546 -0.7033  0.4628 -0.0882
 4057TIP3    H112124   2.428   5.423   4.597 -2.2145  0.2357 -0.5856
 4057TIP3    H212125   2.355   5.502   4.490 -1.0057  2.5148  0.2598
 4058TIP3   OH212126   0.762   7.090   2.076  0.6845 -0.6089  0.0433
 4058TIP3    H112127   0.826   7.036   2.123 -0.0067 -1.2400  0.2589
 4058TIP3    H212128   0.808   7.173   2.061  1.2057 -0.6995  1.0821
 4059TIP3   OH212129   7.202   6.583   1.350  0.4349 -0.4787  0.2478
 4059TIP3    H112130   7.293   6.575   1.321  0.4216  1.9965 -0.6546
 4059TIP3    H212131   7.209   6.611   1.441  0.5981 -0.4212  0.2188
 4060TIP3   OH212132   2.666   6.126   1.707  0.3389 -0.2823 -0.0590
 4060TIP3    H112133   2.732   6.196   1.708 -0.4063  0.4340  2.3429
 4060TIP3    H212134   2.596   6.161   1.652  2.0331 -1.1760 -2.8937
 4061TIP3   OH212135   7.769   6.323   2.933  0.2695  0.1128 -0.5854
 4061TIP3    H112136   7.838   6.257   2.925  0.1578 -0.1019  0.1343
 4061TIP3    H212137   7.810   6.404   2.903  1.2396  0.2363  0.9731
 4062TIP3   OH212138   1.881   4.289   1.867  0.3827 -0.0829  1.1814
 4062TIP3    H112139   1.874   4.346   1.791  0.2817  0.7073  1.7828
 4062TIP3    H212140   1.975   4.274   1.877  0.5947  1.8479  2.3900
 4063TIP3   OH212141   0.461   5.179   4.174  0.1053  0.3452  0.3285
 4063TIP3    H112142   0.417   5.175   4.089  1.0821  0.8934 -0.2058
 4063TIP3    H212143   0.554   5.189   4.152  0.7510 -2.6598  1.3934
 4064TIP3   OH212144   6.879   6.616   2.284 -0.1886  0.9658 -0.3311
 4064TIP3    H112145   6.825   6.573   2.350  0.3574 -0.8496 -1.0282
 4064TIP3    H212146   6.830   6.607   2.202  0.8214 -0.0771 -0.8362
 4065TIP3   OH212147   0.041   6.777   0.778  0.1429 -0.2373 -0.0818
 4065TIP3    H112148  -0.034   6.781   0.719  0.3538 -1.3654 -0.4210
 4065TIP3    H212149   0.076   6.866   0.777 -0.1992 -0.1086 -1.2108
 4066TIP3   OH212150   2.718   5.035   0.830  0.4210 -0.7335  0.2430
 4066TIP3    H112151   2.623   5.045   0.836  0.5444  0.4996  0.3038
 4066TIP3    H212152   2.733   4.996   0.744 -0.1440 -1.0782  0.2967
 4067TIP3   OH212153   1.126   4.320   1.263  0.2550 -0.0150  0.5778
 4067TIP3    H112154   1.194   4.259   1.234  1.1050  0.3818  1.7213
 4067TIP3    H212155   1.052   4.302   1.205  1.4669 -0.1705 -0.9431
 4068TIP3   OH212156   2.584   4.609   0.988 -0.4431  0.3858 -0.3557
 4068TIP3    H112157   2.521   4.556   1.037  1.2331  0.0130  1.4439
 4068TIP3    H212158   2.563   4.699   1.012  0.9396  0.1647  1.8227
 4069TIP3   OH212159   1.096   6.356   3.925  0.1063 -0.7483  0.0657
 4069TIP3    H112160   1.132   6.331   3.840  0.5597 -0.4988  0.1843
 4069TIP3    H212161   1.093   6.451   3.923  0.5359 -0.7220  0.4987
 4070TIP3   OH212162   3.142   3.871   1.054 -0.8058  0.0757 -0.0582
 4070TIP3    H112163   3.069   3.920   1.093  0.1435  1.3886  0.0896
 4070TIP3    H212164   3.192   3.838   1.128 -2.2244 -2.3815 -0.1284
 4071TIP3   OH212165   2.220   6.805   1.912 -0.6133 -0.0080 -0.2071
 4071TIP3    H112166   2.164   6.732   1.941 -1.8720  0.0958 -2.3229
 4071TIP3    H212167   2.309   6.769   1.914 -0.7957 -0.4093  2.4600
 4072TIP3   OH212168   1.113   6.218   2.730 -0.2443 -0.7263 -0.6845
 4072TIP3    H112169   1.155   6.296   2.767  0.5572 -1.1935 -0.5828
 4072TIP3    H212170   1.179   6.149   2.740 -0.5174 -1.1636 -1.7862
 4073TIP3   OH212171   7.635   1.163   6.202  0.6801 -0.7491 -0.2941
 4073TIP3    H112172   7.544   1.132   6.203  0.7361 -1.0539 -2.2611
 4073TIP3    H212173   7.662   1.154   6.111  1.2395  3.6096 -0.6545
 4074TIP3   OH212174   3.397   4.051   1.628 -0.1307  0.5762 -0.0538
 4074TIP3    H112175   3.411   4.144   1.645  1.1135  0.6373 -1.3378
 4074TIP3    H212176   3.484   4.012   1.634 -0.4604 -0.2937 -0.8243
 4075TIP3   OH212177   2.656   5.854   2.271 -0.0180 -0.3537 -0.4428
 4075TIP3    H112178   2.582   5.812   2.315 -0.4016  0.6522 -0.1356
 4075TIP3    H212179   2.682   5.790   2.204 -1.3402 -0.5895 -0.7511
 4076TIP3   OH212180   2.140   4.563   0.900  0.3004  0.4094 -0.0710
 4076TIP3    H112181   2.075   4.582   0.832  0.1821 -1.9201 -0.6320
 4076TIP3    H212182   2.189   4.645   0.909 -0.1078  0.9682 -2.5128
 4077TIP3   OH212183   5.209   0.775   2.917  0.3201  0.1142 -0.1303
 4077TIP3    H112184   5.172   0.710   2.978  0.1432  1.1435  0.8831
 4077TIP3    H212185   5.132   0.822   2.884  0.5095  0.4035 -0.1612
 4078TIP3   OH212186   2.899   4.836   2.023  0.0792 -0.3744 -0.1688
 4078TIP3    H112187   2.947   4.842   2.106  0.9639  0.7027 -0.7535
 4078TIP3    H212188   2.817   4.793   2.047 -0.5898  1.7996  1.6881
 4079TIP3   OH212189   5.291   0.059   1.632  0.0362  0.0805  0.6050
 4079TIP3    H112190   5.266   0.151   1.635  0.3753  0.2041 -0.3822
 4079TIP3    H212191   5.386   0.061   1.620  0.3339 -0.3905  2.6099
 4080TIP3   OH212192   7.763   6.453   1.969  0.2938 -0.0450  0.1834
 4080TIP3    H112193   7.817   6.528   1.944  0.1705  0.2765  0.8690
 4080TIP3    H212194   7.692   6.452   1.905 -0.7380  1.5506  1.2593
 4081TIP3   OH212195   1.554   7.387   2.603 -0.3235 -0.9365 -0.4355
 4081TIP3    H112196   1.603   7.382   2.521  0.4031  2.9574 -0.3334
 4081TIP3    H212197   1.463   7.398   2.576  0.1259  2.2604 -0.8373
 4082TIP3   OH212198   3.024   5.183   1.772 -0.8833 -0.1626  0.4236
 4082TIP3    H112199   3.001   5.237   1.697  0.3566 -0.0234  0.1259
 4082TIP3    H212200   3.080   5.239   1.826  0.3134 -1.0960  0.1737
 4083TIP3   OH212201   2.616   3.470   0.958  0.1386  0.3848 -0.1702
 4083TIP3    H112202   2.649   3.408   1.023  0.4578 -0.3361 -1.0051
 4083TIP3    H212203   2.579   3.542   1.010 -1.5186 -1.1536  0.8214
 4084TIP3   OH212204   2.685   3.202   1.385  0.3444 -0.1644  0.1571
 4084TIP3    H112205   2.667   3.116   1.422 -1.1345  0.1589  0.2211
 4084TIP3    H212206   2.677   3.262   1.459  1.3208  0.0384  0.1039
 4085TIP3   OH212207   4.523  -0.014   3.345  0.4509  0.1539 -0.3867
 4085TIP3    H112208   4.434   0.003   3.313  0.3091 -0.7070 -0.4863
 4085TIP3    H212209   4.564   0.072   3.351 -0.1513  0.4903 -1.0475
 4086TIP3   OH212210   0.040   6.474   3.810  0.0474 -0.2088 -0.1726
 4086TIP3    H112211   0.008   6.484   3.720  0.9737 -1.3083 -0.6378
 4086TIP3    H212212  -0.026   6.420   3.853  0.1238 -0.5347 -0.4706
 4087TIP3   OH212213   1.976   7.072   2.741  0.5395  0.0378 -0.1706
 4087TIP3    H112214   2.048   7.024   2.782  0.6506 -2.1703 -2.7853
 4087TIP3    H212215   2.007   7.163   2.737  2.2824 -0.4830  0.6653
 4088TIP3   OH212216   1.039   3.320   2.677 -0.0517 -0.1128  0.1659
 4088TIP3    H112217   1.004   3.281   2.597 -1.6468 -0.1831  0.8937
 4088TIP3    H212218   1.098   3.389   2.646 -1.0133  0.1648 -1.0748
 4089TIP3   OH212219   1.603   3.963   1.988  0.4244 -0.0448  0.3074
 4089TIP3    H112220   1.670   3.899   1.965  0.0873 -0.0954 -0.5570
 4089TIP3    H212221   1.538   3.956   1.918 -0.5383 -0.0671  1.1890
 4090TIP3   OH212222   2.694   4.145   2.505  0.2074  0.4651 -0.3570
 4090TIP3    H112223   2.645   4.131   2.585 -0.1930  3.4062 -0.0156
 4090TIP3    H212224   2.771   4.196   2.532  1.9142 -1.5358 -1.3300
 4091TIP3   OH212225   1.423   4.202   1.478  0.1350 -0.2120  0.4685
 4091TIP3    H112226   1.494   4.222   1.539 -0.7654  0.9743  1.1434
 4091TIP3    H212227   1.459   4.224   1.392  1.3809 -1.8162  0.5650
 4092TIP3   OH212228   0.360   5.831   2.664 -0.2853 -0.3293  0.2743
 4092TIP3    H112229   0.415   5.790   2.597  1.8436  1.1908  1.0482
 4092TIP3    H212230   0.358   5.767   2.735  1.7715  0.2112  0.8560
 4093TIP3   OH212231   1.227   6.066   3.000  0.1117  0.1523  0.3227
 4093TIP3    H112232   1.257   6.020   2.921 -0.4369  1.8053 -0.8741
 4093TIP3    H212233   1.271   6.150   2.997  0.4450  0.0530  2.0514
 4094TIP3   OH212234   1.282   4.374   3.938  0.7495 -0.4390  0.4152
 4094TIP3    H112235   1.341   4.441   3.971  0.6441 -0.8278  1.4014
 4094TIP3    H212236   1.195   4.402   3.968  0.8730 -1.7529  2.0683
 4095TIP3   OH212237   1.809   4.155   2.889 -0.1281 -0.1126  0.1449
 4095TIP3    H112238   1.761   4.162   2.971  0.2904  1.1270  0.2892
 4095TIP3    H212239   1.817   4.245   2.857  1.5576 -0.3601 -0.1917
 4096TIP3   OH212240   0.129   6.245   4.105 -0.1789  0.4083 -0.0167
 4096TIP3    H112241   0.094   6.326   4.143  0.0188  0.4033  0.1743
 4096TIP3    H212242   0.137   6.185   4.180  0.5434  0.5144 -0.0088
 4097TIP3   OH212243   2.979   6.659   0.100  0.4820  0.2144 -0.0633
 4097TIP3    H112244   3.045   6.601   0.061  0.9464 -1.1815  2.7180
 4097TIP3    H212245   2.951   6.715   0.027  3.7140 -0.0923 -1.6417
 4098TIP3   OH212246   0.054   7.031   2.221  0.1990  0.0141 -0.6879
 4098TIP3    H112247   0.083   6.945   2.252 -0.5057  0.7342  2.1089
 4098TIP3    H212248  -0.041   7.030   2.231  0.0306  0.5895 -2.0918
 4099TIP3   OH212249   0.978   6.271   2.482 -0.1811  0.3578  0.1607
 4099TIP3    H112250   1.013   6.287   2.570  0.8100 -0.6606 -0.0405
 4099TIP3    H212251   0.983   6.176   2.471 -0.5216  0.4559 -0.9069
 4100TIP3   OH212252   2.421   5.709   2.202  0.4809 -0.0295 -0.3114
 4100TIP3    H112253   2.377   5.626   2.185  2.9748 -1.4164 -0.1803
 4100TIP3    H212254   2.402   5.763   2.125  0.0434 -1.2292 -1.0488
 4101TIP3   OH212255   5.408   3.761   2.960  0.3632  0.7255 -0.0418
 4101TIP3    H112256   5.433   3.845   2.999 -1.0406  2.2755 -2.3570
 4101TIP3    H212257   5.314   3.770   2.943  0.0539 -1.5826  0.2555
 4102TIP3   OH212258   0.301   6.380   3.772 -0.8499  0.4792  0.3219
 4102TIP3    H112259   0.230   6.421   3.821 -2.1204 -1.4932  0.1998
 4102TIP3    H212260   0.271   6.290   3.758  2.2663 -0.8084  1.4786
 4103TIP3   OH212261   1.335   5.112   3.452  0.3804  0.2261  0.2988
 4103TIP3    H112262   1.273   5.056   3.404 -1.5705  1.5408  1.2366
 4103TIP3    H212263   1.404   5.130   3.388 -1.3522  0.6033 -1.5422
 4104TIP3   OH212264   1.733   4.752   1.556 -0.2677 -0.1878  0.3433
 4104TIP3    H112265   1.795   4.788   1.492  1.5855 -2.8684  0.5260
 4104TIP3    H212266   1.659   4.722   1.504 -1.1993  2.4712  0.0555
 4105TIP3   OH212267   1.853   0.013   3.950 -0.0584 -0.1023  1.0130
 4105TIP3    H112268   1.790   0.075   3.986  0.3503  0.8636  0.0875
 4105TIP3    H212269   1.915   0.067   3.902  3.1971 -0.6827  4.3000
 4106TIP3   OH212270   4.727   6.644   2.675  0.0295  0.2491 -0.1058
 4106TIP3    H112271   4.634   6.653   2.655 -0.1223 -1.0552 -0.0376
 4106TIP3    H212272   4.731   6.573   2.739  0.9066  1.4933  1.2619
 4107TIP3   OH212273   0.567   7.078   2.852 -0.0740  0.4807 -0.1282
 4107TIP3    H112274   0.636   7.095   2.788  0.7808  0.1040  0.6936
 4107TIP3    H212275   0.613   7.053   2.932 -1.1268  1.0708  0.6845
 4108TIP3   OH212276   3.708   0.388   3.124  0.1291 -0.0667 -0.4512
 4108TIP3    H112277   3.629   0.378   3.072 -0.1461  1.3955 -0.3381
 4108TIP3    H212278   3.759   0.309   3.106 -1.8594 -1.5674  0.3699
 4109TIP3   OH212279   4.442   7.250   3.973  0.2834 -0.1867  0.4591
 4109TIP3    H112280   4.471   7.187   3.907  0.1833  0.8088 -0.5585
 4109TIP3    H212281   4.515   7.256   4.034 -0.1475 -2.1027  1.1690
 4110TIP3   OH212282   0.930   7.106   3.569  0.2411  0.2177 -0.8105
 4110TIP3    H112283   0.993   7.054   3.617  0.7723  1.3581 -0.2439
 4110TIP3    H212284   0.982   7.149   3.500  0.2208  1.6561  0.0497
 4111TIP3   OH212285   5.579   2.284   1.491 -0.2218  0.0901  0.4993
 4111TIP3    H112286   5.537   2.201   1.469 -0.6215 -0.2930  2.5632
 4111TIP3    H212287   5.518   2.351   1.461 -0.7112 -0.4053  0.3830
 4112TIP3   OH212288   6.889   1.796   3.173 -0.4474  0.2485  0.1470
 4112TIP3    H112289   6.895   1.752   3.088 -2.2900  1.7863 -0.8368
 4112TIP3    H212290   6.888   1.726   3.237  1.3139 -0.9284 -1.0767
 4113TIP3   OH212291   2.757   7.245   2.188 -0.5014  0.2649 -0.2653
 4113TIP3    H112292   2.852   7.252   2.193 -0.4249 -1.0489  0.1781
 4113TIP3    H212293   2.741   7.175   2.125 -1.2109  1.5791 -1.5857
 4114TIP3   OH212294   3.222   4.870   3.603  0.0501  0.0073 -0.1835
 4114TIP3    H112295   3.288   4.802   3.615 -0.2467 -0.1342  0.7062
 4114TIP3    H212296   3.208   4.906   3.691 -0.4924  0.5619 -0.4910
 4115TIP3   OH212297   0.914   0.001   6.457  0.0532  0.1533  0.4555
 4115TIP3    H112298   0.871   0.022   6.374 -0.1642 -1.3618  0.1858
 4115TIP3    H212299   0.942   0.086   6.491 -0.3074  0.8334 -0.9212
 4116TIP3   OH212300   1.530   2.587   5.269 -0.2786 -0.3822 -0.1925
 4116TIP3    H112301   1.472   2.514   5.287  0.2830 -0.8822 -0.3906
 4116TIP3    H212302   1.612   2.564   5.312  0.0506 -0.0998 -0.6579
 4117TIP3   OH212303   1.658   6.218   1.515  0.6707  0.3569 -0.7318
 4117TIP3    H112304   1.615   6.140   1.548  0.1406  1.2137  0.6420
 4117TIP3    H212305   1.720   6.243   1.584 -0.3768  2.1042 -0.3862
 4118TIP3   OH212306   2.447   4.854   1.982  0.0238 -0.2543  0.7869
 4118TIP3    H112307   2.369   4.820   1.939  0.5101  0.6741 -0.8631
 4118TIP3    H212308   2.414   4.910   2.052 -0.8185  1.1831 -0.7186
 4119TIP3   OH212309   7.732   6.541   0.846  0.0515  1.0533 -0.4912
 4119TIP3    H112310   7.692   6.468   0.893 -1.0830  2.2450  0.4475
 4119TIP3    H212311   7.731   6.613   0.909  0.2555  2.1435 -1.7166
 4120TIP3   OH212312   0.829   4.493   1.327 -0.3284  0.9609 -0.1900
 4120TIP3    H112313   0.757   4.452   1.374  0.5334  1.0887  1.2578
 4120TIP3    H212314   0.789   4.530   1.248 -1.5494 -0.3844 -0.1981
 4121TIP3   OH212315   1.306   3.270   1.609 -0.7972  0.0355  0.1659
 4121TIP3    H112316   1.381   3.221   1.642 -1.0741 -0.1195  0.5694
 4121TIP3    H212317   1.315   3.357   1.649  1.0176  1.1124 -2.4205
 4122TIP3   OH212318   1.403   4.388   1.926 -0.0234 -0.1276  0.4808
 4122TIP3    H112319   1.490   4.347   1.930  0.9691  1.9761  1.7472
 4122TIP3    H212320   1.363   4.352   1.847  2.0568 -1.0755 -0.1840
 4123TIP3   OH212321   2.132   7.097   1.440 -0.2644 -0.4435 -0.2899
 4123TIP3    H112322   2.125   7.013   1.394  1.4959 -0.9680  0.3960
 4123TIP3    H212323   2.089   7.159   1.381 -1.4418 -1.7725 -0.8848
 4124TIP3   OH212324   3.512   4.094   1.221  0.5090  0.1167  0.3286
 4124TIP3    H112325   3.518   4.026   1.154 -0.2141 -0.3095  0.6896
 4124TIP3    H212326   3.564   4.059   1.294 -1.8455 -1.1846  1.4493
 4125TIP3   OH212327   7.592   4.874   4.719 -0.7223  0.1494 -0.1337
 4125TIP3    H112328   7.586   4.887   4.625  1.0215 -1.0098 -0.4228
 4125TIP3    H212329   7.514   4.917   4.754 -0.3219  2.3857 -1.9057
 4126TIP3   OH212330   7.319   4.826   3.073  0.1380  0.1064  0.0377
 4126TIP3    H112331   7.301   4.903   3.128 -2.1612  0.0107 -0.5550
 4126TIP3    H212332   7.261   4.758   3.106  0.0998 -0.5266 -1.3111
 4127TIP3   OH212333   2.262   6.814   2.593 -0.0365 -0.4625 -0.6124
 4127TIP3    H112334   2.214   6.769   2.524 -1.9522  1.3325 -0.5007
 4127TIP3    H212335   2.292   6.895   2.553  2.0512 -1.0874 -0.3747
 4128TIP3   OH212336   1.242   4.532   1.604 -0.3898  0.0045  0.2031
 4128TIP3    H112337   1.182   4.484   1.661 -0.9900  0.7731  0.2267
 4128TIP3    H212338   1.329   4.504   1.632 -0.7035 -0.2606  0.9318
 4129TIP3   OH212339   0.620   4.823   1.971  0.0169 -0.0851  0.3161
 4129TIP3    H112340   0.647   4.915   1.966 -0.4854  0.1413  1.4984
 4129TIP3    H212341   0.538   4.819   1.923 -0.0256  0.1143  0.3730
 4130TIP3   OH212342   0.939   6.044   0.810  0.2432  0.8545  0.5041
 4130TIP3    H112343   0.982   6.087   0.736  0.1628 -0.6677 -0.4460
 4130TIP3    H212344   0.996   6.062   0.884  1.6476  0.2947 -0.4177
 4131TIP3   OH212345   1.235   2.718   2.927 -0.1301  0.4255  0.5443
 4131TIP3    H112346   1.284   2.788   2.884 -0.6690  0.3166 -0.2537
 4131TIP3    H212347   1.303   2.660   2.963  0.3150  1.1438  0.8707
 4132TIP3   OH212348   6.314   0.469   3.618 -0.0881 -0.1050 -0.3258
 4132TIP3    H112349   6.396   0.425   3.640  0.0212  0.3872  0.2952
 4132TIP3    H212350   6.308   0.463   3.523  0.9084  0.2608 -0.4257
 4133TIP3   OH212351   7.688   5.785   2.332 -0.4634  0.0586  0.5663
 4133TIP3    H112352   7.615   5.736   2.371  0.4424 -0.8488  1.1502
 4133TIP3    H212353   7.733   5.824   2.407  0.2514 -0.2370  0.2956
 4134TIP3   OH212354   3.090   2.056   2.354 -0.5639 -0.2072  0.4037
 4134TIP3    H112355   3.123   2.077   2.442 -0.9633  0.2679  0.4367
 4134TIP3    H212356   3.133   2.119   2.297  1.0990 -1.6685  0.0089
 4135TIP3   OH212357   1.192   6.110   3.957  0.1467 -0.3934 -0.3989
 4135TIP3    H112358   1.172   6.203   3.964 -0.3310 -0.6303  1.7008
 4135TIP3    H212359   1.149   6.082   3.876 -0.6441  0.9634 -0.4573
 4136TIP3   OH212360   1.061   5.438   1.275 -0.5676 -0.3256 -0.8958
 4136TIP3    H112361   1.076   5.379   1.349 -3.1306 -0.7783 -0.6892
 4136TIP3    H212362   1.056   5.525   1.315  0.9477 -0.2179 -0.9181
 4137TIP3   OH212363   1.572   4.948   2.174  0.2141  0.3754  0.0183
 4137TIP3    H112364   1.602   4.857   2.181  1.4812  0.6605 -1.5260
 4137TIP3    H212365   1.498   4.943   2.113 -1.0508  0.1176  1.5139
 4138TIP3   OH212366   1.891   4.289   0.698 -0.1692  0.5236 -0.6081
 4138TIP3    H112367   1.837   4.368   0.694 -0.3312  0.4614  0.2742
 4138TIP3    H212368   1.882   4.249   0.612 -1.2524  0.6936 -0.5780
 4139TIP3   OH212369   0.721   3.234   1.932 -0.9026 -0.8613 -0.2713
 4139TIP3    H112370   0.748   3.297   1.999 -0.1308 -1.1917 -0.2701
 4139TIP3    H212371   0.724   3.283   1.850 -3.2258 -0.0509  0.0963
 4140TIP3   OH212372   2.992   6.147   3.613 -0.0401  0.6586  0.1796
 4140TIP3    H112373   2.955   6.198   3.541 -0.3791 -1.1025 -0.9217
 4140TIP3    H212374   3.032   6.212   3.670  0.7769  2.0406 -1.9193
 4141TIP3   OH212375   2.473   7.072   3.440 -0.0575 -0.2871  0.0450
 4141TIP3    H112376   2.559   7.040   3.469  1.2736  2.7901 -0.2944
 4141TIP3    H212377   2.469   7.049   3.347 -0.1044 -1.4764  0.3396
 4142TIP3   OH212378   4.137   0.478   3.934 -0.9608 -0.0348 -0.3969
 4142TIP3    H112379   4.181   0.438   3.860 -1.0505  0.1231 -0.5356
 4142TIP3    H212380   4.128   0.407   3.998 -1.6370 -0.3737 -0.8684
 4143TIP3   OH212381   0.530   4.477   1.733  0.2592  0.5664 -0.1067
 4143TIP3    H112382   0.576   4.433   1.805 -1.3349  0.0071  0.5941
 4143TIP3    H212383   0.487   4.551   1.774 -1.5365 -0.3611 -0.2530
 4144TIP3   OH212384   2.271   5.062   1.029 -0.0009 -0.2944 -0.4116
 4144TIP3    H112385   2.300   5.063   1.121  2.8508 -2.7341 -1.2086
 4144TIP3    H212386   2.304   5.145   0.994 -0.8525  0.5230  0.6950
 4145TIP3   OH212387   1.366   6.450   1.932  0.1102 -0.1997 -0.4984
 4145TIP3    H112388   1.451   6.470   1.971  0.2379 -1.9353  0.1516
 4145TIP3    H212389   1.324   6.535   1.921  1.0338  0.4964  1.2108
 4146TIP3   OH212390   5.308   2.257   6.093  0.4570 -0.5969  0.0703
 4146TIP3    H112391   5.214   2.259   6.109  0.1829 -1.3893 -1.3420
 4146TIP3    H212392   5.347   2.285   6.175 -1.0417  0.8703  0.3097
 4147TIP3   OH212393   4.518   2.591   2.882  0.5123 -0.5888 -0.1860
 4147TIP3    H112394   4.611   2.612   2.879  0.3010  0.6602  0.9747
 4147TIP3    H212395   4.476   2.664   2.836 -0.0325  0.0436  1.2670
 4148TIP3   OH212396   1.493   5.427   2.357  0.0583 -0.3599  0.5627
 4148TIP3    H112397   1.414   5.392   2.317 -0.0756  1.8858 -1.2397
 4148TIP3    H212398   1.562   5.410   2.293  0.3769  0.7619  0.6024
 4149TIP3   OH212399   3.852   6.972   3.635 -0.4856 -0.3591  0.0859
 4149TIP3    H112400   3.894   7.018   3.707 -1.0829  0.3777 -0.0255
 4149TIP3    H212401   3.782   7.031   3.606  1.9026  0.9842 -3.3496
 4150TIP3   OH212402   2.290   6.453   1.603 -0.0263 -0.4351 -0.4356
 4150TIP3    H112403   2.300   6.454   1.698  0.0538  0.4886 -0.4482
 4150TIP3    H212404   2.224   6.519   1.585  0.5172 -0.0598 -1.0843
 4151TIP3   OH212405   2.500   6.728   1.929  0.3456 -0.4947 -0.1455
 4151TIP3    H112406   2.535   6.639   1.932 -1.2721 -1.0990  1.2386
 4151TIP3    H212407   2.563   6.776   1.874  1.7690 -2.2268 -0.0863
 4152TIP3   OH212408   0.096   5.399   2.275  0.6051 -0.4785 -0.4788
 4152TIP3    H112409   0.071   5.456   2.203  1.1239 -0.5011 -0.6762
 4152TIP3    H212410   0.096   5.456   2.352 -0.6531 -0.6114 -0.3744
 4153TIP3   OH212411   7.458   6.483   3.337  0.1511 -0.2295  0.1918
 4153TIP3    H112412   7.471   6.434   3.256  1.0729 -1.3342  0.9795
 4153TIP3    H212413   7.417   6.565   3.310 -1.2094 -1.3361 -1.1827
 4154TIP3   OH212414   0.179   4.800   2.791  0.1691  0.6133  0.1365
 4154TIP3    H112415   0.275   4.806   2.792  0.1564  0.8315  2.3881
 4154TIP3    H212416   0.159   4.728   2.851 -1.0972  0.9444  0.1247
 4155TIP3   OH212417   1.843   5.268   2.671 -0.0958 -0.0154  0.1610
 4155TIP3    H112418   1.875   5.349   2.631 -0.0420 -0.5483 -0.9100
 4155TIP3    H212419   1.917   5.237   2.724  0.1239  0.2892  0.0366
 4156TIP3   OH212420   1.148   6.764   0.304  0.1874 -0.3163 -0.0970
 4156TIP3    H112421   1.239   6.760   0.275 -0.1766  0.9983 -1.4841
 4156TIP3    H212422   1.097   6.765   0.223 -1.1290 -1.9192  0.6662
 4157TIP3   OH212423   1.761   6.782   3.478  0.6557  0.6142  0.5017
 4157TIP3    H112424   1.845   6.783   3.431  1.5924  1.9167  2.1576
 4157TIP3    H212425   1.785   6.776   3.570 -1.0627  1.6637  1.0426
 4158TIP3   OH212426   3.292   4.482   2.582 -0.4911 -0.0441  0.0167
 4158TIP3    H112427   3.276   4.414   2.647 -4.1868  2.7698  2.2470
 4158TIP3    H212428   3.240   4.455   2.506 -1.6754  0.0618  0.7693
 4159TIP3   OH212429   3.379   3.421   0.124 -0.0064 -0.0254  0.0633
 4159TIP3    H112430   3.425   3.502   0.145  0.3658 -0.1693 -0.1890
 4159TIP3    H212431   3.294   3.449   0.090 -1.1145  0.2061  2.8578
 4160TIP3   OH212432   7.112   7.140   2.894  0.3629  0.0471 -0.0932
 4160TIP3    H112433   7.075   7.061   2.855 -0.1008  0.3104 -0.1892
 4160TIP3    H212434   7.088   7.135   2.986 -0.1817  0.3701 -0.2145
 4161TIP3   OH212435   7.638   6.706   3.778  0.1203  0.0271  0.3708
 4161TIP3    H112436   7.679   6.773   3.832  2.9921 -0.0763 -1.5598
 4161TIP3    H212437   7.675   6.624   3.809 -1.9300 -0.5180  1.4496
 4162TIP3   OH212438   7.094   1.088   2.001 -0.2237 -0.1881 -0.1800
 4162TIP3    H112439   7.055   1.097   2.088 -1.0220  2.6794 -0.7853
 4162TIP3    H212440   7.177   1.137   2.007 -0.1502 -0.2149 -0.9430
 4163TIP3   OH212441   0.665   5.879   2.662  0.0218 -0.3107 -0.5286
 4163TIP3    H112442   0.662   5.800   2.607 -1.8698  1.1195 -2.5838
 4163TIP3    H212443   0.654   5.951   2.600 -4.4505  1.2912  1.9124
 4164TIP3   OH212444   3.419   5.118   2.521 -0.6334 -0.6134 -0.4440
 4164TIP3    H112445   3.394   5.113   2.429 -0.2780 -0.9946 -0.5211
 4164TIP3    H212446   3.515   5.111   2.520 -0.6556 -0.9952 -0.0230
 4165TIP3   OH212447   3.027   5.588   1.937 -0.4588 -0.5362 -0.0549
 4165TIP3    H112448   2.977   5.537   2.000  0.4633 -2.6265 -0.9817
 4165TIP3    H212449   3.012   5.544   1.853 -0.0336  0.9952 -0.9521
 4166TIP3   OH212450   5.866   1.440   5.391 -1.0241  0.3118  0.4424
 4166TIP3    H112451   5.822   1.435   5.306 -1.0279 -0.5011  0.4851
 4166TIP3    H212452   5.882   1.349   5.414 -0.7947  0.5449  1.1971
 4167TIP3   OH212453   1.316   3.736   0.554 -0.2870 -0.1357  0.3904
 4167TIP3    H112454   1.286   3.675   0.622 -1.2266  1.0941  1.0882
 4167TIP3    H212455   1.407   3.712   0.540 -0.3295 -0.9880  1.4608
 4168TIP3   OH212456   5.572   2.844   1.839 -0.0823  0.1071 -0.1437
 4168TIP3    H112457   5.631   2.897   1.891 -1.2494  1.0174  0.2640
 4168TIP3    H212458   5.585   2.754   1.871 -1.8584  0.8236  2.7923
 4169TIP3   OH212459   7.247   4.013   3.010 -0.6475  0.1214  0.0533
 4169TIP3    H112460   7.314   3.991   3.074 -0.2748  1.2100  0.0492
 4169TIP3    H212461   7.221   3.929   2.973  0.2647 -0.3685  0.5041
 4170TIP3   OH212462   0.782   4.046   3.090 -0.5133  0.0371  0.3332
 4170TIP3    H112463   0.804   4.129   3.049 -1.6310 -0.2506 -0.8526
 4170TIP3    H212464   0.816   4.054   3.180  0.7426  1.1684 -0.2313
 4171TIP3   OH212465   3.384   3.877   2.610  0.0534 -0.3216 -0.1454
 4171TIP3    H112466   3.455   3.871   2.546  0.1368 -1.7800  0.0470
 4171TIP3    H212467   3.359   3.786   2.626 -1.4178  0.1416  0.2902
 4172TIP3   OH212468   2.468   3.735   2.500 -0.0561 -0.2070 -0.0834
 4172TIP3    H112469   2.471   3.719   2.594  0.9054 -1.5872 -0.3385
 4172TIP3    H212470   2.557   3.757   2.476 -0.8028  2.7815 -0.2505
 4173TIP3   OH212471   1.486   6.208   3.276 -0.0942 -0.0338  0.1051
 4173TIP3    H112472   1.525   6.146   3.337 -1.8582 -3.0979 -1.7239
 4173TIP3    H212473   1.442   6.272   3.331 -0.8003 -2.1588  2.0672
 4174TIP3   OH212474   0.140   5.180   0.628  0.2355 -0.7474  0.3889
 4174TIP3    H112475   0.076   5.144   0.566 -0.1806  0.0549  0.3440
 4174TIP3    H212476   0.225   5.163   0.588  0.0104 -1.0365  0.0305
 4175TIP3   OH212477   4.114   7.179   3.065  0.2361  0.1860 -0.6107
 4175TIP3    H112478   4.091   7.109   3.005  0.7300 -0.4505 -0.0603
 4175TIP3    H212479   4.052   7.249   3.045 -0.6497 -0.6298 -0.7412
 4176TIP3   OH212480   2.754   5.349   2.961 -0.2893  0.3097  0.1049
 4176TIP3    H112481   2.780   5.370   3.051 -1.7344  0.1979  0.5592
 4176TIP3    H212482   2.807   5.408   2.907  2.3215 -1.2611  0.8748
 4177TIP3   OH212483   1.340   5.613   2.971 -0.0564 -0.1604  0.0950
 4177TIP3    H112484   1.359   5.529   2.930  0.1875 -0.6705  1.2561
 4177TIP3    H212485   1.294   5.663   2.903 -1.9263 -1.9162  0.0277
 4178TIP3   OH212486   2.213   6.452   4.679 -0.0817  0.4865 -0.0403
 4178TIP3    H112487   2.278   6.390   4.712 -0.3166 -0.6220 -1.5876
 4178TIP3    H212488   2.145   6.454   4.747  0.1824 -0.5604  0.2719
 4179TIP3   OH212489   1.258   6.802   3.179  0.3672 -0.6803 -0.2371
 4179TIP3    H112490   1.225   6.824   3.266 -0.4124  2.3450 -1.2439
 4179TIP3    H212491   1.182   6.764   3.134  0.9267 -2.7940  0.5589
 4180TIP3   OH212492   1.882   4.948   1.377 -0.3448 -0.0817  0.8360
 4180TIP3    H112493   1.823   4.992   1.316 -1.9702  1.7905  3.6410
 4180TIP3    H212494   1.968   4.952   1.335 -1.2813  1.8390 -0.9770
 4181TIP3   OH212495   1.530   5.690   1.644 -0.1644  0.2969  0.4538
 4181TIP3    H112496   1.438   5.687   1.617  1.1383 -1.1621 -4.2980
 4181TIP3    H212497   1.546   5.606   1.686 -1.0488  0.7393  1.7248
 4182TIP3   OH212498   7.311   5.888   3.226 -0.4589  0.1861  0.0625
 4182TIP3    H112499   7.269   5.863   3.143 -2.4924  0.7211  0.8806
 4182TIP3    H212500   7.358   5.969   3.205 -2.7394  1.5316 -0.1385
 4183TIP3   OH212501   1.196   5.807   1.248 -0.3605  0.1032 -0.3074
 4183TIP3    H112502   1.121   5.866   1.256  0.7892  1.4251  1.2915
 4183TIP3    H212503   1.227   5.820   1.158 -0.5360  1.4821 -0.1883
 4184TIP3   OH212504   1.603   6.248   1.889 -0.6826  0.3071  0.0908
 4184TIP3    H112505   1.580   6.184   1.957 -0.6608  0.8473  0.6170
 4184TIP3    H212506   1.592   6.333   1.933  0.7020  0.6163 -0.1616
 4185TIP3   OH212507   0.324   7.048   2.263 -0.0134 -0.2602  0.4527
 4185TIP3    H112508   0.320   7.054   2.359  0.2706 -0.0985  0.4563
 4185TIP3    H212509   0.244   7.091   2.233 -0.0337 -0.1816  0.6156
 4186TIP3   OH212510   0.689   5.774   0.682 -0.0297 -0.3585  0.3762
 4186TIP3    H112511   0.616   5.724   0.719 -0.1802  0.2217  0.8656
 4186TIP3    H212512   0.652   5.860   0.664 -0.1557 -0.8430 -1.8182
 4187TIP3   OH212513   2.631   6.908   2.169  0.0527  0.2021  0.0232
 4187TIP3    H112514   2.551   6.936   2.215 -1.2815 -1.4785 -1.2463
 4187TIP3    H212515   2.620   6.941   2.080 -0.1143 -1.6834 -0.6662
 4188TIP3   OH212516   2.433   6.996   4.126  0.3880 -0.1606  0.7042
 4188TIP3    H112517   2.338   6.987   4.136  0.2040 -0.6007 -1.2743
 4188TIP3    H212518   2.469   6.924   4.178 -0.3015  0.5335  2.1837
 4189TIP3   OH212519   3.761   1.016   1.531 -0.5981  0.2725  0.2315
 4189TIP3    H112520   3.793   1.039   1.618  1.6762 -2.4760  0.2006
 4189TIP3    H212521   3.691   0.952   1.548 -0.4873  0.1121  0.0894
 4190TIP3   OH212522   2.792   4.964   1.520 -0.0715  0.0056 -1.1993
 4190TIP3    H112523   2.844   5.044   1.531 -0.1059 -0.0285 -0.7916
 4190TIP3    H212524   2.787   4.926   1.608  0.7574 -0.9583 -1.5543
 4191TIP3   OH212525   1.012   5.994   1.212  0.1822  1.0406  0.4449
 4191TIP3    H112526   0.926   6.033   1.227  0.0493  0.2563  1.8142
 4191TIP3    H212527   1.046   6.040   1.135 -0.8433  2.3864  0.7692
 4192TIP3   OH212528   1.998   4.173   1.216  0.2380  0.5200  0.4206
 4192TIP3    H112529   2.078   4.143   1.258  0.1615  0.3814  0.4708
 4192TIP3    H212530   2.016   4.169   1.122  0.4647  0.9874  0.4432
 4193TIP3   OH212531   2.296   5.972   1.462  0.1140  0.5484 -0.3917
 4193TIP3    H112532   2.318   5.879   1.451  3.5612  0.8945  2.4181
 4193TIP3    H212533   2.254   5.976   1.548 -1.7293  1.3573 -1.3156
 4194TIP3   OH212534   0.673   4.876   1.322  0.2308 -0.2702  0.4654
 4194TIP3    H112535   0.585   4.846   1.345  0.4451 -0.9408  0.4489
 4194TIP3    H212536   0.709   4.804   1.270  0.1288  0.7694 -1.0846
 4195TIP3   OH212537   2.034   5.201   2.885 -0.6662  0.1290  0.1918
 4195TIP3    H112538   2.116   5.159   2.857 -0.4272  0.8344 -0.1965
 4195TIP3    H212539   2.048   5.294   2.866 -1.0255  0.4456  1.4049
 4196TIP3   OH212540   5.849   1.097   6.430  0.3216 -0.6941 -0.2325
 4196TIP3    H112541   5.842   1.066   6.340  1.1395 -1.3617 -0.0768
 4196TIP3    H212542   5.937   1.135   6.435  0.4502 -1.0649  0.3965
 4197TIP3   OH212543   0.978   6.210   3.022  0.3217 -0.0117 -0.2110
 4197TIP3    H112544   0.982   6.279   2.955 -1.3521 -1.2161 -1.5799
 4197TIP3    H212545   1.034   6.140   2.988  0.3745 -0.1681  0.1970
 4198TIP3   OH212546   3.216   7.152   4.548 -0.3591 -0.2121 -0.3497
 4198TIP3    H112547   3.269   7.232   4.554  0.7364 -0.8470 -1.3790
 4198TIP3    H212548   3.278   7.084   4.522 -1.4069 -1.2834 -0.1112
 4199TIP3   OH212549   3.492   4.829   2.609  0.1215 -0.1780 -0.1376
 4199TIP3    H112550   3.450   4.818   2.694 -0.9786 -0.6734 -0.7392
 4199TIP3    H212551   3.420   4.827   2.546  0.9024  0.4352 -1.0621
 4200TIP3   OH212552   2.582   4.765   1.779  0.3665 -0.2748  0.3370
 4200TIP3    H112553   2.557   4.819   1.853  0.0082 -1.5078  1.1406
 4200TIP3    H212554   2.666   4.800   1.750  0.1178  0.7183  0.8223
 4201TIP3   OH212555   3.265   4.780   2.821  0.2714 -0.2948 -0.3019
 4201TIP3    H112556   3.297   4.698   2.859 -0.2810 -0.3628  0.0278
 4201TIP3    H212557   3.179   4.758   2.786 -0.8909  0.6647  1.8032
 4202TIP3   OH212558   5.341   3.604   3.889 -0.4197 -0.6075 -0.1217
 4202TIP3    H112559   5.324   3.681   3.944 -0.7104 -0.4836 -0.3868
 4202TIP3    H212560   5.266   3.598   3.831 -0.2790 -0.9477 -0.2742
 4203TIP3   OH212561   7.399   1.249   6.008 -0.1515  0.1121  0.2178
 4203TIP3    H112562   7.394   1.160   5.975 -0.4762 -0.9018  2.8692
 4203TIP3    H212563   7.368   1.303   5.936 -0.9850 -2.0038 -1.0551
 4204TIP3   OH212564   0.981   3.842   1.357 -0.1343 -0.5974  0.0560
 4204TIP3    H112565   1.059   3.894   1.338 -0.8611  0.5772  0.2595
 4204TIP3    H212566   0.999   3.756   1.319  1.2622 -0.3330  0.1226
 4205TIP3   OH212567   0.826   4.443   2.247  0.5213  0.4105 -0.4867
 4205TIP3    H112568   0.844   4.352   2.272  0.2797  1.0319  2.0381
 4205TIP3    H212569   0.737   4.459   2.278  0.7048  1.6356 -0.5791
 4206TIP3   OH212570   3.163   5.094   2.335  0.4402 -0.1861  0.1002
 4206TIP3    H112571   3.164   5.187   2.312  2.6829  0.2121  1.6932
 4206TIP3    H212572   3.231   5.055   2.281  0.5241 -0.6399  0.5294
 4207TIP3   OH212573   1.924   5.530   2.676  0.6833  0.2663 -0.7465
 4207TIP3    H112574   1.850   5.556   2.621  0.2620 -0.1153 -0.3572
 4207TIP3    H212575   2.001   5.547   2.622  0.3494  1.3004 -0.9036
 4208TIP3   OH212576   7.084   6.288   2.819 -0.0913  0.0338  0.4134
 4208TIP3    H112577   7.039   6.223   2.872 -0.7631  0.0077 -0.1880
 4208TIP3    H212578   7.089   6.249   2.731 -4.0195  2.3756 -0.9849
 4209TIP3   OH212579   6.607   5.786   3.096  0.2930 -0.3186  0.3653
 4209TIP3    H112580   6.566   5.710   3.137 -2.4915  0.5885 -0.5918
 4209TIP3    H212581   6.600   5.769   3.002 -2.1133  1.9464  0.0839
 4210TIP3   OH212582   7.868   5.330   4.416 -0.0651  0.3356 -0.0010
 4210TIP3    H112583   7.945   5.299   4.367 -0.3243 -0.6742  0.2054
 4210TIP3    H212584   7.847   5.415   4.377  1.6003  0.9681  0.4377
 4211TIP3   OH212585   0.757   4.782   3.138 -0.2295 -0.1667  0.1493
 4211TIP3    H112586   0.820   4.711   3.147  0.3626  0.6155  2.7641
 4211TIP3    H212587   0.804   4.851   3.092  0.8797  0.3990  2.0481
 4212TIP3   OH212588   2.909   6.084   1.012 -0.0048 -0.1491  0.1538
 4212TIP3    H112589   2.828   6.079   0.961  0.3717  3.2074 -0.8826
 4212TIP3    H212590   2.979   6.079   0.947  0.6026 -0.6475  0.8330
 4213TIP3   OH212591   4.446   0.493   3.916  0.7197 -0.6344  0.1137
 4213TIP3    H112592   4.353   0.515   3.918  0.8995  0.3737 -1.4220
 4213TIP3    H212593   4.462   0.449   3.999 -1.3056 -1.5683  0.0431
 4214TIP3   OH212594   0.071   4.991   2.165 -0.3161  0.1582 -0.3776
 4214TIP3    H112595   0.020   4.991   2.084 -0.8680  0.9441 -0.0346
 4214TIP3    H212596   0.161   5.011   2.137 -0.6620  1.2956 -0.7053
 4215TIP3   OH212597   1.035   5.265   0.783  0.2060 -0.4009 -0.7394
 4215TIP3    H112598   0.960   5.276   0.842 -0.2086  0.1112 -1.3508
 4215TIP3    H212599   1.085   5.192   0.820  0.8359  0.9599  1.1542
 4216TIP3   OH212600   2.415   5.450   1.139  0.1907  0.1010 -0.4172
 4216TIP3    H112601   2.381   5.461   1.228 -2.2099  0.4951 -1.3515
 4216TIP3    H212602   2.508   5.470   1.147 -0.2779  1.6727  1.7223
 4217TIP3   OH212603   0.338   0.683   5.347  0.6062  0.6347 -0.4443
 4217TIP3    H112604   0.286   0.667   5.425 -0.9045  0.9753 -1.3645
 4217TIP3    H212605   0.418   0.632   5.361 -0.8570 -1.6008  0.0596
 4218TIP3   OH212606   0.474   5.362   1.299  0.0860 -0.5996  0.1057
 4218TIP3    H112607   0.406   5.368   1.231  0.9104 -0.5480 -0.7190
 4218TIP3    H212608   0.434   5.402   1.376 -0.6519 -0.1374 -0.5073
 4219TIP3   OH212609   0.652   4.251   1.904  0.3158 -0.4887  0.2325
 4219TIP3    H112610   0.650   4.195   1.826 -2.6059 -0.5343  0.2800
 4219TIP3    H212611   0.564   4.244   1.941  0.2431  3.1201  0.9749
 4220TIP3   OH212612   6.528   6.105   3.342  0.7234  0.2785 -0.0524
 4220TIP3    H112613   6.501   6.153   3.420 -1.7950 -0.6918 -0.2758
 4220TIP3    H212614   6.504   6.162   3.269 -0.6695 -0.5495 -0.2520
 4221TIP3   OH212615   3.486   6.412   3.687 -0.0374 -0.2840 -0.0647
 4221TIP3    H112616   3.484   6.438   3.779 -3.1813  0.7436 -0.3784
 4221TIP3    H212617   3.570   6.444   3.655  0.5087  0.5233  2.1164
 4222TIP3   OH212618   3.218   2.955   3.861  0.0901  0.3943  0.3278
 4222TIP3    H112619   3.232   2.910   3.778 -0.7893 -0.4933  0.6430
 4222TIP3    H212620   3.280   3.028   3.860  0.4822  0.0569 -0.8521
 4223TIP3   OH212621   2.041   6.297   1.247  0.6111 -0.2765  0.0287
 4223TIP3    H112622   2.104   6.260   1.185 -0.0247  0.4250 -1.0676
 4223TIP3    H212623   2.064   6.258   1.331  2.0362 -0.5997 -0.4871
 4224TIP3   OH212624   3.503   2.507   2.993  0.1168  0.9270  0.2614
 4224TIP3    H112625   3.516   2.588   2.944 -2.3387  1.4240  0.3741
 4224TIP3    H212626   3.409   2.493   2.991  0.5258 -2.0563  0.0666
 4225TIP3   OH212627   2.718   5.838   0.378 -0.0075  0.1794 -0.1215
 4225TIP3    H112628   2.732   5.750   0.345  0.6478 -0.0448  0.7336
 4225TIP3    H212629   2.775   5.844   0.454  1.2811  1.9214 -1.1725
 4226TIP3   OH212630   2.794   4.452   2.106  0.0953  0.4062 -0.5783
 4226TIP3    H112631   2.881   4.434   2.069  0.7111 -0.8477  1.4102
 4226TIP3    H212632   2.794   4.547   2.122  0.5034  0.6640 -2.0561
 4227TIP3   OH212633   1.962   5.677   2.238  0.6194 -0.0146  0.0640
 4227TIP3    H112634   2.021   5.729   2.184 -0.1573  2.5036  1.5340
 4227TIP3    H212635   2.020   5.624   2.293  1.4330 -0.1388 -0.9000
 4228TIP3   OH212636   3.405   5.383   4.144  0.6067 -0.0139  0.1837
 4228TIP3    H112637   3.331   5.392   4.204  0.2534  0.3933 -0.3031
 4228TIP3    H212638   3.365   5.357   4.061  1.1226 -0.9224  0.2162
 4229TIP3   OH212639   3.925   5.371   0.156 -0.4183  0.0002 -0.1717
 4229TIP3    H112640   3.928   5.408   0.068 -0.4702 -2.6500 -1.3384
 4229TIP3    H212641   3.896   5.281   0.144 -1.1551 -0.2139  2.6479
 4230TIP3   OH212642   7.449   4.542   4.057 -0.2002  0.2957  0.3422
 4230TIP3    H112643   7.454   4.449   4.076 -2.2333  0.0062 -0.4700
 4230TIP3    H212644   7.368   4.553   4.007  1.1056  2.1541 -1.4920
 4231TIP3   OH212645   2.164   4.430   2.345 -0.2846 -0.1423 -0.2195
 4231TIP3    H112646   2.241   4.430   2.287 -0.2102  0.3061 -0.1277
 4231TIP3    H212647   2.103   4.368   2.305 -0.6493  0.9315 -1.3457
 4232TIP3   OH212648   2.489   5.252   3.790 -0.6292 -0.4969  0.2739
 4232TIP3    H112649   2.576   5.256   3.830 -0.5097  0.7061 -0.0873
 4232TIP3    H212650   2.493   5.316   3.718 -2.0887  0.2305  0.8220
 4233TIP3   OH212651   3.092   3.654   0.806  0.1382  0.4842  0.4199
 4233TIP3    H112652   3.036   3.605   0.866  0.1093 -0.5212 -0.4154
 4233TIP3    H212653   3.114   3.734   0.854 -0.9483  0.2974  1.2576
 4234TIP3   OH212654   0.215   5.093   2.824  0.5865  0.3741  0.6371
 4234TIP3    H112655   0.243   5.132   2.741 -0.1862  0.2070  0.2897
 4234TIP3    H212656   0.243   5.001   2.818 -1.6703 -0.2890 -0.5311
 4235TIP3   OH212657   0.559   6.456   3.020 -0.1260  0.3976 -0.5334
 4235TIP3    H112658   0.474   6.413   3.014 -0.6820  1.6041 -1.7034
 4235TIP3    H212659   0.548   6.537   2.969  1.5991  0.7506 -0.3675
 4236TIP3   OH212660   2.462   5.424   1.989  0.4490  0.3307 -0.1627
 4236TIP3    H112661   2.518   5.482   1.936  1.3693 -0.7362 -0.3741
 4236TIP3    H212662   2.505   5.339   1.984 -1.3391 -0.5610 -0.5201
 4237TIP3   OH212663   1.938   6.526   3.088  0.3229 -0.0350  0.0971
 4237TIP3    H112664   1.981   6.496   3.007 -2.4511 -3.1883 -0.3414
 4237TIP3    H212665   1.860   6.572   3.058 -0.6305 -1.0667  0.9298
 4238TIP3   OH212666   1.222   4.641   2.032  0.3990 -0.4218 -0.2316
 4238TIP3    H112667   1.163   4.699   2.079  0.4241  1.3727 -2.3523
 4238TIP3    H212668   1.175   4.558   2.026 -1.6713  0.7919 -1.3268
 4239TIP3   OH212669   1.005   6.542   2.952  0.3954 -0.7048 -0.2438
 4239TIP3    H112670   0.941   6.525   3.021  0.1729 -0.2115 -0.3298
 4239TIP3    H212671   0.971   6.618   2.905  0.5285 -1.0680 -0.9263
 4240TIP3   OH212672   4.594   0.879   2.477 -0.2354 -0.1364 -0.2684
 4240TIP3    H112673   4.538   0.942   2.523  0.4977 -0.1190  0.6270
 4240TIP3    H212674   4.538   0.803   2.462 -0.8262  0.3232 -0.4085
 4241TIP3   OH212675   2.154   4.514   1.451 -0.0773 -0.2233 -0.3360
 4241TIP3    H112676   2.246   4.488   1.447 -0.0149 -0.3816  1.4497
 4241TIP3    H212677   2.125   4.484   1.538 -1.6397  0.3771 -0.6386
 4242TIP3   OH212678   1.528   6.803   3.798 -0.8440 -0.3080 -0.2675
 4242TIP3    H112679   1.577   6.884   3.786 -0.5324 -0.3484  0.6719
 4242TIP3    H212680   1.585   6.749   3.853 -0.6715 -1.5080 -1.6086
 4243TIP3   OH212681   4.080   0.192   1.998 -0.2335 -0.0542  0.2396
 4243TIP3    H112682   4.009   0.131   2.018 -0.9698  0.1551 -1.6139
 4243TIP3    H212683   4.045   0.247   1.928  1.4847  0.5495 -0.1686
 4244TIP3   OH212684   1.445   7.064   3.489  0.2321 -0.5194 -0.0242
 4244TIP3    H112685   1.475   7.155   3.491  1.6471 -0.9670 -0.5461
 4244TIP3    H212686   1.516   7.016   3.447 -0.2271 -1.9738  0.8301
 4245TIP3   OH212687   1.117   5.069   2.583 -0.0838 -0.1748  0.3978
 4245TIP3    H112688   1.154   5.157   2.574 -1.1102  0.2165 -0.1191
 4245TIP3    H212689   1.096   5.043   2.493  1.1412 -1.3652  0.4416
 4246TIP3   OH212690   3.265   2.861   1.251 -0.0274  0.1675  0.1846
 4246TIP3    H112691   3.228   2.809   1.322 -1.7462  1.6626  0.4122
 4246TIP3    H212692   3.359   2.850   1.261 -0.2626 -0.3688  2.1335
 4247TIP3   OH212693   2.827   1.005   1.794 -0.3825 -0.1687 -0.3758
 4247TIP3    H112694   2.781   1.084   1.823  0.6846  0.7673 -1.1924
 4247TIP3    H212695   2.822   1.008   1.698  1.1402 -0.1915 -0.4647
 4248TIP3   OH212696   7.712   6.988   1.694  0.2634 -0.2862  0.1022
 4248TIP3    H112697   7.758   6.912   1.657 -2.0003 -1.3404 -0.6334
 4248TIP3    H212698   7.715   7.054   1.624  5.1043  1.6304  1.8932
 4249TIP3   OH212699   3.528   0.238   4.118  0.4973  0.1637  0.1305
 4249TIP3    H112700   3.549   0.145   4.116  0.9277  0.2630 -0.0029
 4249TIP3    H212701   3.608   0.280   4.148  0.0030  0.4046  1.1049
 4250TIP3   OH212702   7.528   5.513   2.774  0.5140  0.3959  0.4736
 4250TIP3    H112703   7.557   5.465   2.852  1.2744  0.7976  0.4440
 4250TIP3    H212704   7.466   5.577   2.808 -1.8860 -1.7459  0.2969
 4251TIP3   OH212705   5.371   2.465   2.046 -0.4315 -0.6179 -0.3142
 4251TIP3    H112706   5.427   2.524   1.995 -1.6914 -0.4640 -1.5750
 4251TIP3    H212707   5.364   2.507   2.131  2.6310 -1.4441  0.4118
 4252TIP3   OH212708   0.197   0.827   6.333 -0.6702 -0.3759  0.0912
 4252TIP3    H112709   0.194   0.740   6.292  0.0919 -0.9360  1.1683
 4252TIP3    H212710   0.275   0.868   6.296 -0.7227 -0.3737 -0.0151
 4253TIP3   OH212711   0.487   5.112   3.144  0.0095 -0.0958 -0.3311
 4253TIP3    H112712   0.507   5.205   3.155 -0.0347 -0.3586  2.2482
 4253TIP3    H212713   0.558   5.067   3.189 -1.6759 -1.2369  1.2303
 4254TIP3   OH212714   1.432   3.771   2.507  0.5140  0.5334  0.3799
 4254TIP3    H112715   1.406   3.800   2.594 -0.4894  0.4125  0.1228
 4254TIP3    H212716   1.500   3.705   2.524  2.0809  2.2480  0.9873
 4255TIP3   OH212717   0.666   5.243   1.584  0.3495 -0.0219  0.0517
 4255TIP3    H112718   0.722   5.166   1.573  0.5157  0.2320 -0.9530
 4255TIP3    H212719   0.577   5.208   1.585  0.5291 -0.4747  2.0901
 4256TIP3   OH212720   1.388   3.266   2.107  0.0095 -0.0028 -0.6106
 4256TIP3    H112721   1.456   3.329   2.131  0.1619 -0.9361  1.4662
 4256TIP3    H212722   1.434   3.185   2.090 -0.6592 -0.9780  2.0372
 4257TIP3   OH212723   0.512   4.041   1.742  0.8220 -0.1365 -0.1297
 4257TIP3    H112724   0.444   4.037   1.809  0.6938 -1.3138 -0.3160
 4257TIP3    H212725   0.499   4.125   1.699  0.7506  0.5276  1.1645
 4258TIP3   OH212726   3.597   0.826   1.618  0.2030 -0.0506 -0.3382
 4258TIP3    H112727   3.539   0.749   1.617  0.7108 -0.4481  0.5675
 4258TIP3    H212728   3.622   0.836   1.709 -1.5787  2.5024 -0.0596
 4259TIP3   OH212729   0.669   3.546   2.538  0.2593 -0.1126  0.3785
 4259TIP3    H112730   0.678   3.475   2.474  1.4423 -0.5629  1.0389
 4259TIP3    H212731   0.634   3.619   2.487 -2.2966 -1.5663 -0.0503
 4260TIP3   OH212732   0.562   4.442   0.784 -0.1250 -0.1800  0.3135
 4260TIP3    H112733   0.529   4.390   0.710 -1.3201 -1.1082  1.4756
 4260TIP3    H212734   0.634   4.493   0.747  0.3208 -1.8103 -1.1283
 4261TIP3   OH212735   0.521   4.846   2.267  0.3642  0.7364  0.2365
 4261TIP3    H112736   0.480   4.868   2.183  0.8316 -2.5964 -0.9654
 4261TIP3    H212737   0.451   4.805   2.318  0.0765  2.7653  1.5369
 4262TIP3   OH212738   1.470   5.663   3.510  0.4759  0.4578  0.4692
 4262TIP3    H112739   1.438   5.747   3.544  0.2334  0.3952  0.3900
 4262TIP3    H212740   1.399   5.631   3.455  0.4960  0.1107  0.6464
 4263TIP3   OH212741   0.738   5.937   4.202  0.4725 -0.0497  0.1561
 4263TIP3    H112742   0.648   5.908   4.189  1.0937 -1.4914 -1.0621
 4263TIP3    H212743   0.740   6.027   4.169  0.0012 -0.7953 -1.9924
 4264TIP3   OH212744   1.496   4.653   2.491  0.1000  0.1275 -0.1205
 4264TIP3    H112745   1.412   4.661   2.445 -0.5708  0.6182  1.1645
 4264TIP3    H212746   1.536   4.740   2.484  0.1279  0.1226 -0.0283
 4265TIP3   OH212747   7.314   4.750   1.208 -0.0784 -0.0302 -0.3342
 4265TIP3    H112748   7.319   4.725   1.300  1.1550  1.2892 -0.0179
 4265TIP3    H212749   7.401   4.786   1.189 -1.7168  3.8735 -0.7727
 4266TIP3   OH212750   3.528   4.557   2.871 -0.0975  0.0960 -0.5751
 4266TIP3    H112751   3.485   4.527   2.951 -1.2794  0.8608 -0.9024
 4266TIP3    H212752   3.551   4.648   2.889 -1.3472  0.6098 -1.4665
 4267TIP3   OH212753   1.199   4.726   2.979 -0.2992  0.0083 -0.8180
 4267TIP3    H112754   1.141   4.802   2.976 -0.8128 -0.4395 -2.4286
 4267TIP3    H212755   1.142   4.651   2.966 -0.0216 -0.8331  2.2509
 4268TIP3   OH212756   4.855   0.159   0.921 -0.5272 -0.5758 -0.1344
 4268TIP3    H112757   4.915   0.107   0.975 -1.5943 -1.4068  0.2748
 4268TIP3    H212758   4.886   0.148   0.832 -1.6665 -3.2498 -0.2579
 4269TIP3   OH212759   3.740   6.741   2.482 -0.3678  0.1608 -0.4220
 4269TIP3    H112760   3.713   6.806   2.547 -0.9995  0.1778 -0.6959
 4269TIP3    H212761   3.689   6.762   2.404 -0.8514 -0.8820 -0.4028
 4270TIP3   OH212762   3.725   3.652   1.107 -0.4767  0.1251  0.1985
 4270TIP3    H112763   3.661   3.585   1.132 -0.8238 -0.1967 -1.5101
 4270TIP3    H212764   3.807   3.603   1.096 -0.4146  0.2050  0.3004
 4271TIP3   OH212765   4.452   5.854   2.354  0.3690 -0.2572 -0.6802
 4271TIP3    H112766   4.382   5.795   2.326  1.5948 -0.7719 -2.8230
 4271TIP3    H212767   4.505   5.868   2.275  2.9352 -0.2383  0.9609
 4272TIP3   OH212768   2.374   4.503   1.155 -0.3268 -0.1242 -0.2581
 4272TIP3    H112769   2.392   4.409   1.150  0.3197  0.0091 -0.5920
 4272TIP3    H212770   2.282   4.511   1.129 -0.6036 -0.7342  0.5161
 4273TIP3   OH212771   6.902   5.271   2.760 -0.3226 -0.0469 -0.6170
 4273TIP3    H112772   6.820   5.293   2.717 -0.8997 -2.1298 -0.6606
 4273TIP3    H212773   6.963   5.255   2.687 -0.2124  0.2842 -0.5985
 4274TIP3   OH212774   2.494   5.139   0.022  0.3244  0.0984  0.0355
 4274TIP3    H112775   2.484   5.069   0.086  0.0168 -0.7165 -0.9022
 4274TIP3    H212776   2.413   5.137  -0.029  0.1020  1.4401  0.2959
 4275TIP3   OH212777   4.097   7.057   1.594 -0.0320 -0.0426  0.0059
 4275TIP3    H112778   4.058   7.129   1.545 -0.9770 -0.4649  0.1231
 4275TIP3    H212779   4.143   7.005   1.527 -0.8110 -0.2824 -0.3506
 4276TIP3   OH212780   3.883   6.260   1.870  0.6998 -0.0972  0.4075
 4276TIP3    H112781   3.795   6.232   1.846 -0.6299  1.5722  3.0202
 4276TIP3    H212782   3.907   6.324   1.803  0.6757 -1.8532 -1.3122
 4277TIP3   OH212783   4.087   5.188   0.952  0.3843 -0.3067 -0.0468
 4277TIP3    H112784   4.067   5.281   0.966 -0.9690  0.0311 -3.6912
 4277TIP3    H212785   4.039   5.142   1.021 -1.0748  1.5164  0.1729
 4278TIP3   OH212786   5.014   3.841   2.140 -0.1430  0.5647  0.2011
 4278TIP3    H112787   4.979   3.765   2.093 -0.0889  1.0797 -0.6801
 4278TIP3    H212788   5.054   3.804   2.218 -0.3726 -0.2895 -0.0777
 4279TIP3   OH212789   3.391   5.917   2.785  0.3131  0.3258 -0.3132
 4279TIP3    H112790   3.474   5.956   2.810  0.7474 -0.8298  0.0992
 4279TIP3    H212791   3.405   5.823   2.795 -0.1556 -0.0675 -2.9143
 4280TIP3   OH212792   2.604   7.315   1.431  0.1324 -0.1461  0.2843
 4280TIP3    H112793   2.515   7.289   1.454 -1.0096  0.7260 -2.9788
 4280TIP3    H212794   2.644   7.339   1.515 -1.5952 -3.6900  2.2423
 4281TIP3   OH212795   3.281   3.718   1.261 -0.3823  0.2010 -0.5072
 4281TIP3    H112796   3.297   3.764   1.343  2.5745 -0.5649 -0.6024
 4281TIP3    H212797   3.272   3.626   1.287  0.2374 -0.0027 -1.0136
 4282TIP3   OH212798   2.722   7.088   1.948  0.3306 -0.1081 -0.1436
 4282TIP3    H112799   2.755   7.161   1.895  0.0658 -0.3997 -0.7126
 4282TIP3    H212800   2.722   7.013   1.888  0.7723 -0.6199  0.4841
 4283TIP3   OH212801   2.423   3.939   3.720  0.2262 -0.8245  0.2500
 4283TIP3    H112802   2.391   3.922   3.809  1.0136 -1.4154  0.4241
 4283TIP3    H212803   2.516   3.919   3.724  0.1700 -1.3170 -0.8430
 4284TIP3   OH212804   2.963   2.709   3.500  0.3004  0.4836 -0.2427
 4284TIP3    H112805   3.039   2.702   3.442 -1.5564  0.4565 -2.7332
 4284TIP3    H212806   2.932   2.799   3.489  1.1083  1.1091  2.2838
 4285TIP3   OH212807   7.142   1.268   6.471 -0.0882  0.0331  0.2461
 4285TIP3    H112808   7.154   1.306   6.383 -1.9059  0.8354  0.3145
 4285TIP3    H212809   7.194   1.187   6.469 -1.4063 -0.8265 -2.1564
 4286TIP3   OH212810   3.170   6.992   4.188  0.0803 -0.1667 -0.0142
 4286TIP3    H112811   3.138   7.067   4.238 -2.7322 -0.2542 -1.5673
 4286TIP3    H212812   3.209   7.030   4.109  1.6324 -0.1846  0.7380
 4287TIP3   OH212813   3.588   4.247   2.792  0.3121 -0.0762  0.3608
 4287TIP3    H112814   3.497   4.217   2.794  0.1580  0.4069  0.5424
 4287TIP3    H212815   3.585   4.337   2.823  0.5225  0.8123 -2.0853
 4288TIP3   OH212816   0.341   3.153   5.652  0.0994 -0.4736  0.4848
 4288TIP3    H112817   0.397   3.231   5.650 -0.8725  0.2130 -0.2861
 4288TIP3    H212818   0.319   3.138   5.560 -4.2161  1.6323  1.0682
 4289TIP3   OH212819   4.144   6.618   2.234 -0.4276 -0.1162  0.1969
 4289TIP3    H112820   4.101   6.650   2.313 -1.1590  0.5954 -0.4811
 4289TIP3    H212821   4.078   6.565   2.190 -0.4815  0.6304 -0.6377
 4290TIP3   OH212822   2.239   6.900   3.415  0.6662  0.0522  0.2990
 4290TIP3    H112823   2.322   6.945   3.403 -0.5268  1.6511 -2.4183
 4290TIP3    H212824   2.259   6.826   3.471  4.1388 -0.2406 -1.2483
 4291TIP3   OH212825   4.378   4.885   2.992  0.1068  0.2748 -0.5396
 4291TIP3    H112826   4.319   4.847   3.057  0.3635  1.5348  0.4725
 4291TIP3    H212827   4.402   4.813   2.935  2.4322 -1.6654  2.6967
 4292TIP3   OH212828   4.569   4.400   2.938  0.3623  0.3235  0.1583
 4292TIP3    H112829   4.587   4.355   3.021  0.3071  1.2840  0.6994
 4292TIP3    H212830   4.621   4.481   2.943  0.2792  0.4368 -0.7037
 4293TIP3   OH212831   4.287   3.824   0.557 -0.2448  0.1042 -0.5347
 4293TIP3    H112832   4.271   3.764   0.484 -0.6649 -1.1698  0.5869
 4293TIP3    H212833   4.382   3.835   0.558 -0.0193 -1.6832  0.1214
 4294TIP3   OH212834   3.786   4.621   3.146 -0.3466  0.2553  0.1891
 4294TIP3    H112835   3.794   4.661   3.233 -0.1549 -1.3857  0.9438
 4294TIP3    H212836   3.860   4.562   3.140 -0.3080  0.4398 -1.1470
 4295TIP3   OH212837   0.040   2.840   6.034  0.3340 -0.1521 -0.0309
 4295TIP3    H112838   0.107   2.820   6.099  1.2005 -0.1491 -0.9204
 4295TIP3    H212839  -0.041   2.845   6.084  1.2425  1.5224  1.3035
 4296TIP3   OH212840   4.158   3.402   1.610 -0.3168 -0.0920  0.2091
 4296TIP3    H112841   4.089   3.457   1.647  0.5961  0.8419  0.5543
 4296TIP3    H212842   4.195   3.355   1.685 -0.5340 -0.5498  0.0332
 4297TIP3   OH212843   0.247   5.318   0.332 -0.1217  0.1453 -0.4456
 4297TIP3    H112844   0.165   5.345   0.373  1.2385  1.6571  1.3665
 4297TIP3    H212845   0.291   5.265   0.399  0.8916  0.2918 -0.9790
 4298TIP3   OH212846   2.436   5.728   0.847  0.4995  0.1984  0.2525
 4298TIP3    H112847   2.374   5.732   0.920  0.1110 -0.7317 -0.0260
 4298TIP3    H212848   2.446   5.820   0.820  0.8794  0.5928  1.6493
 4299TIP3   OH212849   6.233   5.414   3.316  0.5747 -0.1713  0.4402
 4299TIP3    H112850   6.241   5.465   3.235 -0.3701 -0.7847 -0.0457
 4299TIP3    H212851   6.286   5.462   3.380 -0.8838  1.7950  0.1890
 4300TIP3   OH212852   4.420   4.830   1.347 -0.3884 -0.4533 -0.4949
 4300TIP3    H112853   4.367   4.750   1.355 -2.6125  1.1286  1.0490
 4300TIP3    H212854   4.411   4.855   1.255 -1.1578 -0.9733 -0.5677
 4301TIP3   OH212855   3.412   6.087   1.365  0.2387 -0.2163 -0.0432
 4301TIP3    H112856   3.333   6.107   1.315  0.7185 -2.0329 -1.6353
 4301TIP3    H212857   3.480   6.141   1.324  0.2540 -0.2825 -0.1053
 4302TIP3   OH212858   0.864   5.085   1.255 -0.4557  1.0887 -0.1442
 4302TIP3    H112859   0.935   5.021   1.252  0.5718  2.1431  1.4931
 4302TIP3    H212860   0.789   5.037   1.290  0.4466  0.8991  1.5375
 4303TIP3   OH212861   3.171   5.070   2.033  0.1921 -0.1821 -0.1420
 4303TIP3    H112862   3.159   5.003   1.966 -0.5518  0.4176 -0.6142
 4303TIP3    H212863   3.237   5.033   2.092  1.2841 -0.4497 -1.5214
 4304TIP3   OH212864   0.253   2.798   6.228  0.9023 -0.1829 -0.7676
 4304TIP3    H112865   0.205   2.741   6.288 -1.1370  2.4855  0.2229
 4304TIP3    H212866   0.339   2.811   6.270 -0.1762  0.9294  1.1608
 4305TIP3   OH212867   4.793   4.069   3.175  0.7557 -0.2118  0.3136
 4305TIP3    H112868   4.799   3.993   3.233 -0.0173 -1.4475 -1.2090
 4305TIP3    H212869   4.884   4.097   3.164  1.0816 -1.1652  0.5379
 4306TIP3   OH212870   2.607   7.216   4.116  0.3968  0.1167 -0.5528
 4306TIP3    H112871   2.579   7.125   4.130 -0.7151  0.6292  0.5798
 4306TIP3    H212872   2.528   7.268   4.130  1.3239  1.3610  0.0947
 4307TIP3   OH212873   0.215   0.182   4.287  0.0004  0.4350 -0.3768
 4307TIP3    H112874   0.151   0.198   4.356 -0.7364 -0.4870 -0.8192
 4307TIP3    H212875   0.164   0.189   4.206  0.0844 -1.8820 -0.6733
 4308TIP3   OH212876   3.022   6.226   1.822 -0.5174  0.2933 -0.0728
 4308TIP3    H112877   2.970   6.281   1.763 -1.0901  0.7363  0.8521
 4308TIP3    H212878   2.987   6.137   1.810  0.6413  0.0345 -1.8321
 4309TIP3   OH212879   3.532   6.513   2.304  0.0948 -0.4510 -0.2841
 4309TIP3    H112880   3.541   6.607   2.286  0.0722 -0.2870  0.5362
 4309TIP3    H212881   3.571   6.470   2.228  0.1975  0.2265 -0.6192
 4310TIP3   OH212882   3.731   6.238   2.752 -0.0499  0.0622 -0.0745
 4310TIP3    H112883   3.721   6.303   2.821 -0.3487 -0.2864  0.2086
 4310TIP3    H212884   3.764   6.288   2.677 -1.8738  0.8345 -0.3865
 4311TIP3   OH212885   2.385   4.359   1.506  0.1107  0.3248  0.2387
 4311TIP3    H112886   2.474   4.393   1.509  0.4514 -0.5316  0.0984
 4311TIP3    H212887   2.384   4.288   1.569 -0.7458  0.9350  0.9264
 4312TIP3   OH212888   3.624   6.813   1.190 -0.1719  0.3288  0.0497
 4312TIP3    H112889   3.591   6.767   1.113 -0.6879 -0.5743  0.8015
 4312TIP3    H212890   3.562   6.885   1.202 -0.3110  0.2459 -0.1513
 4313TIP3   OH212891   3.909   4.700   0.722  0.6862  0.2914  0.0242
 4313TIP3    H112892   3.953   4.641   0.783 -0.0760  0.0350  0.3266
 4313TIP3    H212893   3.816   4.692   0.743  0.4096  0.1455 -1.2234
 4314TIP3   OH212894   3.809   3.926   2.694 -0.1245  0.1933  0.5598
 4314TIP3    H112895   3.732   3.936   2.638 -0.5104  0.3192  1.1032
 4314TIP3    H212896   3.880   3.967   2.645  0.0540 -1.7208 -0.8652
 4315TIP3   OH212897   1.417   3.931   2.224  0.1240 -0.0886  0.4560
 4315TIP3    H112898   1.457   3.904   2.307  0.9232 -0.4750 -0.0477
 4315TIP3    H212899   1.484   3.912   2.158  0.4563  2.5316  0.0003
 4316TIP3   OH212900   3.747   5.875   1.331 -0.0323 -0.3929 -0.1245
 4316TIP3    H112901   3.800   5.849   1.256  0.4129 -1.0919  0.4297
 4316TIP3    H212902   3.685   5.803   1.343 -0.1398 -0.2578  0.1358
 4317TIP3   OH212903   2.513   5.232   2.351  0.2359  0.0529 -0.0701
 4317TIP3    H112904   2.500   5.233   2.446  0.6074  2.1401 -0.0178
 4317TIP3    H212905   2.608   5.230   2.340  0.2859  2.3567 -0.3516
 4318TIP3   OH212906   3.260   6.354   0.327  0.4945  0.1953  0.1658
 4318TIP3    H112907   3.165   6.346   0.334  0.4740  0.1876 -0.1170
 4318TIP3    H212908   3.283   6.428   0.384  0.3870 -0.1960  0.7163
 4319TIP3   OH212909   3.081   7.172   1.823  0.0710  0.3196 -0.4830
 4319TIP3    H112910   3.168   7.190   1.860 -0.0723  0.9540 -0.4436
 4319TIP3    H212911   3.098   7.111   1.752  0.3624 -0.8465  0.5678
 4320TIP3   OH212912   1.534   2.912   4.873 -0.8725  0.2678 -0.2903
 4320TIP3    H112913   1.579   2.993   4.849  0.0144  0.3578  1.6067
 4320TIP3    H212914   1.444   2.940   4.895 -0.7512  0.6488 -0.2765
 4321TIP3   OH212915   4.305   5.405   0.992  0.7178  0.0177  0.0324
 4321TIP3    H112916   4.372   5.394   0.925  0.4588 -3.6829  0.3000
 4321TIP3    H212917   4.235   5.454   0.948  0.4320 -2.5768 -2.5544
 4322TIP3   OH212918   3.978   4.377   2.441  0.1995 -0.2157  0.1439
 4322TIP3    H112919   3.886   4.359   2.462  0.0441 -0.2014 -0.5092
 4322TIP3    H212920   4.012   4.421   2.519 -0.7603  1.1767 -0.2068
 4323TIP3   OH212921   4.080   4.480   1.766  0.1884  0.2976  0.2073
 4323TIP3    H112922   4.158   4.514   1.809 -0.2985  1.4333  0.2159
 4323TIP3    H212923   4.014   4.479   1.836  0.7558 -2.6755  0.7361
 4324TIP3   OH212924   2.982   3.874   2.940 -0.2924 -0.0093  0.3251
 4324TIP3    H112925   2.991   3.891   2.846 -0.5702 -1.6914 -0.0143
 4324TIP3    H212926   2.991   3.779   2.949 -0.3972  0.1182  1.9844
 4325TIP3   OH212927   4.652   6.121   0.686  0.3311  0.3773  0.0112
 4325TIP3    H112928   4.628   6.152   0.773 -0.3296  1.3809 -0.5220
 4325TIP3    H212929   4.707   6.191   0.650 -0.3431  0.4969 -0.8077
 4326TIP3   OH212930   4.057   4.807   3.382  0.0820  0.0251  0.3118
 4326TIP3    H112931   3.988   4.754   3.421 -0.8549  1.5805  0.7871
 4326TIP3    H212932   4.012   4.871   3.326  1.0217  1.8649  1.5949
 4327TIP3   OH212933   5.027   6.692   1.776 -0.0849  0.1195  0.6098
 4327TIP3    H112934   5.025   6.657   1.865 -0.8914 -0.8642  0.2226
 4327TIP3    H212935   4.935   6.714   1.757  0.0839  0.3497  0.0426
 4328TIP3   OH212936   2.859   3.055   1.680  0.0707  0.3542 -0.2133
 4328TIP3    H112937   2.860   3.149   1.695 -2.3420  0.4062 -0.2363
 4328TIP3    H212938   2.913   3.019   1.751 -1.0955  1.5596  1.3171
 4329TIP3   OH212939   3.248   5.341   2.070 -0.5788 -0.0245  0.3582
 4329TIP3    H112940   3.321   5.343   2.132 -0.7959  0.6777  0.6031
 4329TIP3    H212941   3.236   5.248   2.050 -1.2684 -0.4000  2.3156
 4330TIP3   OH212942   1.711   4.471   2.176  0.5767  0.0704  0.1739
 4330TIP3    H112943   1.708   4.377   2.161 -0.4783  0.0554  0.4656
 4330TIP3    H212944   1.758   4.481   2.259 -1.5905 -0.3613  1.4941
 4331TIP3   OH212945   3.941   6.431   1.655  0.0019 -0.2025 -0.3840
 4331TIP3    H112946   3.906   6.519   1.641  0.8200 -0.0444 -1.5543
 4331TIP3    H212947   3.908   6.380   1.581  1.3778 -0.2998 -0.9519
 4332TIP3   OH212948   3.728   6.976   1.428 -0.3885  0.1574  0.3474
 4332TIP3    H112949   3.787   6.904   1.450  0.8889  1.2414  0.5807
 4332TIP3    H212950   3.717   7.023   1.511 -1.2346  0.2147  0.2031
 4333TIP3   OH212951   3.306   3.642   2.755 -0.5074  0.0755 -0.0338
 4333TIP3    H112952   3.297   3.712   2.820  1.5257  0.2308  0.0966
 4333TIP3    H212953   3.237   3.580   2.778 -1.9329  1.7026  0.2414
 4334TIP3   OH212954   2.744   3.554   2.682  0.1194 -0.3888 -0.2962
 4334TIP3    H112955   2.683   3.626   2.701  1.0734 -0.0433  1.5661
 4334TIP3    H212956   2.699   3.502   2.616 -1.5861  0.6599 -0.0000
 4335TIP3   OH212957   0.721   1.602   5.052  0.7645 -0.3705  0.3648
 4335TIP3    H112958   0.779   1.637   5.120  0.6178  0.4675  0.0648
 4335TIP3    H212959   0.694   1.679   5.002 -1.0507 -0.6692  0.8496
 4336TIP3   OH212960   3.369   6.502   1.245  0.2043  0.3443  0.0719
 4336TIP3    H112961   3.412   6.521   1.162 -1.0819  0.7731 -0.4970
 4336TIP3    H212962   3.367   6.406   1.250 -1.4359  0.2903 -1.3005
 4337TIP3   OH212963   3.655   4.060   0.038  0.0031 -0.0371  0.9427
 4337TIP3    H112964   3.582   4.118   0.017 -0.4326 -0.8323  0.2507
 4337TIP3    H212965   3.623   4.006   0.110 -1.5001 -2.9587 -1.7573
 4338TIP3   OH212966   2.989   5.925   1.715  0.2514 -0.0645 -0.0827
 4338TIP3    H112967   3.074   5.882   1.725  0.3861  0.0891 -0.5533
 4338TIP3    H212968   3.000   5.983   1.640 -0.1508  0.2573  0.1054
 4339TIP3   OH212969   3.929   6.835   1.560 -0.4264 -0.2718  0.3047
 4339TIP3    H112970   3.974   6.796   1.485 -0.1127 -0.6932  0.7096
 4339TIP3    H212971   3.990   6.903   1.590  1.0325 -2.4094  2.3049
 4340TIP3   OH212972   2.855   4.857   0.652  0.3959  0.6695  0.4722
 4340TIP3    H112973   2.889   4.874   0.564 -0.7203  1.0006  0.0877
 4340TIP3    H212974   2.793   4.785   0.640 -0.6608  1.5119  0.7620
 4341TIP3   OH212975   2.373   4.713   1.563  0.5483 -0.0931  0.9003
 4341TIP3    H112976   2.443   4.720   1.627 -0.7649  1.5259  2.2002
 4341TIP3    H212977   2.417   4.727   1.478  1.9271  0.0093  1.6172
 4342TIP3   OH212978   5.260   7.229   2.121 -0.5193  0.0368 -0.4034
 4342TIP3    H112979   5.286   7.159   2.181 -0.2670 -0.1224 -0.6999
 4342TIP3    H212980   5.170   7.207   2.097 -0.3628 -0.3152 -0.6768
 4343TIP3   OH212981   0.876   3.102   6.367 -0.0654 -0.1620  0.2984
 4343TIP3    H112982   0.943   3.034   6.379 -0.0580 -0.1576  0.2815
 4343TIP3    H212983   0.906   3.151   6.290 -1.6117 -1.9540 -1.5052
 4344TIP3   OH212984   2.969   7.243   3.096  0.7404 -0.2624  0.4534
 4344TIP3    H112985   2.935   7.172   3.043 -0.1771 -0.9004  1.8581
 4344TIP3    H212986   2.957   7.213   3.186  1.2850  1.2413  1.0379
 4345TIP3   OH212987   0.854   6.153   2.753 -0.1605  0.3779  0.4122
 4345TIP3    H112988   0.936   6.196   2.728 -0.2614  1.0572  1.2181
 4345TIP3    H212989   0.850   6.075   2.698 -0.4954  1.9366 -1.8557
 4346TIP3   OH212990   2.773   5.753   2.687  0.0359  0.5000  0.3467
 4346TIP3    H112991   2.807   5.837   2.655  2.3666 -0.1737  0.9580
 4346TIP3    H212992   2.694   5.777   2.737 -0.5250  2.0901 -1.2276
 4347TIP3   OH212993   3.771   6.238   0.831 -0.6459  0.1424  0.3873
 4347TIP3    H112994   3.686   6.225   0.873  0.4164  0.0338  2.5474
 4347TIP3    H212995   3.834   6.200   0.892  0.9903  0.4095 -1.0957
 4348TIP3   OH212996   5.062   4.106   3.121  0.0923  0.0152 -0.0635
 4348TIP3    H112997   5.123   4.175   3.144  0.1470  0.8849 -2.6178
 4348TIP3    H212998   5.105   4.059   3.049 -1.1141 -0.9665 -0.1623
 4349TIP3   OH212999   2.084   5.620   1.660 -0.2169 -0.1503 -0.5526
 4349TIP3    H113000   2.131   5.581   1.734  0.5296  0.3247 -0.7593
 4349TIP3    H213001   2.067   5.548   1.600  0.2878 -0.3238 -0.4867
 4350TIP3   OH213002   3.551   4.407   1.575 -0.1138 -0.0592  0.5672
 4350TIP3    H113003   3.611   4.366   1.513 -0.1915 -0.8078  0.9723
 4350TIP3    H213004   3.540   4.497   1.543 -0.1873 -0.4447 -0.5266
 4351TIP3   OH213005   3.118   7.390   0.125 -0.8477 -0.0390  0.0239
 4351TIP3    H113006   3.099   7.417   0.215 -0.9805  0.6099 -0.2021
 4351TIP3    H213007   3.208   7.421   0.110 -1.2524  0.8822 -0.4746
 4352TIP3   OH213008   3.419   5.574   3.086 -0.1347 -0.2349  0.1638
 4352TIP3    H113009   3.471   5.515   3.032 -0.1315 -0.3706  0.3159
 4352TIP3    H213010   3.397   5.646   3.027 -0.9912 -0.8748 -0.3138
 4353TIP3   OH213011   3.221   5.198   1.260  0.4198 -0.2982 -0.4746
 4353TIP3    H113012   3.306   5.175   1.296 -0.1960 -2.3043 -0.2514
 4353TIP3    H213013   3.193   5.274   1.310  1.5064 -0.4068  0.3091
 4354TIP3   OH213014   0.709   5.086   0.076 -0.5277 -0.7019  0.5174
 4354TIP3    H113015   0.690   5.101   0.169  0.1985 -0.4125  0.6259
 4354TIP3    H213016   0.633   5.120   0.030  0.3364  1.8198  0.8577
 4355TIP3   OH213017   3.551   3.791   1.887  0.1142  0.5081  0.4984
 4355TIP3    H113018   3.534   3.771   1.979 -1.0181  1.6305  0.5488
 4355TIP3    H213019   3.499   3.726   1.839  1.4306 -0.6727  0.6253
 4356TIP3   OH213020   1.649   5.187   3.054 -0.2753  0.0345 -0.0527
 4356TIP3    H113021   1.654   5.214   2.962 -2.9996 -0.9475 -0.5285
 4356TIP3    H213022   1.738   5.157   3.075  1.2494  3.3605 -1.3586
 4357TIP3   OH213023   2.855   5.244   1.477 -0.2129  0.1963 -0.1187
 4357TIP3    H113024   2.784   5.307   1.488  0.5399  0.9336  0.6137
 4357TIP3    H213025   2.882   5.253   1.386 -0.1063  0.9426 -0.0141
 4358TIP3   OH213026   3.821   5.552   2.836  0.3863 -0.2583 -0.2188
 4358TIP3    H113027   3.827   5.645   2.816  1.2079 -0.1433  0.5476
 4358TIP3    H213028   3.849   5.508   2.755  1.6667  0.1820 -0.0222
 4359TIP3   OH213029   4.300   6.778   1.698  0.0496 -0.4726 -0.1583
 4359TIP3    H113030   4.328   6.851   1.644 -0.2681 -0.4727 -0.3247
 4359TIP3    H213031   4.367   6.711   1.684 -1.1019 -1.2431 -2.1646
 4360TIP3   OH213032   6.114   6.171   1.547 -0.0408  0.0557  0.2667
 4360TIP3    H113033   6.200   6.137   1.573  0.4402  0.4514 -0.8043
 4360TIP3    H213034   6.116   6.263   1.574  0.4816  0.4832 -1.2068
 4361TIP3   OH213035   1.656   5.564   1.369 -0.0901 -0.3166 -0.2643
 4361TIP3    H113036   1.595   5.619   1.418  0.4757 -0.1012  0.1981
 4361TIP3    H213037   1.663   5.607   1.283 -0.6111 -0.3627 -0.3318
 4362TIP3   OH213038   2.215   4.486   0.450  0.1598  0.5086 -0.8162
 4362TIP3    H113039   2.302   4.446   0.447  0.3011  0.8853 -2.0057
 4362TIP3    H213040   2.231   4.574   0.482  0.1486  0.3947 -0.4970
 4363TIP3   OH213041   0.112   5.864   2.519 -0.2757 -0.0429 -0.0799
 4363TIP3    H113042   0.105   5.771   2.498  1.4697 -0.0258 -0.7865
 4363TIP3    H213043   0.205   5.878   2.535 -0.3354  1.8629 -1.3045
 4364TIP3   OH213044   2.708   6.686   1.204  0.0538  0.3551  0.1687
 4364TIP3    H113045   2.632   6.727   1.245  0.3012 -0.0993  1.0892
 4364TIP3    H213046   2.705   6.716   1.113  0.3835  2.6445  0.8704
 4365TIP3   OH213047   4.588   7.034   2.397 -0.3130 -0.2579 -0.7274
 4365TIP3    H113048   4.576   6.983   2.477  2.4753  0.8418  0.4653
 4365TIP3    H213049   4.580   6.970   2.326  0.7288 -1.9378  0.6259
 4366TIP3   OH213050   3.990   5.423   3.590  0.0069 -0.4236 -0.0651
 4366TIP3    H113051   3.933   5.413   3.666 -0.1314  0.8172 -0.0069
 4366TIP3    H213052   4.017   5.333   3.568  0.0953 -0.7785  1.4806
 4367TIP3   OH213053   4.358   5.526   2.152 -0.2609 -0.2320  0.0905
 4367TIP3    H113054   4.288   5.579   2.191  1.9970  2.8272  0.2196
 4367TIP3    H213055   4.415   5.504   2.226  0.5918  0.0460 -0.4716
 4368TIP3   OH213056   7.788   1.259   5.368  0.6074  0.3086 -0.5348
 4368TIP3    H113057   7.809   1.321   5.437  1.4283 -0.0031 -0.5023
 4368TIP3    H213058   7.858   1.193   5.372  0.5519  0.1820 -1.5228
 4369TIP3   OH213059   3.558   5.528   3.670  0.1516 -0.5953  0.5822
 4369TIP3    H113060   3.479   5.572   3.702  0.8819  0.7292  0.6303
 4369TIP3    H213061   3.533   5.491   3.586 -0.1893  0.8678  0.0223
 4370TIP3   OH213062   3.226   6.502   1.678 -0.6614 -0.0982  0.1789
 4370TIP3    H113063   3.182   6.487   1.594  1.2154 -0.7226 -0.7241
 4370TIP3    H213064   3.222   6.417   1.723 -1.1433  0.0768  0.4678
 4371TIP3   OH213065   0.982   6.806   1.099 -0.6087 -0.4337  0.1486
 4371TIP3    H113066   1.076   6.812   1.083 -0.3522 -0.8907  1.3999
 4371TIP3    H213067   0.944   6.793   1.013  0.2979  1.6705 -0.6022
 4372TIP3   OH213068   4.215   5.375   2.782 -0.2211  0.2043 -0.0662
 4372TIP3    H113069   4.202   5.469   2.779 -3.6116 -0.2230 -1.2085
 4372TIP3    H213070   4.192   5.344   2.694 -0.6685 -1.8193  0.7164
 4373TIP3   OH213071   0.909   6.019   2.490  0.4926 -0.3254  0.6465
 4373TIP3    H113072   0.919   5.927   2.512 -2.2387 -0.6224  0.8254
 4373TIP3    H213073   0.889   6.020   2.397 -1.8225 -0.1442  1.1024
 4374TIP3   OH213074   1.754   6.908   2.040  0.1504  0.5564  0.0287
 4374TIP3    H113075   1.681   6.885   1.982 -1.1685  1.5246  1.2768
 4374TIP3    H213076   1.757   6.838   2.105  0.9750  0.0067 -0.5891
 4375TIP3   OH213077   1.106   5.244   1.106 -0.1212 -0.2954  0.3133
 4375TIP3    H113078   1.030   5.253   1.048  1.1061 -1.6432 -1.5409
 4375TIP3    H213079   1.098   5.318   1.167  0.2445  3.0652 -3.5403
 4376TIP3   OH213080   3.266   4.670   2.235 -0.0127  0.0260 -0.2561
 4376TIP3    H113081   3.207   4.616   2.288 -1.1753  1.7125  0.1992
 4376TIP3    H213082   3.257   4.636   2.146 -0.5955 -0.6449  0.0565
 4377TIP3   OH213083   6.048   5.683   3.582 -0.2053 -0.0829 -0.6356
 4377TIP3    H113084   6.134   5.641   3.583 -0.0743  0.1760 -1.0258
 4377TIP3    H213085   6.045   5.736   3.661 -0.2835 -0.6544 -0.2534
 4378TIP3   OH213086   4.653   4.474   3.350  0.5661  0.4173 -0.3115
 4378TIP3    H113087   4.611   4.431   3.424  1.3789 -0.4776 -0.3507
 4378TIP3    H213088   4.612   4.560   3.345  0.4201  0.4482  1.1169
 4379TIP3   OH213089   1.237   6.762   1.020 -0.6842 -0.3344  0.1196
 4379TIP3    H113090   1.247   6.688   0.960 -1.6755  0.5181 -1.1135
 4379TIP3    H213091   1.222   6.721   1.106 -1.5906 -1.5606 -0.6045
 4380TIP3   OH213092   1.183   4.288   0.457  0.6753 -0.3813  0.3006
 4380TIP3    H113093   1.157   4.312   0.368  2.7504 -1.3508 -0.5958
 4380TIP3    H213094   1.105   4.306   0.510 -0.1736  1.4696 -1.4743
 4381TIP3   OH213095   4.451   6.706   2.887 -0.1593  0.4268 -0.3233
 4381TIP3    H113096   4.355   6.706   2.883 -0.1182 -0.6126 -1.6055
 4381TIP3    H213097   4.478   6.771   2.823 -0.0148  0.7835  0.1021
 4382TIP3   OH213098   0.618   4.577   0.384 -0.0665  0.9456 -0.1633
 4382TIP3    H113099   0.540   4.527   0.359 -0.4392  1.3591  0.1790
 4382TIP3    H213100   0.642   4.625   0.305 -0.2397  0.9330 -0.2229
 4383TIP3   OH213101   2.274   6.464   1.887  0.0685  0.8972 -0.1233
 4383TIP3    H113102   2.336   6.412   1.939 -0.9258  0.0921  0.2791
 4383TIP3    H213103   2.189   6.426   1.908 -0.3462  0.5334 -2.3899
 4384TIP3   OH213104   2.244   3.343   1.627 -0.8374  0.3226 -0.1545
 4384TIP3    H113105   2.216   3.418   1.679 -1.5585 -0.9200  1.2864
 4384TIP3    H213106   2.321   3.374   1.580 -0.0450  1.3980  1.8120
 4385TIP3   OH213107   4.200   5.081   1.932 -0.1511 -0.6206 -0.2646
 4385TIP3    H113108   4.231   5.167   1.904  2.7728 -1.8720 -1.1399
 4385TIP3    H213109   4.265   5.052   1.996 -1.1076 -2.1633  0.0271
 4386TIP3   OH213110   3.212   4.364   5.428 -0.2429  0.5591 -0.5134
 4386TIP3    H113111   3.212   4.268   5.422 -0.9222  0.4952  0.3867
 4386TIP3    H213112   3.248   4.382   5.514  1.6648  1.1854 -1.4212
 4387TIP3   OH213113   0.862   4.663   3.956 -0.0203 -0.3483  0.6906
 4387TIP3    H113114   0.787   4.660   4.015 -0.2532 -0.0485  0.4162
 4387TIP3    H213115   0.927   4.718   4.001 -0.1057 -0.3166  0.7741
 4388TIP3   OH213116   4.322   4.754   0.909 -0.4957 -0.2764  0.3020
 4388TIP3    H113117   4.409   4.715   0.906 -0.4990 -0.4195  1.6604
 4388TIP3    H213118   4.315   4.806   0.829  0.8615 -0.2241  0.2160
 4389TIP3   OH213119   3.156   6.895   3.111  0.4683 -0.3304 -0.3620
 4389TIP3    H113120   3.085   6.832   3.101  1.2484 -1.4874  1.2310
 4389TIP3    H213121   3.136   6.964   3.048 -0.4531 -2.1087 -2.0624
 4390TIP3   OH213122   3.752   6.660   1.667  0.4539 -0.6317  0.0338
 4390TIP3    H113123   3.802   6.734   1.633  1.4204 -1.6813 -0.8470
 4390TIP3    H213124   3.682   6.647   1.603 -0.0475 -0.1399  0.4748
 4391TIP3   OH213125   7.878   1.418   6.147 -0.3616  0.0553 -0.4132
 4391TIP3    H113126   7.880   1.333   6.191  0.9510 -0.1137 -0.7692
 4391TIP3    H213127   7.893   1.398   6.055  0.0349  0.6792 -0.4870
 4392TIP3   OH213128   0.770   6.245   3.456  0.3579  0.0465  0.0884
 4392TIP3    H113129   0.725   6.325   3.431 -0.0962  0.3818  1.9688
 4392TIP3    H213130   0.847   6.242   3.398 -1.8125 -0.3585 -2.9137
 4393TIP3   OH213131   4.706   5.529   2.469 -0.0565  0.0432 -0.4818
 4393TIP3    H113132   4.704   5.532   2.373 -0.0518 -0.4184 -0.4954
 4393TIP3    H213133   4.686   5.619   2.496  2.0317  0.6693 -0.9449
 4394TIP3   OH213134   0.895   0.926   6.187  0.2064 -0.0323 -0.0096
 4394TIP3    H113135   0.834   0.882   6.247 -1.3169 -0.2437 -1.6887
 4394TIP3    H213136   0.856   1.012   6.172  0.8530  0.2079 -0.3177
 4395TIP3   OH213137   5.192   5.105   3.316 -0.1679 -0.2655  0.1721
 4395TIP3    H113138   5.097   5.118   3.321 -0.0645  0.2055  0.9534
 4395TIP3    H213139   5.228   5.193   3.327  0.4292 -0.7319  1.9919
 4396TIP3   OH213140   6.196   6.533   6.340  0.5261 -0.5714 -0.4181
 4396TIP3    H113141   6.102   6.520   6.332  0.3709  0.9321 -1.2276
 4396TIP3    H213142   6.228   6.454   6.385 -1.1461 -0.9508  0.1259
 4397TIP3   OH213143   2.427   5.092   2.132  0.4589 -0.0888  0.3681
 4397TIP3    H113144   2.431   5.151   2.207  1.0919 -0.8960  0.9770
 4397TIP3    H213145   2.512   5.099   2.090  0.1978  0.1636 -0.1283
 4398TIP3   OH213146   7.930   1.920   6.401  0.1720 -0.0876  0.4186
 4398TIP3    H113147   7.866   1.853   6.426 -0.6682  0.4782 -0.1533
 4398TIP3    H213148   7.886   2.003   6.420  0.5507  0.3150 -0.4005
 4399TIP3   OH213149   2.956   5.213   1.205 -0.6683 -0.1420 -0.1121
 4399TIP3    H113150   3.036   5.160   1.200 -1.0861 -0.6632 -1.4674
 4399TIP3    H213151   2.885   5.151   1.190 -1.1843  0.7482 -1.4519
 4400TIP3   OH213152   0.703   0.924   4.720 -0.3437  0.4367 -0.8676
 4400TIP3    H113153   0.624   0.971   4.692 -1.2526 -0.9136 -0.5957
 4400TIP3    H213154   0.763   0.993   4.747 -0.7031  1.5991 -2.9225
 4401TIP3   OH213155   2.533   5.076   1.530 -0.2780 -0.7030 -0.1221
 4401TIP3    H113156   2.549   5.159   1.575 -0.1325 -0.6412 -0.2838
 4401TIP3    H213157   2.620   5.038   1.519 -0.2486 -0.4523 -0.8436
 4402TIP3   OH213158   6.313   0.428   4.722 -0.0581  0.1287  0.2911
 4402TIP3    H113159   6.398   0.465   4.701 -0.5568  0.9340 -0.3341
 4402TIP3    H213160   6.264   0.501   4.761 -1.1360  0.2052 -1.1855
 4403TIP3   OH213161   1.273   2.950   4.960  0.3189  0.5087  0.2666
 4403TIP3    H113162   1.308   2.895   5.030  2.2535  1.5391  0.1359
 4403TIP3    H213163   1.189   2.909   4.938  0.2667 -0.5659  2.2990
 4404TIP3   OH213164   3.345   3.038   0.033 -0.4969  0.1200  0.2559
 4404TIP3    H113165   3.319   2.946   0.031 -0.2688  0.0661 -0.3180
 4404TIP3    H213166   3.269   3.085  -0.002 -0.2903  0.0734 -0.2543
 4405TIP3   OH213167   7.586   3.805   5.958 -0.1850  0.2119 -0.4613
 4405TIP3    H113168   7.553   3.715   5.946 -1.3356  0.9519 -3.1093
 4405TIP3    H213169   7.679   3.799   5.940  0.0679 -0.7408  1.0230
 4406TIP3   OH213170   4.694   5.047   4.070  0.4222  0.2398  0.2382
 4406TIP3    H113171   4.611   5.003   4.085  0.3813 -0.1887 -1.2190
 4406TIP3    H213172   4.743   5.034   4.152 -0.9268  0.4895  1.0848
 4407TIP3   OH213173   0.654   2.952   5.317  0.1541  0.3740  0.3555
 4407TIP3    H113174   0.623   2.920   5.402  0.0307 -1.1871 -0.2611
 4407TIP3    H213175   0.749   2.946   5.322  0.1257 -0.1535  0.2053
 4408TIP3   OH213176   4.131   3.203   2.772  0.1001  0.6334  0.5600
 4408TIP3    H113177   4.075   3.126   2.759  0.4514  0.4763 -0.1061
 4408TIP3    H213178   4.219   3.166   2.785  0.2959  0.9232  0.0865
 4409TIP3   OH213179   0.999   4.607   3.257  0.8438  0.6036  0.3534
 4409TIP3    H113180   1.089   4.574   3.261  0.8378  0.6232  0.6636
 4409TIP3    H213181   0.949   4.546   3.311  0.2225 -0.8736 -1.7799
 4410TIP3   OH213182   2.621   5.871   1.346 -0.4222 -0.4091  0.2367
 4410TIP3    H113183   2.632   5.788   1.300 -0.0536  0.1726 -0.7232
 4410TIP3    H213184   2.665   5.857   1.430  3.6787  0.3228 -1.6917
 4411TIP3   OH213185   3.652   4.099   0.763 -0.3126 -0.0646  0.1444
 4411TIP3    H113186   3.701   4.164   0.813 -0.2361  0.0941 -0.1327
 4411TIP3    H213187   3.673   4.016   0.805  1.7876 -0.2465 -1.1630
 4412TIP3   OH213188   3.182   5.939   3.262 -0.5642 -0.2222  0.3413
 4412TIP3    H113189   3.202   6.020   3.215 -1.4482 -0.4687 -0.4703
 4412TIP3    H213190   3.139   5.883   3.197 -3.1009 -0.0335  1.7885
 4413TIP3   OH213191   3.517   3.982   3.708  0.3955  0.0886  0.1381
 4413TIP3    H113192   3.540   3.947   3.794 -1.4879 -0.6184  0.3868
 4413TIP3    H213193   3.454   4.052   3.726 -0.6486 -0.6157 -0.6777
 4414TIP3   OH213194   5.160   5.421   1.927  0.0316  0.3342  0.2018
 4414TIP3    H113195   5.225   5.380   1.984 -2.6043 -0.9283  2.4093
 4414TIP3    H213196   5.210   5.450   1.851  2.5778 -4.3662 -0.1277
 4415TIP3   OH213197   3.716   3.523   1.934 -0.7770 -0.0227 -0.1385
 4415TIP3    H113198   3.672   3.504   2.016 -0.8419 -0.0779 -0.1863
 4415TIP3    H213199   3.733   3.617   1.937  0.2468 -0.2177  0.4487
 4416TIP3   OH213200   3.678   7.224   0.720 -0.1518  0.1641 -0.2156
 4416TIP3    H113201   3.771   7.222   0.697 -0.0372  2.6350 -0.1386
 4416TIP3    H213202   3.632   7.216   0.637  0.1235 -1.3653 -0.2232
 4417TIP3   OH213203   3.699   5.016   3.655  0.6444 -0.0457 -0.2185
 4417TIP3    H113204   3.626   4.971   3.697  1.8659 -1.1891  0.7172
 4417TIP3    H213205   3.658   5.088   3.607 -1.2385 -1.4744 -0.8370
 4418TIP3   OH213206   2.669   6.303   1.424  0.3691  0.2370  0.2236
 4418TIP3    H113207   2.652   6.229   1.365  0.3311 -0.5230  1.1721
 4418TIP3    H213208   2.583   6.345   1.435  0.2327 -0.0686  0.3313
 4419TIP3   OH213209   4.032   4.822   2.574  0.6084  0.3560 -0.1416
 4419TIP3    H113210   4.018   4.737   2.615 -0.1907  0.0428 -1.0346
 4419TIP3    H213211   3.946   4.846   2.539  0.7100  1.7655  0.5362
 4420TIP3   OH213212   3.621   3.331   2.895 -0.2819 -0.2852  0.4714
 4420TIP3    H113213   3.669   3.359   2.817  0.1988  0.2387  0.9394
 4420TIP3    H213214   3.530   3.325   2.867 -0.1655  0.2550 -0.0410
 4421TIP3   OH213215   0.613   5.393   0.894 -0.5617 -0.4493  0.4453
 4421TIP3    H113216   0.536   5.425   0.848 -1.3653  1.4357  2.9911
 4421TIP3    H213217   0.661   5.471   0.918  1.2309 -1.5329  0.4687
 4422TIP3   OH213218   3.469   5.626   0.210  0.1536 -0.5762  0.2145
 4422TIP3    H113219   3.423   5.691   0.158  0.7261  0.3975  0.9027
 4422TIP3    H213220   3.562   5.639   0.188  0.2682 -1.2185  0.2918
 4423TIP3   OH213221   0.992   6.245   3.282  0.0380  0.5078  0.7112
 4423TIP3    H113222   0.992   6.235   3.187 -1.3410  0.8700  0.6530
 4423TIP3    H213223   1.072   6.293   3.302  0.7033 -0.2254 -0.1856
 4424TIP3   OH213224   2.495   5.439   3.332  0.1252  0.0425  0.0824
 4424TIP3    H113225   2.577   5.391   3.339 -0.5806 -1.2134 -0.1480
 4424TIP3    H213226   2.440   5.386   3.274 -0.9251  0.7658  0.3874
 4425TIP3   OH213227   3.390   5.453   1.182  0.5734  0.3564  0.0042
 4425TIP3    H113228   3.377   5.480   1.273 -1.7513  1.8422 -0.7305
 4425TIP3    H213229   3.342   5.371   1.174 -0.1531  0.7848 -0.1354
 4426TIP3   OH213230   3.974   6.923   2.235  0.3378 -0.1299 -0.0188
 4426TIP3    H113231   3.892   6.962   2.206  0.2759  1.5624  2.2840
 4426TIP3    H213232   3.976   6.837   2.194 -3.3506 -0.8276  1.1420
 4427TIP3   OH213233   5.159   6.078   2.580  0.4723  0.3513  0.0106
 4427TIP3    H113234   5.163   6.173   2.590 -2.3941  0.3699  1.3554
 4427TIP3    H213235   5.117   6.047   2.660 -0.6636 -1.8305 -1.3871
 4428TIP3   OH213236   3.893   5.652   1.763  0.0288  0.0341 -0.1689
 4428TIP3    H113237   3.833   5.637   1.836  1.5206 -0.3201  1.0158
 4428TIP3    H213238   3.963   5.589   1.777  0.7567  0.5513 -1.4339
 4429TIP3   OH213239   5.564   4.373   3.340 -0.2808  0.3630 -0.0941
 4429TIP3    H113240   5.609   4.420   3.410 -0.5299  0.5613 -0.0667
 4429TIP3    H213241   5.541   4.440   3.276 -1.1951  0.3787  0.2405
 4430TIP3   OH213242   6.223   4.432   2.258 -0.1970  1.1010  0.5756
 4430TIP3    H113243   6.308   4.389   2.259 -0.5098  0.4083 -1.0002
 4430TIP3    H213244   6.243   4.525   2.268  0.7214  0.9178  0.4736
 4431TIP3   OH213245   6.860   1.075   2.829 -0.0572  0.2310  0.1382
 4431TIP3    H113246   6.919   1.092   2.902 -0.7097  1.7601  0.3537
 4431TIP3    H213247   6.907   1.106   2.752  0.3326 -0.6862  0.0040
 4432TIP3   OH213248   0.740   0.350   6.271 -0.0049 -0.4052 -0.0539
 4432TIP3    H113249   0.686   0.373   6.196  0.4296  1.3336  0.1496
 4432TIP3    H213250   0.805   0.420   6.276 -0.7911  0.1971  2.6961
 4433TIP3   OH213251   3.857   5.928   3.174 -0.0371  0.0260 -0.0401
 4433TIP3    H113252   3.805   5.883   3.108  1.2516 -0.4065 -0.7762
 4433TIP3    H213253   3.846   6.021   3.155 -2.1593  0.0272  1.0656
 4434TIP3   OH213254   3.419   3.934   0.458 -0.3586 -0.1679  0.4019
 4434TIP3    H113255   3.415   3.976   0.544 -0.8528 -0.1249  0.3579
 4434TIP3    H213256   3.355   3.863   0.463  0.1924 -0.6737  0.3423
 4435TIP3   OH213257   0.746   1.382   6.468  0.0857 -0.0871  0.6564
 4435TIP3    H113258   0.715   1.357   6.380  1.6395  0.1358  0.0276
 4435TIP3    H213259   0.704   1.467   6.484  0.3065  0.1881 -0.1563
 4436TIP3   OH213260   6.623   0.069   2.456 -0.2947 -0.0255 -0.2701
 4436TIP3    H113261   6.575   0.146   2.485  0.0093 -0.3482  1.1286
 4436TIP3    H213262   6.669   0.097   2.377 -0.2954  1.1745  0.1508
 4437TIP3   OH213263   3.364   4.821   0.274 -0.0434  0.1329 -0.2883
 4437TIP3    H113264   3.440   4.874   0.250  0.3525  0.2203  1.1297
 4437TIP3    H213265   3.401   4.744   0.317 -0.7733  0.3902  0.8082
 4438TIP3   OH213266   2.022   3.128   1.126  0.0437  0.1269  0.1102
 4438TIP3    H113267   2.072   3.173   1.194  1.5582 -1.8451  0.3304
 4438TIP3    H213268   1.931   3.140   1.152  0.5321  1.0552  1.4392
 4439TIP3   OH213269   2.446   4.365   2.530  0.3774  0.0235  0.3742
 4439TIP3    H113270   2.425   4.317   2.610  0.9809 -0.8494  0.0181
 4439TIP3    H213271   2.391   4.443   2.533 -1.5749 -1.3115  0.3477
 4440TIP3   OH213272   2.239   4.862   0.860  0.8274 -0.5788 -0.7615
 4440TIP3    H113273   2.211   4.900   0.776  0.7021 -2.7845 -1.7482
 4440TIP3    H213274   2.242   4.936   0.920  1.4833  1.1474 -2.8650
 4441TIP3   OH213275   2.285   6.258   2.734 -0.1851 -0.0694 -0.3517
 4441TIP3    H113276   2.366   6.238   2.781  0.0096  1.0936 -0.1663
 4441TIP3    H213277   2.236   6.176   2.734  0.1477 -0.2901  1.2151
 4442TIP3   OH213278   4.742   4.669   1.939  0.0349  0.1546  0.6425
 4442TIP3    H113279   4.669   4.711   1.893 -0.2172 -0.3826  0.5450
 4442TIP3    H213280   4.814   4.731   1.932 -0.2881  0.4947  0.3508
 4443TIP3   OH213281   4.070   3.575   0.825 -0.2039  0.8112 -0.8614
 4443TIP3    H113282   4.138   3.548   0.764  0.7295 -1.6375  1.2105
 4443TIP3    H213283   4.087   3.668   0.839  1.7363  0.5856 -1.5637
 4444TIP3   OH213284   1.675   4.481   0.627 -0.6270 -0.0753  0.0341
 4444TIP3    H113285   1.580   4.474   0.615 -0.7245 -0.3102  0.9166
 4444TIP3    H213286   1.704   4.539   0.556 -1.6324  1.2405  0.6744
 4445TIP3   OH213287   1.245   4.219   2.341 -0.8400  0.2784 -0.0119
 4445TIP3    H113288   1.305   4.294   2.339 -0.9687  0.5024  2.8630
 4445TIP3    H213289   1.296   4.146   2.306  0.6888  0.7678  1.1519
 4446TIP3   OH213290   4.668   6.919   4.221 -0.3084 -0.0417  0.0127
 4446TIP3    H113291   4.611   6.885   4.289  0.7757 -0.7940  0.5576
 4446TIP3    H213292   4.654   6.860   4.146 -0.7665  0.2022 -0.0984
 4447TIP3   OH213293   7.843   0.691   3.928 -0.0935 -0.0146  0.6025
 4447TIP3    H113294   7.886   0.620   3.881  1.2660  0.6160  0.8598
 4447TIP3    H213295   7.797   0.740   3.860  1.3514  0.5329  0.0098
 4448TIP3   OH213296   4.196   1.987   1.422 -0.0166  0.2062 -0.4069
 4448TIP3    H113297   4.233   2.068   1.386  1.7620 -0.3987  0.0013
 4448TIP3    H213298   4.163   2.013   1.508  0.4668  0.5172 -0.3136
 4449TIP3   OH213299   1.926   5.502   1.130 -0.2596 -0.8690  0.4343
 4449TIP3    H113300   1.888   5.416   1.143  0.7741 -1.3844  0.0579
 4449TIP3    H213301   1.979   5.495   1.051 -1.1715  0.4582 -0.3225
 4450TIP3   OH213302   3.016   3.129   0.748 -0.1605 -0.1420 -0.3389
 4450TIP3    H113303   2.974   3.127   0.834  1.1481  0.6978  0.3308
 4450TIP3    H213304   3.039   3.038   0.730  0.3479 -0.2084  0.6051
 4451TIP3   OH213305   4.950   4.219   2.050  0.3416  0.2930 -0.4869
 4451TIP3    H113306   5.021   4.157   2.033  1.5523  1.8773 -1.3206
 4451TIP3    H213307   4.873   4.163   2.063  1.6923 -1.4475  0.3331
 4452TIP3   OH213308   2.174   6.433   3.212 -0.6751  0.0929  0.3417
 4452TIP3    H113309   2.118   6.409   3.286 -1.4549 -0.8797 -0.5445
 4452TIP3    H213310   2.132   6.391   3.137  0.9681 -0.2097 -0.4145
 4453TIP3   OH213311   3.445   5.889   1.559 -0.0239  0.3901 -0.6490
 4453TIP3    H113312   3.532   5.852   1.545  0.4775  1.2068  0.3436
 4453TIP3    H213313   3.440   5.962   1.497  0.9464  1.9110  1.0360
 4454TIP3   OH213314   4.180   5.634   2.752  0.0613 -0.1731 -0.5323
 4454TIP3    H113315   4.271   5.650   2.726  0.3076  0.1041  0.4607
 4454TIP3    H213316   4.166   5.693   2.826 -1.7806  1.7785 -2.3637
 4455TIP3   OH213317   6.274   4.704   2.264  0.0316 -0.2440  0.1180
 4455TIP3    H113318   6.263   4.791   2.302  0.9979 -0.3303  0.5894
 4455TIP3    H213319   6.261   4.717   2.170  0.7996  0.5196  0.1137
 4456TIP3   OH213320   1.590   6.100   4.238  0.2124 -0.2567 -0.5163
 4456TIP3    H113321   1.570   6.041   4.165 -2.1041 -0.9135  0.6065
 4456TIP3    H213322   1.549   6.182   4.213  1.4093  0.2153 -0.9847
 4457TIP3   OH213323   4.144   6.066   1.155 -0.0688  0.4176  0.0140
 4457TIP3    H113324   4.199   6.090   1.230 -0.3778 -1.0236  0.7235
 4457TIP3    H213325   4.149   6.142   1.097  1.8435  0.7298  0.5375
 4458TIP3   OH213326   2.858   6.516   1.443  0.3320 -0.6272 -0.2036
 4458TIP3    H113327   2.949   6.501   1.417  0.0790 -0.5145 -1.1522
 4458TIP3    H213328   2.818   6.429   1.446  0.3853 -0.6479 -0.0940
 4459TIP3   OH213329   7.828  -0.024   1.664 -0.1392 -0.0313  0.2888
 4459TIP3    H113330   7.870   0.062   1.655 -0.2887  0.0410  0.2785
 4459TIP3    H213331   7.735  -0.006   1.654 -0.1288 -0.2685 -0.2383
 4460TIP3   OH213332   6.627   1.250   2.159  0.8844 -0.0703 -0.1342
 4460TIP3    H113333   6.580   1.246   2.076  0.4385 -0.0187  0.1153
 4460TIP3    H213334   6.645   1.343   2.172 -0.2962  0.0722  0.5236
 4461TIP3   OH213335   2.717   5.837   1.625  0.3335 -0.7644  0.3491
 4461TIP3    H113336   2.728   5.925   1.661  0.1616  0.5208 -2.5602
 4461TIP3    H213337   2.807   5.807   1.607  0.3156 -0.5154 -0.1603
 4462TIP3   OH213338   1.580   6.571   3.446  0.1331  0.3184  0.4270
 4462TIP3    H113339   1.642   6.507   3.411 -0.3410  0.2571 -0.3109
 4462TIP3    H213340   1.634   6.647   3.469  0.6051 -0.0902  0.6752
 4463TIP3   OH213341   1.073   2.178   6.404 -0.5642 -0.0021  0.1686
 4463TIP3    H113342   1.057   2.084   6.391 -0.5841 -0.1337  1.1479
 4463TIP3    H213343   1.067   2.215   6.316 -2.6686 -0.6133  0.0113
 4464TIP3   OH213344   2.946   3.783   1.399  0.1871 -0.2281 -0.0454
 4464TIP3    H113345   2.894   3.741   1.330  0.1459  0.0536 -0.1879
 4464TIP3    H213346   2.985   3.859   1.356 -2.4069  1.8248  1.0332
 4465TIP3   OH213347   2.960   3.995   1.237  0.4616 -0.7625  0.1987
 4465TIP3    H113348   2.994   4.084   1.244  0.0158 -0.4878 -0.9449
 4465TIP3    H213349   2.866   4.006   1.223  0.5116 -1.3821 -0.6828
 4466TIP3   OH213350   6.323   3.739   1.399 -0.3504  0.5317  0.2485
 4466TIP3    H113351   6.388   3.800   1.437  1.2475 -2.2002  2.0844
 4466TIP3    H213352   6.240   3.785   1.408  1.2452  4.0815 -2.0031
 4467TIP3   OH213353   1.813   5.066   2.385 -0.3297  0.1233 -0.0556
 4467TIP3    H113354   1.793   5.053   2.478 -1.4965 -0.9895 -0.4430
 4467TIP3    H213355   1.812   4.978   2.348  2.0111  0.3688 -0.7842
 4468TIP3   OH213356   5.023   3.857   0.980  0.2029  0.3971  0.2188
 4468TIP3    H113357   4.934   3.883   1.005 -0.3622 -1.2033 -0.0242
 4468TIP3    H213358   5.016   3.833   0.888  0.3862 -1.7199  0.7093
 4469TIP3   OH213359   5.220   5.302   1.415 -0.5410 -0.1725 -0.3840
 4469TIP3    H113360   5.236   5.241   1.487 -0.0823 -0.4869 -0.7495
 4469TIP3    H213361   5.134   5.279   1.381 -0.5770 -0.2952 -0.2036
 4470TIP3   OH213362   3.631   4.125   0.498 -0.3088  0.2810  0.2489
 4470TIP3    H113363   3.618   4.145   0.591 -1.0505 -1.6898  0.5854
 4470TIP3    H213364   3.549   4.083   0.471 -0.7011  2.2167 -1.6994
 4471TIP3   OH213365   3.620   2.852   3.993 -0.1250 -0.2212  0.0215
 4471TIP3    H113366   3.649   2.810   4.073 -1.6696  1.6261  1.6126
 4471TIP3    H213367   3.546   2.798   3.963 -1.0939  0.4058  1.1957
 4472TIP3   OH213368   1.706   4.534   0.900  0.3183  0.2281 -0.6352
 4472TIP3    H113369   1.771   4.479   0.943 -0.9118 -0.6378  0.1444
 4472TIP3    H213370   1.702   4.501   0.810  1.3443  0.6556 -0.8486
 4473TIP3   OH213371   0.998   5.667   1.409 -0.4292 -0.0995  0.1023
 4473TIP3    H113372   1.063   5.717   1.458 -1.2922 -0.3736  1.5512
 4473TIP3    H213373   0.926   5.728   1.395 -0.2955 -0.0989 -0.6107
 4474TIP3   OH213374   2.901   4.403   1.674 -0.2642  0.2503 -0.7583
 4474TIP3    H113375   2.851   4.438   1.601 -0.7089 -0.7171 -0.9189
 4474TIP3    H213376   2.891   4.308   1.668  1.6013  0.0253 -0.8068
 4475TIP3   OH213377   2.424   4.043   1.519  0.3925 -0.0533  0.6421
 4475TIP3    H113378   2.354   4.015   1.579 -0.8153  0.5291 -0.4643
 4475TIP3    H213379   2.488   4.087   1.575 -0.2099 -0.4451  1.6477
 4476TIP3   OH213380   2.699   6.866   1.757 -0.6027  0.2736  0.4010
 4476TIP3    H113381   2.766   6.812   1.801  0.2283  0.7438 -0.2822
 4476TIP3    H213382   2.690   6.827   1.670 -0.4634  0.8505  0.1288
 4477TIP3   OH213383   4.157   4.310   2.252  0.1881 -0.7946  0.1084
 4477TIP3    H113384   4.176   4.217   2.267  1.2905 -0.6451 -0.3717
 4477TIP3    H213385   4.105   4.336   2.328 -0.1184 -1.8034  0.2533
 4478TIP3   OH213386   3.931   4.179   3.508  0.0868 -0.0932 -0.3031
 4478TIP3    H113387   3.854   4.136   3.469  0.0388  0.2123 -0.5459
 4478TIP3    H213388   3.975   4.220   3.434  1.8559 -2.3524 -0.5723
 4479TIP3   OH213389   7.837   4.923   2.908 -0.4789  1.0357 -0.1876
 4479TIP3    H113390   7.914   4.968   2.875 -1.0204  1.9700 -0.1932
 4479TIP3    H213391   7.763   4.976   2.878 -1.0540  0.9412  1.0282
 4480TIP3   OH213392   5.575   5.283   4.389  0.3673 -0.5313  0.2342
 4480TIP3    H113393   5.509   5.231   4.342  0.6907  0.7955 -1.7237
 4480TIP3    H213394   5.561   5.373   4.358 -0.0900  0.5653  3.4672
 4481TIP3   OH213395   5.654   5.157   3.483  0.2028 -0.4375 -0.7418
 4481TIP3    H113396   5.697   5.073   3.464  0.8473 -0.2099 -0.3167
 4481TIP3    H213397   5.583   5.134   3.543  0.2685 -0.6994 -0.7639
 4482TIP3   OH213398   5.977   5.964   2.545  0.0645 -0.5992 -0.6528
 4482TIP3    H113399   6.057   5.914   2.562 -0.6412 -0.9805  1.6568
 4482TIP3    H213400   6.008   6.052   2.523  1.1003 -0.4263  1.3641
 4483TIP3   OH213401   5.659   4.557   0.807 -0.2525  0.5242 -1.1419
 4483TIP3    H113402   5.734   4.518   0.851 -1.1573  1.3581  1.1901
 4483TIP3    H213403   5.687   4.647   0.787 -0.0787  0.3511 -1.6856
 4484TIP3   OH213404   5.154   4.945   0.923 -0.2734  0.1945  0.1713
 4484TIP3    H113405   5.076   4.935   0.978 -0.8019 -0.3340 -0.6740
 4484TIP3    H213406   5.142   4.883   0.852  1.9210 -1.4136  1.1491
 4485TIP3   OH213407   7.324   5.341   1.942  0.2696 -0.3232 -0.0624
 4485TIP3    H113408   7.365   5.375   2.021 -1.7569 -1.3740  1.4876
 4485TIP3    H213409   7.307   5.419   1.889  0.7264  0.5045  0.9870
 4486TIP3   OH213410   3.565   5.392   0.966 -0.4851 -0.1391 -0.3155
 4486TIP3    H113411   3.614   5.474   0.965 -0.2872 -0.2360  0.6148
 4486TIP3    H213412   3.497   5.406   1.032  0.0574 -1.0145  0.4352
 4487TIP3   OH213413   4.851   3.389   0.375  0.0887 -0.3052 -0.2623
 4487TIP3    H113414   4.783   3.321   0.372 -1.1024  0.8693 -0.3664
 4487TIP3    H213415   4.806   3.466   0.408  1.4626  0.4120 -0.0368
 4488TIP3   OH213416   4.457   3.583   0.799  0.2145  0.3497 -0.1538
 4488TIP3    H113417   4.537   3.624   0.831  0.4465 -0.0436 -0.2225
 4488TIP3    H213418   4.413   3.553   0.878 -1.2459  3.0374  0.1014
 4489TIP3   OH213419   5.296   6.354   0.992  0.0868 -0.7362 -0.6221
 4489TIP3    H113420   5.283   6.437   1.037 -0.6897 -1.3483  0.2878
 4489TIP3    H213421   5.389   6.355   0.967  0.8109 -0.8299  1.8833
 4490TIP3   OH213422   4.948   6.044   2.384 -0.7520  0.4179  0.1941
 4490TIP3    H113423   4.936   5.952   2.409  1.1085 -0.4128 -1.7913
 4490TIP3    H213424   5.037   6.066   2.414 -0.1606  0.7124 -1.6671
 4491TIP3   OH213425   4.095   6.547   0.473  0.1999  0.4447 -0.1919
 4491TIP3    H113426   4.173   6.504   0.438 -0.1421  0.4113 -0.9180
 4491TIP3    H213427   4.023   6.489   0.450 -0.0257  0.3954  0.6213
 4492TIP3   OH213428   6.124   3.935   1.107  0.2407  0.6087  0.1278
 4492TIP3    H113429   6.119   3.973   1.020  3.1581  1.4443  0.2617
 4492TIP3    H213430   6.122   3.841   1.093  0.6176  0.7410 -0.8229
 4493TIP3   OH213431   4.550   5.538   2.994 -0.6118 -0.1799  0.2733
 4493TIP3    H113432   4.613   5.579   3.053 -0.4378  0.0443 -0.0654
 4493TIP3    H213433   4.468   5.538   3.043 -0.9988  2.0503 -0.3160
 4494TIP3   OH213434   4.849   4.835   0.148  0.1245 -0.1556 -0.2482
 4494TIP3    H113435   4.802   4.861   0.069  0.1823  1.1790  0.1328
 4494TIP3    H213436   4.871   4.918   0.190 -0.9947 -0.8704  1.8019
 4495TIP3   OH213437   3.701   4.436   2.118 -0.0676  0.8465  0.7733
 4495TIP3    H113438   3.658   4.463   2.037  1.3631  0.7023 -0.0511
 4495TIP3    H213439   3.672   4.499   2.184 -0.0235  1.8764 -0.1961
 4496TIP3   OH213440   0.339   3.252   3.373  0.2386 -0.3204  0.2119
 4496TIP3    H113441   0.378   3.241   3.460  0.6060  0.7042  0.1777
 4496TIP3    H213442   0.329   3.346   3.363  2.0786 -0.2790 -1.6871
 4497TIP3   OH213443   7.100   4.256   1.377 -0.3746  0.2505 -0.3048
 4497TIP3    H113444   7.188   4.271   1.411 -0.0852 -1.8486 -0.0489
 4497TIP3    H213445   7.091   4.161   1.376 -2.6139  0.4410 -0.4239
 4498TIP3   OH213446   4.404   5.592   4.245  0.1478 -0.2445  0.4923
 4498TIP3    H113447   4.461   5.535   4.193  0.3535  0.1951  0.2363
 4498TIP3    H213448   4.446   5.678   4.241  0.1832 -0.2190  1.4138
 4499TIP3   OH213449   0.654   1.240   2.700  0.0580  0.4327 -0.0786
 4499TIP3    H113450   0.613   1.318   2.737 -0.2270  0.7437 -1.0371
 4499TIP3    H213451   0.673   1.263   2.610  0.3786 -0.4566 -0.2464
 4500TIP3   OH213452   5.668   4.311   1.728 -0.3692  0.5423  0.8327
 4500TIP3    H113453   5.750   4.263   1.734 -0.6590  0.0810  1.1915
 4500TIP3    H213454   5.608   4.263   1.785 -1.3462 -0.0960 -0.6827
 4501TIP3   OH213455   3.861   3.685   2.229  0.5241 -0.2521 -0.4364
 4501TIP3    H113456   3.777   3.670   2.271  0.2278 -0.4857 -1.0959
 4501TIP3    H213457   3.839   3.715   2.141  1.1304 -1.0273 -0.8582
 4502TIP3   OH213458   4.596   4.262   3.183  0.4206 -0.0734 -0.1835
 4502TIP3    H113459   4.666   4.198   3.193  0.8188  0.2671 -0.7072
 4502TIP3    H213460   4.625   4.337   3.234  0.7768  0.3277 -0.9522
 4503TIP3   OH213461   3.012   7.246   2.082  0.0554 -0.1383  0.1245
 4503TIP3    H113462   3.068   7.320   2.105 -0.1018  0.8585 -2.5916
 4503TIP3    H213463   3.034   7.226   1.991 -1.4537 -2.0470  0.1403
 4504TIP3   OH213464   4.018   0.664   6.289 -0.2212  0.5876  0.1393
 4504TIP3    H113465   3.995   0.574   6.269 -1.3344  1.0753 -0.8125
 4504TIP3    H213466   4.112   0.670   6.269 -0.2068 -0.2758 -0.0582
 4505TIP3   OH213467   4.870   5.055   2.612 -0.3949  0.3704  0.8680
 4505TIP3    H113468   4.844   5.147   2.619  0.8967  0.8680 -0.5363
 4505TIP3    H213469   4.790   5.008   2.588 -0.5922  1.4620 -0.6429
 4506TIP3   OH213470   2.899   5.713   1.435  0.2033 -0.3912  0.7724
 4506TIP3    H113471   2.848   5.692   1.357 -2.0457  1.3038  1.7649
 4506TIP3    H213472   2.990   5.706   1.406 -0.5929  1.5457 -2.3981
 4507TIP3   OH213473   4.688   5.713   0.447 -0.7780  0.2993  0.5952
 4507TIP3    H113474   4.662   5.775   0.515 -0.0841  2.3762 -0.9804
 4507TIP3    H213475   4.714   5.768   0.373  1.3286 -1.8365 -0.3169
 4508TIP3   OH213476   5.261   7.168   1.784 -0.1783 -0.0686 -0.5865
 4508TIP3    H113477   5.275   7.199   1.873  0.7467  0.5241 -0.9344
 4508TIP3    H213478   5.243   7.248   1.734 -1.7648 -0.4950 -0.7386
 4509TIP3   OH213479   6.669   5.202   2.959  0.1785  0.4247  0.3376
 4509TIP3    H113480   6.732   5.139   2.993  0.7263  0.7104 -0.1358
 4509TIP3    H213481   6.709   5.235   2.879 -0.9056  0.0624 -0.3742
 4510TIP3   OH213482   3.352   5.808   0.039 -0.0053 -0.0216 -0.0049
 4510TIP3    H113483   3.336   5.884   0.095 -1.3675  0.2868 -0.7829
 4510TIP3    H213484   3.277   5.751   0.056 -0.0906 -0.2095 -1.0375
 4511TIP3   OH213485   5.469   5.247   1.700  0.5300 -0.2642  0.0282
 4511TIP3    H113486   5.471   5.162   1.744 -0.8991 -0.4418 -0.2356
 4511TIP3    H213487   5.436   5.228   1.612  1.0079  0.4519 -0.3135
 4512TIP3   OH213488   6.582   5.435   4.674  0.1247 -0.6196 -0.3320
 4512TIP3    H113489   6.649   5.471   4.733  0.2205  0.5132 -1.1093
 4512TIP3    H213490   6.632   5.405   4.598 -0.0815 -1.3179 -0.1899
 4513TIP3   OH213491   3.172   4.465   0.604  0.4075  0.5934 -0.0232
 4513TIP3    H113492   3.150   4.450   0.512 -2.4689  1.4640  0.4649
 4513TIP3    H213493   3.226   4.544   0.603 -0.6531  1.3219 -0.8845
 4514TIP3   OH213494   6.794   5.660   4.174  0.4016  0.5383 -0.9299
 4514TIP3    H113495   6.758   5.695   4.092  1.8611 -1.9224 -2.6992
 4514TIP3    H213496   6.851   5.729   4.207 -2.2592  2.6223 -0.5500
 4515TIP3   OH213497   2.417   0.640   6.373  0.1200 -0.1603  0.1089
 4515TIP3    H113498   2.463   0.680   6.300  1.9856 -2.3189  0.0741
 4515TIP3    H213499   2.466   0.667   6.451  0.6975 -1.4133  0.1855
 4516TIP3   OH213500   6.233   5.983   0.257  0.0113 -0.6769 -0.2149
 4516TIP3    H113501   6.318   5.958   0.220 -0.1195  2.1095 -2.5360
 4516TIP3    H213502   6.179   6.007   0.181 -2.0928 -0.1677  1.3846
 4517TIP3   OH213503   4.019   4.869   1.877  0.3428  0.0233  1.1724
 4517TIP3    H113504   4.033   4.834   1.965 -0.1008  3.0064  2.4921
 4517TIP3    H213505   4.081   4.941   1.870  0.3179 -0.1439 -0.9476
 4518TIP3   OH213506   7.508   6.465   1.425  0.1092  0.2360  0.3566
 4518TIP3    H113507   7.507   6.481   1.331 -1.6843  0.8949  0.4661
 4518TIP3    H213508   7.596   6.490   1.453  0.2171  1.3421 -0.9162
 4519TIP3   OH213509   4.029   5.540   2.206  0.2322  0.1467 -0.0397
 4519TIP3    H113510   4.046   5.587   2.124  1.0267 -1.0256 -0.5669
 4519TIP3    H213511   4.044   5.448   2.184 -0.9413 -0.3243  1.0656
 4520TIP3   OH213512   3.004   3.668   1.632 -0.0241 -0.7379  0.3551
 4520TIP3    H113513   3.006   3.690   1.539 -0.4371 -0.0551  0.5050
 4520TIP3    H213514   3.044   3.582   1.637  3.4998  0.8019 -0.0134
 4521TIP3   OH213515   5.971   5.299   3.378 -0.0750  0.5056 -0.2338
 4521TIP3    H113516   6.050   5.347   3.403 -0.0470 -0.0279  0.7200
 4521TIP3    H213517   5.958   5.320   3.286  1.9640 -0.4916 -0.7802
 4522TIP3   OH213518   7.703   5.562   4.018  0.8911  0.7265  0.5075
 4522TIP3    H113519   7.632   5.510   3.980  1.2691  0.8064 -0.3322
 4522TIP3    H213520   7.710   5.639   3.960  1.5209  0.8190  0.6955
 4523TIP3   OH213521   5.589   4.385   5.410  0.5869  0.1129 -0.3671
 4523TIP3    H113522   5.666   4.347   5.369  1.6152  0.9031  0.7987
 4523TIP3    H213523   5.550   4.439   5.341  1.3299  0.0606 -0.8333
 4524TIP3   OH213524   5.494   4.138   2.082 -0.4686  0.4991 -0.3188
 4524TIP3    H113525   5.461   4.160   2.169  0.7344  0.1050  0.2535
 4524TIP3    H213526   5.461   4.049   2.066  1.8875 -0.6694  1.0857
 4525TIP3   OH213527   3.131   4.391   2.326  0.1983 -0.1601 -0.8523
 4525TIP3    H113528   3.043   4.355   2.333  0.2515 -0.2085 -0.3984
 4525TIP3    H213529   3.184   4.319   2.294 -0.4134  0.6011 -3.6954
 4526TIP3   OH213530   2.988   6.297   0.412  0.4764  0.5929 -0.1447
 4526TIP3    H113531   2.922   6.363   0.435  0.0760 -0.1218  0.8150
 4526TIP3    H213532   2.940   6.215   0.412  1.4688 -0.0046  1.0897
 4527TIP3   OH213533   4.303   6.392   0.458 -0.5325  0.1770  0.1744
 4527TIP3    H113534   4.286   6.343   0.538 -1.4037  1.7015  0.9374
 4527TIP3    H213535   4.367   6.338   0.410  0.4924 -0.4376  2.1751
 4528TIP3   OH213536   4.860   6.300   3.158 -0.0905 -0.5343 -0.2275
 4528TIP3    H113537   4.817   6.214   3.153 -1.1699  0.1059 -2.9072
 4528TIP3    H213538   4.791   6.359   3.187 -0.5383  0.1288 -2.5168
 4529TIP3   OH213539   4.211   5.439   1.552  0.0585 -0.2565 -0.3458
 4529TIP3    H113540   4.270   5.458   1.624 -2.4262  0.1230  1.6492
 4529TIP3    H213541   4.194   5.525   1.512 -1.7972  0.1200  1.2145
 4530TIP3   OH213542   4.490   4.755   1.796  0.1805  0.7364  0.4161
 4530TIP3    H113543   4.496   4.677   1.741 -0.1118  1.4446 -0.6443
 4530TIP3    H213544   4.428   4.812   1.750  1.8047  2.3742  0.1846
 4531TIP3   OH213545   0.573   3.642   5.463 -0.1150  0.2952 -0.2919
 4531TIP3    H113546   0.516   3.718   5.448 -0.7132 -0.3342 -1.2226
 4531TIP3    H213547   0.581   3.601   5.378  0.9743 -0.1678  0.0287
 4532TIP3   OH213548   7.537   5.881   0.469 -0.0909  0.6905  0.4699
 4532TIP3    H113549   7.545   5.964   0.515  0.4562 -0.2013  2.0304
 4532TIP3    H213550   7.585   5.819   0.524 -0.3771 -0.6220 -0.7453
 4533TIP3   OH213551   7.704   6.327   2.665  0.1094  0.5109  0.1006
 4533TIP3    H113552   7.741   6.250   2.621  0.7854  0.1276  1.2970
 4533TIP3    H213553   7.718   6.309   2.758 -0.0253  1.9430  0.3999
 4534TIP3   OH213554   4.130   6.869   1.880 -0.1507  0.2575 -0.6520
 4534TIP3    H113555   4.172   6.852   1.796  1.0282  1.5314 -0.3307
 4534TIP3    H213556   4.148   6.961   1.899 -4.0893  1.2150 -1.0369
 4535TIP3   OH213557   4.638   3.207   2.885 -0.0472  0.3258 -0.2359
 4535TIP3    H113558   4.618   3.287   2.934 -0.2860  0.8310 -1.1427
 4535TIP3    H213559   4.657   3.237   2.796  0.5806 -0.5587 -0.4141
 4536TIP3   OH213560   1.155   4.342   2.035 -0.1089  0.0746  0.4876
 4536TIP3    H113561   1.244   4.375   2.033  0.2230 -0.7487  1.0545
 4536TIP3    H213562   1.165   4.247   2.029 -1.1053  0.1177 -2.6259
 4537TIP3   OH213563   7.330   7.112   3.608 -0.1927 -0.6710 -0.2851
 4537TIP3    H113564   7.355   7.021   3.594 -1.5031 -0.9009 -1.3029
 4537TIP3    H213565   7.410   7.162   3.592  0.5215 -1.6330  0.2182
 4538TIP3   OH213566   3.691   4.330   1.794  0.1870 -0.1470 -0.6194
 4538TIP3    H113567   3.695   4.406   1.853  1.5801 -0.6095 -0.0937
 4538TIP3    H213568   3.678   4.368   1.707  1.4613  0.7350 -0.4370
 4539TIP3   OH213569   4.432   5.894   0.888  0.4864 -0.3872 -0.4301
 4539TIP3    H113570   4.485   5.858   0.959  1.1161 -0.7322 -1.0694
 4539TIP3    H213571   4.428   5.825   0.822 -0.5805 -0.2825 -0.4898
 4540TIP3   OH213572   3.555   5.993   0.664 -0.0559  0.2182 -0.1222
 4540TIP3    H113573   3.569   6.059   0.731  0.5816 -0.4840  0.4366
 4540TIP3    H213574   3.596   6.030   0.586 -0.3777  0.8182 -0.0170
 4541TIP3   OH213575   4.148   0.989   5.073 -0.2315  0.5339  0.1839
 4541TIP3    H113576   4.234   1.018   5.105 -0.3222  0.2389  0.7018
 4541TIP3    H213577   4.162   0.974   4.979  0.2195  0.7337  0.2146
 4542TIP3   OH213578   5.792   6.943   5.750  0.3482 -0.1900  0.4593
 4542TIP3    H113579   5.701   6.918   5.766  0.2952 -1.6239 -1.8885
 4542TIP3    H213580   5.843   6.865   5.771  0.9829  0.3860  1.1043
 4543TIP3   OH213581   1.083   1.138   5.415  0.3416 -0.1275  0.0596
 4543TIP3    H113582   1.067   1.046   5.434  3.0847 -0.9863 -1.5028
 4543TIP3    H213583   1.040   1.153   5.331  1.0766 -0.3775 -0.3680
 4544TIP3   OH213584   7.060   5.519   1.143 -0.2357 -0.4073 -0.2994
 4544TIP3    H113585   7.087   5.587   1.082  1.0238  0.6161  1.3833
 4544TIP3    H213586   7.075   5.437   1.095 -0.5672  0.4283 -1.8630
 4545TIP3   OH213587   4.142   4.374   1.006  0.1956  0.0498 -0.4240
 4545TIP3    H113588   4.134   4.284   0.973 -1.6316  0.2617 -0.6299
 4545TIP3    H213589   4.204   4.368   1.079 -0.0328 -1.3977 -0.3421
 4546TIP3   OH213590   6.335   2.855   3.053  0.4203 -0.2928  0.3624
 4546TIP3    H113591   6.339   2.771   3.100 -0.3675 -0.7124 -0.3089
 4546TIP3    H213592   6.337   2.830   2.961 -0.6268  0.3879  0.1553
 4547TIP3   OH213593   3.557   6.334   1.555 -0.1933  0.0536 -0.0670
 4547TIP3    H113594   3.623   6.270   1.532  0.0248  0.6073 -0.9952
 4547TIP3    H213595   3.537   6.379   1.473 -1.4870  0.1102  0.2630
 4548TIP3   OH213596   6.805   5.170   2.450 -0.1508  0.3813 -0.2238
 4548TIP3    H113597   6.813   5.095   2.509 -1.6910  0.4793  0.1374
 4548TIP3    H213598   6.716   5.202   2.465 -0.3901  0.7237 -2.2294
 4549TIP3   OH213599   7.288   3.184   3.594 -0.0443  1.1049 -0.0965
 4549TIP3    H113600   7.375   3.171   3.632 -0.3648  2.3614  1.1085
 4549TIP3    H213601   7.294   3.144   3.507  1.6735  0.9875  0.0522
 4550TIP3   OH213602   3.920   5.116   1.469  0.4852  0.3591  0.0951
 4550TIP3    H113603   3.990   5.127   1.534  0.4645 -0.5071  0.2671
 4550TIP3    H213604   3.945   5.175   1.398  0.4536  1.3914  0.9271
 4551TIP3   OH213605   4.984   4.648   1.020  0.7217  0.2728  0.6954
 4551TIP3    H113606   5.047   4.651   0.948 -0.3447  1.2452 -0.2204
 4551TIP3    H213607   5.025   4.592   1.086  1.6880 -0.6840 -0.6937
 4552TIP3   OH213608   7.474   7.425   6.198  0.1785 -0.2139  0.0052
 4552TIP3    H113609   7.541   7.374   6.244  0.9731  0.4940 -0.3355
 4552TIP3    H213610   7.423   7.466   6.268 -1.0217 -2.1489  0.2918
 4553TIP3   OH213611   4.773   6.423   3.609  0.2011  0.2186  0.1802
 4553TIP3    H113612   4.824   6.344   3.590  0.2624  0.4698 -0.7124
 4553TIP3    H213613   4.757   6.463   3.523 -0.6358  0.6774  0.5449
 4554TIP3   OH213614   4.777   6.780   3.344  0.5327 -0.7094  0.2886
 4554TIP3    H113615   4.735   6.732   3.416  1.8816 -0.3842  1.3279
 4554TIP3    H213616   4.810   6.860   3.386 -2.1404  1.4101 -1.5225
 4555TIP3   OH213617   6.439   7.023   2.771  0.3904 -0.1213  0.9367
 4555TIP3    H113618   6.505   6.996   2.708  1.6558  2.1507  1.2226
 4555TIP3    H213619   6.359   7.031   2.720  0.0037 -3.9869  0.7979
 4556TIP3   OH213620   6.747   3.621   1.574 -0.4526  0.4702 -0.2714
 4556TIP3    H113621   6.771   3.529   1.581 -1.7092  0.0254 -1.4102
 4556TIP3    H213622   6.787   3.651   1.492 -0.6484  0.7417 -0.2711
 4557TIP3   OH213623   5.031   4.972   1.818 -0.0223 -0.2681  0.4029
 4557TIP3    H113624   5.016   5.025   1.896 -0.2899 -0.9861  0.8473
 4557TIP3    H213625   4.944   4.942   1.792  0.0859 -0.1718 -0.0718
 4558TIP3   OH213626   6.238   4.993   2.318  0.1006  0.3025 -0.2081
 4558TIP3    H113627   6.276   5.058   2.376 -0.2075  1.7305 -1.5619
 4558TIP3    H213628   6.153   5.030   2.293 -0.5986 -1.1697 -0.0573
 4559TIP3   OH213629   5.483   5.006   0.395  0.3242  0.2965 -0.2584
 4559TIP3    H113630   5.467   4.912   0.383 -0.8366  0.0738  2.6988
 4559TIP3    H213631   5.401   5.047   0.370  0.8407  0.5401 -1.5753
 4560TIP3   OH213632   6.838   5.319   1.958  0.2329 -0.1541 -0.7964
 4560TIP3    H113633   6.810   5.406   1.987 -0.6109 -1.2526  1.8856
 4560TIP3    H213634   6.896   5.288   2.029 -0.7649 -2.4105 -0.9229
 4561TIP3   OH213635   6.792   5.256   0.940  0.7215 -0.1897 -0.4785
 4561TIP3    H113636   6.744   5.244   0.858  0.1042  0.5210 -0.2211
 4561TIP3    H213637   6.785   5.171   0.984 -1.2327  0.2411  0.0579
 4562TIP3   OH213638   6.530   0.698   1.956  0.2884  0.5324  0.3524
 4562TIP3    H113639   6.548   0.710   1.863  0.9452  1.7498  0.6372
 4562TIP3    H213640   6.534   0.786   1.994  1.6392 -0.1312  1.8229
 4563TIP3   OH213641   2.217   0.963   4.853 -0.3649  0.3114 -0.2091
 4563TIP3    H113642   2.255   1.020   4.787  0.5724  0.5908  0.5633
 4563TIP3    H213643   2.242   0.874   4.826  0.4988  0.4653  0.0706
 4564TIP3   OH213644   3.380   4.153   3.245 -0.6754 -0.0896 -0.0808
 4564TIP3    H113645   3.372   4.058   3.232  0.7093 -0.1837 -0.3079
 4564TIP3    H213646   3.332   4.191   3.171 -0.3389 -0.6228 -0.5823
 4565TIP3   OH213647   2.851   0.224   6.246 -0.3654 -0.7841 -0.0859
 4565TIP3    H113648   2.917   0.292   6.260 -0.1761 -0.8342 -0.7059
 4565TIP3    H213649   2.774   0.271   6.215 -0.1918 -0.8609 -0.6431
 4566TIP3   OH213650   5.392   4.084   4.575  0.1954 -0.1280 -0.5515
 4566TIP3    H113651   5.321   4.088   4.639  0.6492 -0.5593 -0.0210
 4566TIP3    H213652   5.469   4.058   4.626  0.4051 -1.1702 -1.3996
 4567TIP3   OH213653   5.313   6.869   3.010 -0.0010 -0.5790  0.4755
 4567TIP3    H113654   5.337   6.827   2.927  0.1454 -2.2875  1.3653
 4567TIP3    H213655   5.233   6.824   3.037 -1.2589  1.4427  0.2072
 4568TIP3   OH213656   5.657   5.073   2.352 -0.6747  0.2435  0.1013
 4568TIP3    H113657   5.609   5.129   2.291 -0.4565 -0.8089 -1.0615
 4568TIP3    H213658   5.675   4.993   2.302 -1.4244 -1.0797  1.8991
 4569TIP3   OH213659   3.825   2.944   1.890 -0.4824 -0.4222 -0.1814
 4569TIP3    H113660   3.895   3.009   1.884 -1.5563  0.7535 -0.3224
 4569TIP3    H213661   3.789   2.939   1.801 -0.8918 -0.6605 -0.0077
 4570TIP3   OH213662   7.082   5.276   1.010 -0.2775 -0.3645 -0.2780
 4570TIP3    H113663   6.996   5.234   1.012 -0.1520 -0.7065 -1.7827
 4570TIP3    H213664   7.119   5.251   0.925  0.3352  1.7307 -0.6374
 4571TIP3   OH213665   6.781   6.245   1.614  0.1940  0.4335  0.4983
 4571TIP3    H113666   6.782   6.330   1.570 -0.1589  0.4085  0.4438
 4571TIP3    H213667   6.791   6.181   1.543 -2.6423  0.2768  0.1806
 4572TIP3   OH213668   3.486   4.684   1.563 -0.4906  0.0678  0.0643
 4572TIP3    H113669   3.468   4.745   1.491 -0.2423 -0.4030 -0.4002
 4572TIP3    H213670   3.435   4.717   1.636  1.1479  1.9705  0.3924
 4573TIP3   OH213671   5.825   4.651   1.753 -0.2685 -0.0758  0.6383
 4573TIP3    H113672   5.813   4.621   1.843 -1.6878 -1.1853  0.0984
 4573TIP3    H213673   5.736   4.660   1.718  0.2085  1.9848 -0.1441
 4574TIP3   OH213674   5.174   4.873   3.526 -0.6239 -0.1586  0.3124
 4574TIP3    H113675   5.243   4.807   3.519  0.4040  0.9579 -0.1701
 4574TIP3    H213676   5.108   4.845   3.462  0.9812  0.6708 -1.7518
 4575TIP3   OH213677   4.184   5.695   2.372  0.1965  0.0763  0.6205
 4575TIP3    H113678   4.124   5.727   2.438  0.1600  0.0099  0.6193
 4575TIP3    H213679   4.129   5.646   2.310 -0.0076  1.4871 -0.3289
 4576TIP3   OH213680   4.543   4.600   1.582 -0.3585 -0.2386  0.2117
 4576TIP3    H113681   4.472   4.571   1.525  0.4149 -0.9445 -0.4124
 4576TIP3    H213682   4.605   4.644   1.523 -0.0108 -0.1301  0.6526
 4577TIP3   OH213683   7.435   5.581   3.449 -0.3376  0.1737 -0.2355
 4577TIP3    H113684   7.377   5.525   3.396  0.2112 -0.1842 -0.4702
 4577TIP3    H213685   7.515   5.529   3.459 -0.3982  0.2895  0.8636
 4578TIP3   OH213686   5.628   4.913   3.279  0.1742  0.5606 -0.3136
 4578TIP3    H113687   5.672   4.885   3.199  0.1443  0.9786 -0.4799
 4578TIP3    H213688   5.590   4.998   3.256  1.0486  1.1613  0.4597
 4579TIP3   OH213689   2.755   4.549   1.463  0.3876 -0.4269 -0.0211
 4579TIP3    H113690   2.665   4.582   1.461  0.9458  1.0820 -1.0924
 4579TIP3    H213691   2.800   4.598   1.394  1.5247 -2.6469 -0.9010
 4580TIP3   OH213692   6.914   5.815   2.826 -0.0245  0.3110 -0.1244
 4580TIP3    H113693   6.901   5.833   2.733  1.1845  0.4371 -0.2716
 4580TIP3    H213694   6.865   5.735   2.842 -0.5806  0.5200 -0.7776
 4581TIP3   OH213695   4.939   5.476   1.063  0.4477  1.0959  0.1649
 4581TIP3    H113696   4.890   5.553   1.090  0.8805  2.0686 -1.7648
 4581TIP3    H213697   4.948   5.484   0.968  1.5543 -0.7043  0.0771
 4582TIP3   OH213698   1.559   2.414   2.756  0.5613  0.1513 -0.0877
 4582TIP3    H113699   1.467   2.421   2.728  0.6715 -1.0776 -0.8241
 4582TIP3    H213700   1.599   2.495   2.726 -0.5168  1.1893  1.1916
 4583TIP3   OH213701   4.029   4.553   0.401 -0.0375 -0.2094 -0.0256
 4583TIP3    H113702   4.020   4.473   0.453  1.2880 -0.0156  0.5257
 4583TIP3    H213703   3.977   4.618   0.447 -0.7872 -0.6389 -0.2499
 4584TIP3   OH213704   0.534   2.727   5.658  0.3521  0.2966 -0.5574
 4584TIP3    H113705   0.614   2.779   5.650  1.4314 -1.2546 -0.2302
 4584TIP3    H213706   0.562   2.649   5.706 -1.5005  0.0139  0.0838
 4585TIP3   OH213707   5.764   4.940   2.682  0.7137  0.6008  0.6501
 4585TIP3    H113708   5.758   5.027   2.641  0.5371  0.2791 -0.0201
 4585TIP3    H213709   5.761   4.957   2.776 -1.7128  1.1401  0.5070
 4586TIP3   OH213710   6.059   4.644   1.148 -0.4129 -0.0684  0.3679
 4586TIP3    H113711   6.081   4.722   1.198 -1.5876  1.0485 -0.8191
 4586TIP3    H213712   5.980   4.610   1.190 -1.0634  0.5454 -0.3161
 4587TIP3   OH213713   7.410   5.459   0.865 -0.2335 -0.2840  0.3516
 4587TIP3    H113714   7.503   5.479   0.869 -0.1439 -0.3068 -1.4250
 4587TIP3    H213715   7.375   5.493   0.947  0.8323  2.3396 -0.2367
 4588TIP3   OH213716   5.640   4.999   1.083  0.0500 -0.1708  0.5322
 4588TIP3    H113717   5.576   4.995   1.012  0.8692 -1.3548 -0.1634
 4588TIP3    H213718   5.684   4.914   1.080  2.4263  1.0069  0.2705
 4589TIP3   OH213719   4.210   3.624   2.151 -0.2658  0.7696 -0.4343
 4589TIP3    H113720   4.173   3.686   2.215  1.2978  1.2809  0.0174
 4589TIP3    H213721   4.189   3.538   2.186  0.0967  1.0528  0.4999
 4590TIP3   OH213722   6.781   4.650   1.443  0.2785  0.2852  0.3809
 4590TIP3    H113723   6.759   4.681   1.355 -0.1199  1.9176  1.0480
 4590TIP3    H213724   6.696   4.639   1.487  0.4134 -1.5398  0.2522
 4591TIP3   OH213725   1.109   2.261   6.158  0.2190  0.2264 -0.1890
 4591TIP3    H113726   1.044   2.296   6.098 -1.0381 -0.8505  0.5346
 4591TIP3    H213727   1.154   2.193   6.108 -0.3188 -0.1575 -0.1430
 4592TIP3   OH213728   2.027   2.691   6.401  0.1602  0.3480 -0.0597
 4592TIP3    H113729   2.070   2.760   6.351  0.7121 -0.2125 -0.3667
 4592TIP3    H213730   1.983   2.737   6.472  0.5458  1.0120 -0.2442
 4593TIP3   OH213731   6.841   4.789   2.629  0.2508 -0.7695  0.3730
 4593TIP3    H113732   6.937   4.784   2.629  0.3400  0.8445 -0.4986
 4593TIP3    H213733   6.821   4.881   2.642 -1.2080 -1.1567  1.0020
 4594TIP3   OH213734   3.861   4.464   1.086 -0.0457  0.7154  0.2425
 4594TIP3    H113735   3.910   4.411   1.149  0.3103  2.4607  1.4491
 4594TIP3    H213736   3.924   4.485   1.018  0.2301  0.8653  0.5410
 4595TIP3   OH213737   4.006   3.953   1.426  0.4656 -0.2859 -0.6962
 4595TIP3    H113738   3.912   3.956   1.405  0.0722 -0.2989  0.9638
 4595TIP3    H213739   4.023   3.861   1.447  0.7672 -0.2217 -0.6593
 4596TIP3   OH213740   7.436   3.148   4.694 -0.6042 -0.2553 -0.4136
 4596TIP3    H113741   7.432   3.174   4.786  1.5036 -1.0382 -0.0611
 4596TIP3    H213742   7.355   3.100   4.679 -0.3748 -1.2748  1.4300
 4597TIP3   OH213743   5.540   6.986   2.427 -0.5769 -0.0041  0.2236
 4597TIP3    H113744   5.584   7.064   2.461 -0.6947 -0.1150  0.6289
 4597TIP3    H213745   5.578   6.974   2.340 -0.1028  0.1400  0.4075
 4598TIP3   OH213746   5.472   2.951   0.878 -0.0726  0.0363  0.2893
 4598TIP3    H113747   5.407   2.918   0.940 -0.5971  0.4381 -0.0364
 4598TIP3    H213748   5.546   2.978   0.932 -0.7502  0.9193  0.7834
 4599TIP3   OH213749   3.440   4.399   3.694  0.5373 -0.1341 -0.0948
 4599TIP3    H113750   3.435   4.353   3.610  0.7130 -0.5085  0.1036
 4599TIP3    H213751   3.426   4.332   3.760  0.7417  0.1049  0.1926
 4600TIP3   OH213752   5.116   4.456   3.155 -0.0528 -0.1253 -0.0582
 4600TIP3    H113753   5.130   4.542   3.114 -0.7292 -0.2894 -0.6229
 4600TIP3    H213754   5.205   4.424   3.172  0.2508 -0.4885 -2.2824
 4601TIP3   OH213755   5.766   5.977   0.366  0.4850  0.3992  0.2849
 4601TIP3    H113756   5.764   5.959   0.460 -0.1166  1.5960  0.5063
 4601TIP3    H213757   5.838   6.040   0.355  0.7897 -0.0124 -0.1053
 4602TIP3   OH213758   6.819   6.390   2.689  0.0257 -0.0954  0.0087
 4602TIP3    H113759   6.759   6.328   2.731  0.2621  0.0327  0.5379
 4602TIP3    H213760   6.858   6.439   2.761 -0.4028  0.8975 -0.4242
 4603TIP3   OH213761   3.884   5.351   4.549  0.4108  0.1373  0.6509
 4603TIP3    H113762   3.931   5.415   4.495  1.2937  0.3894  1.6830
 4603TIP3    H213763   3.891   5.386   4.638 -0.0643 -0.8248  1.0699
 4604TIP3   OH213764   5.161   3.649   1.196 -0.0804 -0.1254  0.9362
 4604TIP3    H113765   5.086   3.655   1.256 -0.0950 -1.3915  1.0564
 4604TIP3    H213766   5.141   3.712   1.126 -0.7312  0.3342  1.5322
 4605TIP3   OH213767   5.230   6.014   4.576 -0.2830 -0.0492  0.4851
 4605TIP3    H113768   5.277   6.089   4.614 -0.0979 -0.1232  0.4051
 4605TIP3    H213769   5.191   5.969   4.651 -1.0975  0.6015  0.4575
 4606TIP3   OH213770   7.254   5.216   1.480 -0.0928  0.1618 -0.1700
 4606TIP3    H113771   7.226   5.301   1.513 -0.5313  0.2298 -0.7066
 4606TIP3    H213772   7.295   5.235   1.396  0.4497 -0.0778  0.0377
 4607TIP3   OH213773   4.060   6.582   0.948  0.6987 -0.4859 -0.0953
 4607TIP3    H113774   4.120   6.560   0.876  0.1217 -0.3418 -0.6228
 4607TIP3    H213775   3.973   6.560   0.914  0.3911 -0.1047  0.4395
 4608TIP3   OH213776   0.751   3.809   5.943 -0.3438  0.1500  0.4281
 4608TIP3    H113777   0.727   3.807   5.851 -1.9431  1.3026  0.8004
 4608TIP3    H213778   0.668   3.812   5.990  0.4654  2.1897  1.8124
 4609TIP3   OH213779   5.443   6.064   1.647  0.1370 -0.2805 -0.3750
 4609TIP3    H113780   5.525   6.023   1.676 -0.6353 -2.3376 -1.0263
 4609TIP3    H213781   5.471   6.134   1.587  1.4615  0.0448  0.5979
 4610TIP3   OH213782   5.104   5.023   1.320  0.1936 -0.1573 -0.1640
 4610TIP3    H113783   5.048   5.101   1.325  2.1403  1.2531  0.2054
 4610TIP3    H213784   5.052   4.959   1.271 -1.8830  0.9770  0.5030
 4611TIP3   OH213785   4.740   4.026   2.026 -0.0811  0.7214 -0.4246
 4611TIP3    H113786   4.719   3.933   2.014 -1.1788  0.9350 -0.1514
 4611TIP3    H213787   4.694   4.070   1.954 -0.9607  1.2406  0.4472
 4612TIP3   OH213788   7.361   5.051   3.912  0.0308  0.5522  0.2126
 4612TIP3    H113789   7.292   5.117   3.908  0.1880  0.8202  1.7337
 4612TIP3    H213790   7.439   5.096   3.882 -0.3011  0.4371 -0.8555
 4613TIP3   OH213791   6.363   3.721   2.063 -0.0001  0.3536 -0.3238
 4613TIP3    H113792   6.275   3.755   2.046  0.1396  1.5406  1.2355
 4613TIP3    H213793   6.407   3.725   1.978 -1.3537  0.0147 -1.0607
 4614TIP3   OH213794   6.221   4.343   1.269 -0.1701  0.1797  0.3021
 4614TIP3    H113795   6.146   4.298   1.308 -0.3300  0.7999  0.7295
 4614TIP3    H213796   6.268   4.381   1.344 -1.1147  2.3573 -0.1647
 4615TIP3   OH213797   7.510   6.263   4.108  0.1366  0.1358 -0.0569
 4615TIP3    H113798   7.520   6.209   4.030 -0.3405  0.1315 -0.1170
 4615TIP3    H213799   7.420   6.296   4.103  0.5343  1.2063 -0.1933
 4616TIP3   OH213800   0.117   4.548   2.879  0.4122 -0.1236 -0.2174
 4616TIP3    H113801   0.023   4.557   2.860  0.3201  0.8990  0.6636
 4616TIP3    H213802   0.132   4.453   2.879 -0.4251 -0.2722 -1.2767
 4617TIP3   OH213803   5.072   4.864   0.451 -0.4511  0.0293  0.4650
 4617TIP3    H113804   4.995   4.841   0.398  0.0446 -2.2094  0.6363
 4617TIP3    H213805   5.147   4.841   0.395  0.0751 -0.1181  1.2236
 4618TIP3   OH213806   5.786   4.822   1.343  0.2817  0.5578 -0.3371
 4618TIP3    H113807   5.801   4.828   1.437  2.0989  1.9810 -0.6995
 4618TIP3    H213808   5.827   4.739   1.317  0.1745  0.3852  0.0436
 4619TIP3   OH213809   7.701   0.692   4.493 -0.3222  0.0869  0.1094
 4619TIP3    H113810   7.608   0.708   4.480 -0.4507 -0.9861 -0.3519
 4619TIP3    H213811   7.725   0.631   4.423  0.6970  0.2396  0.3114
 4620TIP3   OH213812   7.568   6.304   0.936 -0.4054  0.3178 -0.3097
 4620TIP3    H113813   7.634   6.298   1.004  0.0951  0.4824 -0.7770
 4620TIP3    H213814   7.526   6.218   0.936 -0.4923  0.3585  0.2867
 4621TIP3   OH213815   7.766   5.780   2.069  0.2781  0.4701 -0.0947
 4621TIP3    H113816   7.711   5.798   2.145 -4.1074 -3.4059 -2.0887
 4621TIP3    H213817   7.825   5.711   2.098  0.1857  0.6130  0.4332
 4622TIP3   OH213818   6.190   3.487   4.194 -0.4778  0.3752 -0.3989
 4622TIP3    H113819   6.186   3.574   4.233  1.3830  0.9574 -1.4338
 4622TIP3    H213820   6.271   3.487   4.143  0.1145 -2.3377  0.4533
 4623TIP3   OH213821   4.925   4.333   4.173  0.2031 -0.2585  0.1491
 4623TIP3    H113822   4.936   4.380   4.090  0.5576  0.8663  0.8196
 4623TIP3    H213823   4.836   4.355   4.200 -0.2004 -1.2847 -0.3325
 4624TIP3   OH213824   6.610   5.902   2.564  0.5929 -0.1217  0.3114
 4624TIP3    H113825   6.561   5.972   2.521  0.6247 -0.2798  0.0147
 4624TIP3    H213826   6.633   5.938   2.650  1.3329  0.5411 -0.1587
 4625TIP3   OH213827   6.222   7.035   2.604  0.5105 -0.3008  0.7824
 4625TIP3    H113828   6.147   6.976   2.606 -0.2958  0.6888  0.5042
 4625TIP3    H213829   6.238   7.051   2.510  2.0730 -1.7420  0.7781
 4626TIP3   OH213830   4.077   4.903   0.608 -0.2636 -0.4186  0.2492
 4626TIP3    H113831   4.047   4.829   0.661  0.5506 -1.9188 -1.3379
 4626TIP3    H213832   4.116   4.862   0.531  1.9389  1.6064  0.2516
 4627TIP3   OH213833   4.294   6.855   3.503  0.0032 -0.3075 -0.7134
 4627TIP3    H113834   4.215   6.908   3.517 -0.1406 -0.5399 -0.6528
 4627TIP3    H213835   4.303   6.803   3.583  0.1646 -0.3534 -0.7602
 4628TIP3   OH213836   4.368   7.202   1.050  0.0449 -0.0144  0.2548
 4628TIP3    H113837   4.281   7.200   1.090  0.7977 -0.3499  1.9211
 4628TIP3    H213838   4.352   7.192   0.957 -1.6917 -0.3509  0.5777
 4629TIP3   OH213839   4.994   6.964   2.427  0.1133 -0.1581  0.2675
 4629TIP3    H113840   4.959   6.997   2.344  0.1431  0.1816  0.3873
 4629TIP3    H213841   5.086   6.991   2.427  0.3973 -1.1118 -0.0790
 4630TIP3   OH213842   5.946   6.108   2.030 -0.1641  0.3622  0.0224
 4630TIP3    H113843   5.972   6.136   2.118 -0.2567  2.8592 -0.7083
 4630TIP3    H213844   6.022   6.126   1.975 -0.6309  0.2290 -0.6716
 4631TIP3   OH213845   6.145   6.474   2.540 -0.8460 -0.0233  0.7315
 4631TIP3    H113846   6.093   6.504   2.615 -1.9941  0.8029 -0.3724
 4631TIP3    H213847   6.153   6.551   2.484 -1.2416 -0.9992 -0.6979
 4632TIP3   OH213848   3.293   5.036   0.796  0.2904  0.1249  0.6004
 4632TIP3    H113849   3.279   5.005   0.886 -0.6887 -0.8894  0.1089
 4632TIP3    H213850   3.207   5.029   0.755  0.9289 -0.2758 -0.6764
 4633TIP3   OH213851   4.134   5.860   1.685  0.4403  0.3256  0.0402
 4633TIP3    H113852   4.070   5.835   1.753 -1.4158  1.9827 -1.0368
 4633TIP3    H213853   4.152   5.952   1.703  2.9200 -0.2424  0.5960
 4634TIP3   OH213854   4.336   4.094   0.804 -0.1068  0.2996 -0.0059
 4634TIP3    H113855   4.293   4.103   0.889  0.1324 -2.4498  0.4462
 4634TIP3    H213856   4.427   4.074   0.824  0.6105  2.4068 -0.9598
 4635TIP3   OH213857   1.331   2.158   2.664  0.4307  0.1397 -0.4173
 4635TIP3    H113858   1.242   2.164   2.629  0.4600  0.0182 -0.5074
 4635TIP3    H213859   1.318   2.160   2.759  0.3940  1.1370 -0.4324
 4636TIP3   OH213860   5.358   4.795   0.667 -0.3809  0.0081 -0.1684
 4636TIP3    H113861   5.269   4.786   0.702 -0.5120  0.1841 -0.4550
 4636TIP3    H213862   5.357   4.744   0.586 -0.0218 -0.5624  0.1839
 4637TIP3   OH213863   5.872   3.879   1.225 -0.1325 -0.0062 -0.5121
 4637TIP3    H113864   5.952   3.904   1.179 -0.0953 -0.4735 -0.6941
 4637TIP3    H213865   5.802   3.900   1.164 -0.0668 -0.8927 -0.8999
 4638TIP3   OH213866   0.906   0.758   2.611  0.2377 -0.1215  0.2068
 4638TIP3    H113867   0.997   0.789   2.618 -0.1900  0.6379  3.1243
 4638TIP3    H213868   0.865   0.818   2.549  0.9130  1.5548  1.3552
 4639TIP3   OH213869   6.590   2.958   0.567 -0.6566 -0.2734  0.2151
 4639TIP3    H113870   6.535   3.006   0.629 -2.0941 -1.5589 -0.0496
 4639TIP3    H213871   6.570   2.997   0.482 -1.3389 -0.9186  0.0847
 4640TIP3   OH213872   5.163   0.423   4.429 -0.0856 -0.2335  0.1047
 4640TIP3    H113873   5.193   0.398   4.342 -0.2786 -0.5431  0.1290
 4640TIP3    H213874   5.182   0.517   4.435 -2.4998  0.3847 -1.2855
 4641TIP3   OH213875   6.300   4.249   0.756 -0.3615 -0.0854  0.6052
 4641TIP3    H113876   6.373   4.308   0.735 -2.2024  1.4433 -1.8401
 4641TIP3    H213877   6.278   4.208   0.672 -1.9106 -0.9449  1.4229
 4642TIP3   OH213878   4.370   3.793   1.907  0.3508  0.1635  0.5006
 4642TIP3    H113879   4.373   3.850   1.830  2.1348 -1.1191 -0.4217
 4642TIP3    H213880   4.277   3.778   1.922 -0.0114 -0.0793 -1.8142
 4643TIP3   OH213881   5.302   5.334   2.166 -0.4240 -0.1178 -0.0451
 4643TIP3    H113882   5.314   5.424   2.193  3.2337 -0.9405  1.2677
 4643TIP3    H213883   5.233   5.301   2.224  0.5033  0.9109  1.6830
 4644TIP3   OH213884   6.080   5.226   2.213  0.3953 -0.4267 -0.3205
 4644TIP3    H113885   5.996   5.236   2.258  2.0620  1.1971  2.5910
 4644TIP3    H213886   6.098   5.312   2.177  0.1143 -1.1675 -2.2542
 4645TIP3   OH213887   7.017   6.413   2.498  0.5045  0.0493 -0.1536
 4645TIP3    H113888   7.058   6.492   2.534 -0.3780  0.5707 -0.2687
 4645TIP3    H213889   6.941   6.398   2.553  0.0696 -0.0956 -0.7855
 4646TIP3   OH213890   4.117   5.654   0.644 -0.0659 -0.2130  0.0254
 4646TIP3    H113891   4.103   5.689   0.556  1.5859 -1.0268 -0.5733
 4646TIP3    H213892   4.040   5.682   0.693 -0.5639  1.0429 -1.4303
 4647TIP3   OH213893   5.638   6.492   1.798  0.2779 -0.0972  0.3203
 4647TIP3    H113894   5.614   6.582   1.773 -0.4622 -0.1188  0.9273
 4647TIP3    H213895   5.680   6.456   1.720  3.2480  1.7351  0.9896
 4648TIP3   OH213896   2.770   4.755   1.288 -0.1535  0.4018 -0.4309
 4648TIP3    H113897   2.760   4.801   1.371  0.3871  0.4772 -0.4030
 4648TIP3    H213898   2.783   4.824   1.223 -0.8590  0.3583 -0.6279
 4649TIP3   OH213899   6.089   5.162   1.792 -0.6402  0.1026  0.9143
 4649TIP3    H113900   6.095   5.067   1.803 -1.7921 -0.1343 -0.4139
 4649TIP3    H213901   6.005   5.185   1.830  0.8545  1.0220  3.8310
 4650TIP3   OH213902   5.737   3.159   1.235 -0.0370 -0.1668 -0.1234
 4650TIP3    H113903   5.783   3.159   1.319 -1.3917 -1.0321  0.6387
 4650TIP3    H213904   5.672   3.089   1.243 -0.0812 -0.3600 -1.9582
 4651TIP3   OH213905   4.942   4.846   1.549 -0.0310  0.1346  0.5704
 4651TIP3    H113906   4.902   4.789   1.484 -0.8248 -0.0493  1.2117
 4651TIP3    H213907   5.007   4.791   1.594  1.3132  0.5625 -0.7907
 4652TIP3   OH213908   7.102   5.287   1.759  0.6830 -0.0449  0.3223
 4652TIP3    H113909   7.137   5.375   1.743  0.3341  0.1231  0.4764
 4652TIP3    H213910   7.145   5.258   1.839  2.1264 -0.7225 -0.6737
 4653TIP3   OH213911   3.522   4.343   1.045  0.1165 -0.0417  0.3097
 4653TIP3    H113912   3.612   4.341   1.012  0.1777  0.8906  0.4107
 4653TIP3    H213913   3.513   4.262   1.095 -0.0994 -1.6832 -2.3262
 4654TIP3   OH213914   4.531   4.772   3.351 -0.3012  0.1050  0.1907
 4654TIP3    H113915   4.455   4.768   3.293  0.1381 -2.0496 -0.2871
 4654TIP3    H213916   4.495   4.798   3.436 -1.5645 -0.7867 -0.0503
 4655TIP3   OH213917   5.476   5.929   2.633 -0.5223  0.0491  0.3343
 4655TIP3    H113918   5.437   5.843   2.622 -0.9428  0.3033 -0.1644
 4655TIP3    H213919   5.494   5.960   2.544  2.8122 -0.9704  0.5684
 4656TIP3   OH213920   4.953   4.432   0.617  0.6618 -0.0859  0.4164
 4656TIP3    H113921   4.927   4.514   0.659  0.2347 -0.5042  0.9747
 4656TIP3    H213922   4.997   4.459   0.537  1.0223  0.7041  0.8784
 4657TIP3   OH213923   3.871   6.745   2.045 -0.4605  0.1945 -0.0553
 4657TIP3    H113924   3.942   6.765   1.984  0.0345 -1.0147  0.1148
 4657TIP3    H213925   3.875   6.650   2.057 -1.0097  0.3289  1.2959
 4658TIP3   OH213926   5.938   4.500   0.611  0.4073  0.7672  0.0594
 4658TIP3    H113927   5.962   4.519   0.701  1.2101  0.2223 -0.0365
 4658TIP3    H213928   5.959   4.407   0.599  0.6804  0.9322 -0.8057
 4659TIP3   OH213929   5.010   3.116   1.403 -0.3752 -0.3378  0.6273
 4659TIP3    H113930   5.095   3.157   1.385 -0.2652 -0.9184 -0.2481
 4659TIP3    H213931   5.029   3.022   1.405 -1.3648 -0.6512 -1.9438
 4660TIP3   OH213932   4.423   3.514   1.926  0.1282 -0.3301 -0.4036
 4660TIP3    H113933   4.413   3.608   1.939 -2.3786 -0.6779  0.5303
 4660TIP3    H213934   4.430   3.478   2.014  2.7098 -0.9000 -0.8044
 4661TIP3   OH213935   2.816   4.761   2.561 -0.0594 -0.3328  0.0192
 4661TIP3    H113936   2.726   4.791   2.569  0.4671  1.2828 -0.0182
 4661TIP3    H213937   2.809   4.672   2.526 -1.5935  0.1484 -0.9175
 4662TIP3   OH213938   4.649   5.156   1.320  0.3891  0.7557 -0.0827
 4662TIP3    H113939   4.609   5.163   1.234  0.7132  1.5844 -0.1760
 4662TIP3    H213940   4.618   5.234   1.367  1.1680  0.9452  0.1368
 4663TIP3   OH213941   3.754   6.422   2.498  0.1423  0.2650 -0.1554
 4663TIP3    H113942   3.672   6.400   2.454  0.5918 -0.0282 -0.8533
 4663TIP3    H213943   3.748   6.516   2.515 -1.4210 -0.1865  2.0694
 4664TIP3   OH213944   3.464   5.531   2.455 -0.1844  0.2474 -0.0245
 4664TIP3    H113945   3.499   5.592   2.520  0.4511  0.9712 -1.0290
 4664TIP3    H213946   3.374   5.563   2.439 -0.5684 -0.3302  0.9826
 4665TIP3   OH213947   5.119   5.456   2.690  0.3858 -0.5288 -0.4516
 4665TIP3    H113948   5.123   5.365   2.660 -0.0164 -0.3935 -0.9231
 4665TIP3    H213949   5.130   5.508   2.610 -0.2902 -0.1620 -0.3084
 4666TIP3   OH213950   5.898   5.603   1.725 -0.4263 -0.5341  0.1264
 4666TIP3    H113951   5.886   5.644   1.810  0.3846 -0.5728  0.2692
 4666TIP3    H213952   5.830   5.536   1.720  0.0378 -1.0890  1.0971
 4667TIP3   OH213953   4.790   4.370   1.213  0.5636  0.3066 -0.3582
 4667TIP3    H113954   4.881   4.394   1.227  0.4958  1.5558 -1.8755
 4667TIP3    H213955   4.740   4.447   1.241 -0.1062 -0.7984  1.5437
 4668TIP3   OH213956   6.690   5.541   0.323 -0.5051 -0.4466 -0.1875
 4668TIP3    H113957   6.720   5.615   0.271 -0.7348  0.7320  1.3222
 4668TIP3    H213958   6.599   5.561   0.344 -0.3494 -0.7655  0.8606
 4669TIP3   OH213959   6.312   6.037   2.584 -0.3037  0.2758 -0.3755
 4669TIP3    H113960   6.404   6.057   2.567 -0.3931  0.1214 -1.0723
 4669TIP3    H213961   6.285   6.100   2.651  0.4080  0.0740  0.1038
 4670TIP3   OH213962   6.661   2.506   2.124  0.0238 -0.2492  0.1106
 4670TIP3    H113963   6.648   2.458   2.205 -0.2918  1.0608  0.8412
 4670TIP3    H213964   6.607   2.460   2.059  0.7033 -1.6157  0.5063
 4671TIP3   OH213965   4.707   3.351   1.489 -0.5055 -0.1328 -0.8402
 4671TIP3    H113966   4.663   3.285   1.543  0.4469  0.7999  1.0927
 4671TIP3    H213967   4.800   3.332   1.498 -0.2168  1.5119 -0.2067
 4672TIP3   OH213968   3.490   3.485   1.253  0.5804  0.9020  0.7324
 4672TIP3    H113969   3.479   3.391   1.266 -2.6242  1.5919  3.8144
 4672TIP3    H213970   3.451   3.502   1.167 -0.2968 -0.3719  0.8553
 4673TIP3   OH213971   2.928   7.447   5.684  0.3444  0.1047 -0.3632
 4673TIP3    H113972   2.923   7.408   5.771  1.5890 -0.8475 -0.7028
 4673TIP3    H213973   2.886   7.383   5.626  0.4158  0.2791 -0.6097
 4674TIP3   OH213974   4.645   3.552   0.508 -0.5765 -0.8023  0.0859
 4674TIP3    H113975   4.681   3.565   0.596  0.1834 -0.0049 -0.3318
 4674TIP3    H213976   4.552   3.534   0.522 -0.8365  1.1143  0.9501
 4675TIP3   OH213977   0.964   1.946   6.276  0.4993 -0.1177  0.4923
 4675TIP3    H113978   0.904   2.013   6.244  1.6696  0.2553 -0.9530
 4675TIP3    H213979   0.907   1.884   6.322 -1.1506 -0.3625 -1.7907
 4676TIP3   OH213980   3.280   4.368   0.850 -0.4120  0.1561 -0.2140
 4676TIP3    H113981   3.293   4.273   0.845 -2.0233 -0.1251  0.8350
 4676TIP3    H213982   3.238   4.390   0.767 -2.8693 -0.5306  0.8161
 4677TIP3   OH213983   2.667   3.554   2.270 -0.1534 -0.0011 -0.1380
 4677TIP3    H113984   2.629   3.637   2.243 -1.6382 -0.1272  1.4234
 4677TIP3    H213985   2.635   3.491   2.205  1.8287  0.7752 -1.9319
 4678TIP3   OH213986   4.941   5.769   2.468  0.0177  0.0212 -0.0890
 4678TIP3    H113987   4.939   5.674   2.477  1.4565 -0.2310 -2.0581
 4678TIP3    H213988   5.030   5.794   2.492  0.0310  0.7086 -0.8120
 4679TIP3   OH213989   5.928   5.304   5.499 -0.3667 -0.2485  0.1071
 4679TIP3    H113990   5.868   5.232   5.482 -0.5538 -0.6661  2.4089
 4679TIP3    H213991   5.921   5.360   5.421 -2.2574 -1.2894 -0.5030
 4680TIP3   OH213992   2.211   5.886   0.250  0.5350 -0.0014  0.0999
 4680TIP3    H113993   2.190   5.824   0.320 -0.9067  2.4472  1.9164
 4680TIP3    H213994   2.289   5.932   0.282 -0.2746  1.2965  0.2376
 4681TIP3   OH213995   6.981   4.966   1.830  0.4903 -0.3821  0.4898
 4681TIP3    H113996   7.007   4.991   1.741  0.4860 -3.2090 -0.3573
 4681TIP3    H213997   7.041   5.015   1.887  0.5054  1.4530 -1.0533
 4682TIP3   OH213998   5.546   5.812   3.631 -0.0999  0.1470  0.7026
 4682TIP3    H113999   5.598   5.889   3.653 -0.4855  0.3223  1.0169
 4682TIP3    H214000   5.603   5.758   3.576  0.6360  0.0319  1.5790
 4683TIP3   OH214001   1.348   1.343   4.306 -0.6640 -0.6390  0.1382
 4683TIP3    H114002   1.420   1.323   4.247 -0.3612 -1.8562  0.8955
 4683TIP3    H214003   1.271   1.306   4.264 -0.7518  0.1207 -0.3766
 4684TIP3   OH214004   5.348   5.801   1.726  0.0539  0.5683  0.2661
 4684TIP3    H114005   5.315   5.848   1.803  1.4507  0.7376  0.7778
 4684TIP3    H214006   5.376   5.870   1.666 -1.1281  0.4382 -0.4457
 4685TIP3   OH214007   5.927   5.831   0.920  0.0997  0.1201 -0.7626
 4685TIP3    H114008   5.978   5.861   0.845  4.0203  0.1727  1.7724
 4685TIP3    H214009   5.922   5.736   0.910 -0.1099  0.2034 -1.4780
 4686TIP3   OH214010   0.320   5.582   0.538  0.9442 -0.4454 -0.4889
 4686TIP3    H114011   0.238   5.558   0.494 -0.2801  1.2356  0.8050
 4686TIP3    H214012   0.322   5.526   0.616 -0.4610  1.4401  0.9861
 4687TIP3   OH214013   2.005   0.089   1.322 -0.6994 -0.1275  0.5580
 4687TIP3    H114014   2.072   0.110   1.387 -0.5488 -0.2742  0.4489
 4687TIP3    H214015   2.052   0.048   1.250 -0.7572  0.8256 -0.0312
 4688TIP3   OH214016   2.872   0.614   6.194  0.8328  0.3309 -0.1317
 4688TIP3    H114017   2.795   0.560   6.180 -0.6203  1.8930  1.5086
 4688TIP3    H214018   2.925   0.566   6.258 -0.3646  0.7038  1.1793
 4689TIP3   OH214019   6.126   4.868   3.482 -0.8395  0.6366 -0.2969
 4689TIP3    H114020   6.082   4.785   3.501  0.6999 -0.3335 -0.8235
 4689TIP3    H214021   6.065   4.935   3.512 -0.5412 -0.7284  3.6595
 4690TIP3   OH214022   0.034   5.445   1.676 -0.0995  0.6145  0.0293
 4690TIP3    H114023  -0.030   5.508   1.711  0.6951  1.4368  0.0175
 4690TIP3    H214024   0.107   5.500   1.646  1.0770 -0.3827  1.0194
 4691TIP3   OH214025   0.314   0.586   0.929 -0.2167  0.2671  0.0140
 4691TIP3    H114026   0.231   0.571   0.884 -1.5960  0.9835  2.2278
 4691TIP3    H214027   0.357   0.654   0.878 -2.4366  2.1595  0.5659
 4692TIP3   OH214028   5.612   7.335   1.688  0.5515  0.8533 -0.4505
 4692TIP3    H114029   5.612   7.277   1.613 -0.3291  0.5679 -0.2342
 4692TIP3    H214030   5.625   7.278   1.764  0.4219  1.0154 -0.3031
 4693TIP3   OH214031   0.578   5.114   0.985 -0.4367 -0.2659  0.6337
 4693TIP3    H114032   0.552   5.206   0.976 -0.8481 -0.4238  0.2407
 4693TIP3    H214033   0.543   5.088   1.070 -0.0075  0.0454  0.9095
 4694TIP3   OH214034   6.807   4.560   2.458  0.0421 -0.1302  0.1351
 4694TIP3    H114035   6.815   4.649   2.491 -2.5146  0.4873 -0.8138
 4694TIP3    H214036   6.870   4.509   2.510  1.4366  2.1730  0.7560
 4695TIP3   OH214037   6.258   5.235   2.516 -0.4910 -0.5926  0.3724
 4695TIP3    H114038   6.164   5.222   2.530 -0.6530 -0.8649 -0.8686
 4695TIP3    H214039   6.264   5.276   2.430  0.4372  1.1582  1.2613
 4696TIP3   OH214040   0.248   6.640   0.671  0.4646 -0.3878 -0.2097
 4696TIP3    H114041   0.177   6.689   0.713  0.3428 -1.6069  1.0164
 4696TIP3    H214042   0.223   6.637   0.578  0.1929  1.3598 -0.2244
 4697TIP3   OH214043   3.031   5.726   1.003 -0.3672 -0.6420 -0.8126
 4697TIP3    H114044   2.953   5.776   1.027  1.2699  1.2021  0.8966
 4697TIP3    H214045   2.999   5.638   0.985 -2.6823 -0.2326  1.0990
 4698TIP3   OH214046   5.190   6.274   1.785  0.5496 -0.0105 -0.0374
 4698TIP3    H114047   5.259   6.321   1.738  1.2597 -1.2064 -0.2159
 4698TIP3    H214048   5.143   6.226   1.717  1.2310 -1.3073  0.3964
 4699TIP3   OH214049   7.497   5.098   1.105  0.1785 -0.2599 -0.0946
 4699TIP3    H114050   7.426   5.059   1.053  0.1123  1.0098 -0.9850
 4699TIP3    H214051   7.577   5.072   1.060  0.1805 -0.1403 -0.1606
 4700TIP3   OH214052   5.367   5.543   1.458 -0.4834  0.2694 -0.2797
 4700TIP3    H114053   5.314   5.468   1.430 -1.2116  0.9871 -0.8590
 4700TIP3    H214054   5.426   5.559   1.384 -1.0524  0.9233 -0.6000
 4701TIP3   OH214055   5.417   7.156   0.574 -0.0373  0.3103  0.1156
 4701TIP3    H114056   5.461   7.234   0.540 -1.3978  0.8448 -0.4781
 4701TIP3    H214057   5.337   7.150   0.522 -2.1510  1.1146  3.1174
 4702TIP3   OH214058   5.430   4.193   2.567  0.2660 -0.1101 -0.5109
 4702TIP3    H114059   5.485   4.241   2.505  1.8131 -0.3832  0.6277
 4702TIP3    H214060   5.357   4.252   2.585  1.2794  1.1353 -0.4318
 4703TIP3   OH214061   6.699   4.306   1.694 -0.0128  0.6685  0.1034
 4703TIP3    H114062   6.643   4.383   1.689 -2.3513 -1.0157 -0.5658
 4703TIP3    H214063   6.767   4.322   1.629 -0.3741  2.2176  0.0830
 4704TIP3   OH214064   5.973   5.495   1.474 -0.1002 -0.2608  0.2371
 4704TIP3    H114065   5.943   5.512   1.563 -0.0202  0.2962  0.1584
 4704TIP3    H214066   5.954   5.402   1.459  0.7994 -0.6098  1.1999
 4705TIP3   OH214067   0.862   3.996   1.109 -0.2703  0.0685 -0.3107
 4705TIP3    H114068   0.847   4.090   1.111 -1.4052 -0.0985 -0.6079
 4705TIP3    H214069   0.823   3.963   1.190  0.4791 -0.1095 -0.0078
 4706TIP3   OH214070   0.934   6.523   2.384  0.0737 -0.0405  0.1417
 4706TIP3    H114071   0.924   6.433   2.414  0.7597  0.3378  1.5383
 4706TIP3    H214072   1.020   6.550   2.417  0.6813  0.5115 -1.8668
 4707TIP3   OH214073   0.876   1.583   6.221  0.3812 -0.2312  0.2242
 4707TIP3    H114074   0.853   1.619   6.306 -0.2770 -1.1727  0.4611
 4707TIP3    H214075   0.797   1.536   6.193  1.8084 -3.0728  0.7935
 4708TIP3   OH214076   7.022   5.915   0.893  0.0492 -0.2476 -0.6173
 4708TIP3    H114077   7.009   5.900   0.986  1.3618  0.3425 -0.3324
 4708TIP3    H214078   6.947   5.872   0.851  0.8396 -2.8199  0.5154
 4709TIP3   OH214079   6.656   6.847   3.090 -0.2009 -0.6376 -0.5329
 4709TIP3    H114080   6.579   6.838   3.147  0.4072  0.6889  0.5561
 4709TIP3    H214081   6.701   6.763   3.097  0.8276  0.0895  2.4474
 4710TIP3   OH214082   1.617   5.768   1.176 -0.1354  0.3240 -0.0586
 4710TIP3    H114083   1.597   5.783   1.084 -0.6335  0.4996  0.0771
 4710TIP3    H214084   1.532   5.749   1.217  0.0217  0.6760  0.4470
 4711TIP3   OH214085   7.498   4.529   0.258  0.6889  0.5650 -0.0820
 4711TIP3    H114086   7.491   4.481   0.341  0.3244 -0.0479 -0.4532
 4711TIP3    H214087   7.504   4.460   0.192 -1.8260  0.9812 -0.8047
 4712TIP3   OH214088   5.526   6.492   0.330  0.5060  0.0273  0.0035
 4712TIP3    H114089   5.486   6.425   0.385  1.2778 -1.1981 -0.8934
 4712TIP3    H214090   5.620   6.480   0.343  0.6580  0.7738 -0.3702
 4713TIP3   OH214091   6.427   5.162   1.495  0.1201 -0.1178  0.0995
 4713TIP3    H114092   6.346   5.113   1.512 -0.4745  0.9729  0.4351
 4713TIP3    H214093   6.474   5.108   1.431 -1.1773 -0.4401 -0.6059
 4714TIP3   OH214094   6.167   5.710   1.750  0.2467 -0.2065  0.9179
 4714TIP3    H114095   6.139   5.800   1.741  1.0746  0.0756  1.0527
 4714TIP3    H214096   6.093   5.658   1.721  0.3299  0.5385 -0.6670
 4715TIP3   OH214097   5.975   6.101   1.329 -0.2307  0.2689  0.4587
 4715TIP3    H114098   6.023   6.129   1.407 -0.2394  2.8265 -0.3996
 4715TIP3    H214099   5.900   6.051   1.363 -0.0479  1.0585  2.0634
 4716TIP3   OH214100   5.970   6.725   1.231 -0.0687 -0.0035  0.3377
 4716TIP3    H114101   5.938   6.638   1.255  0.0445 -0.1610 -0.0865
 4716TIP3    H214102   5.999   6.763   1.314 -1.9538  0.3883  0.8549
 4717TIP3   OH214103   7.683   5.858   3.564  0.7052  0.7433 -0.2068
 4717TIP3    H114104   7.747   5.796   3.528 -1.3040 -0.4540 -1.7773
 4717TIP3    H214105   7.632   5.886   3.489 -1.2588  0.9472  1.1780
 4718TIP3   OH214106   6.166   6.297   3.537 -0.0473 -0.4772 -0.1011
 4718TIP3    H114107   6.150   6.339   3.453 -2.6989 -1.1638  0.0234
 4718TIP3    H214108   6.223   6.358   3.584 -1.3047  1.5161 -1.1034
 4719TIP3   OH214109   0.580   5.825   1.127  0.6153 -0.0164 -0.1709
 4719TIP3    H114110   0.539   5.784   1.052 -0.8432 -1.2875  1.2761
 4719TIP3    H214111   0.658   5.868   1.092  0.5349 -1.4814 -2.2190
 4720TIP3   OH214112   1.295   1.930   1.142 -0.0589 -0.4214  0.1053
 4720TIP3    H114113   1.290   1.959   1.050  3.1835 -0.5870 -0.1898
 4720TIP3    H214114   1.219   1.970   1.184 -1.2610  0.1597 -2.5240
 4721TIP3   OH214115   7.424   6.048   1.606  0.8659  0.6771  0.6018
 4721TIP3    H114116   7.370   6.122   1.580 -0.1660 -0.0147  0.7456
 4721TIP3    H214117   7.491   6.042   1.537 -0.7011  0.0417 -0.9225
 4722TIP3   OH214118   6.526   5.610   4.424 -0.1260 -0.2899 -0.0333
 4722TIP3    H114119   6.593   5.592   4.359 -0.4984 -0.5232 -0.3587
 4722TIP3    H214120   6.496   5.523   4.452  0.6116 -0.1956  1.0563
 4723TIP3   OH214121   4.524   3.327   6.387  0.5978 -0.0156  0.4624
 4723TIP3    H114122   4.586   3.373   6.330 -1.0535  2.6916  0.7685
 4723TIP3    H214123   4.446   3.315   6.334  0.8114 -1.9942  0.5794
 4724TIP3   OH214124   7.593   4.763   0.507  0.3373 -0.2560  0.1743
 4724TIP3    H114125   7.590   4.829   0.576  0.3942 -0.1199  0.0468
 4724TIP3    H214126   7.503   4.731   0.500 -0.2383  1.6836 -1.5863
 4725TIP3   OH214127   1.297   6.725   1.940 -0.1590  0.6491 -1.1243
 4725TIP3    H114128   1.244   6.728   2.019  1.1363 -2.4890 -0.0626
 4725TIP3    H214129   1.359   6.797   1.950  0.1808  0.1075  0.8664
 4726TIP3   OH214130   6.791   5.967   3.591  0.1102  0.0851  0.2553
 4726TIP3    H114131   6.798   5.978   3.496  0.6115  0.3006  0.3189
 4726TIP3    H214132   6.881   5.972   3.622 -0.2587  2.3520  1.0065
 4727TIP3   OH214133   7.294   7.240   3.899 -0.3265 -0.0117  0.6322
 4727TIP3    H114134   7.229   7.309   3.912  1.1378  1.6556 -0.6650
 4727TIP3    H214135   7.271   7.202   3.814  1.2970  1.6332 -0.5720
 4728TIP3   OH214136   6.825   6.591   1.581  0.0697 -0.4146  0.4475
 4728TIP3    H114137   6.791   6.563   1.496  0.1701 -0.3698  0.3933
 4728TIP3    H214138   6.917   6.611   1.565  0.7643 -2.8650  1.0826
 4729TIP3   OH214139   7.259   6.636   2.014 -0.1946 -0.4008  0.2183
 4729TIP3    H114140   7.291   6.720   2.046  0.4901 -0.7865  0.5447
 4729TIP3    H214141   7.221   6.594   2.092  0.5103 -0.8837  0.3065
 4730TIP3   OH214142   7.715   7.141   1.472  0.0169 -0.2960 -0.0661
 4730TIP3    H114143   7.773   7.214   1.451 -0.3894  0.2495  0.6665
 4730TIP3    H214144   7.681   7.112   1.388  0.7589 -0.1234 -0.4281
 4731TIP3   OH214145   7.556   4.835   3.829 -0.0895 -0.6131 -0.2752
 4731TIP3    H114146   7.591   4.886   3.755  1.3740  0.5898  1.1917
 4731TIP3    H214147   7.492   4.893   3.870  1.7894  0.2472  1.5727
 4732TIP3   OH214148   1.429   0.481   1.711 -0.7823 -0.1293 -0.6370
 4732TIP3    H114149   1.378   0.404   1.738 -1.9765  1.0934  0.6551
 4732TIP3    H214150   1.365   0.542   1.677  0.2191  0.1531 -2.0796
 4733TIP3   OH214151   7.420   6.083   3.062  0.3660 -0.0240 -0.3069
 4733TIP3    H114152   7.432   6.178   3.071 -0.9838  0.0229  1.3885
 4733TIP3    H214153   7.490   6.055   3.003  1.9207  1.7470  0.6415
 4734TIP3   OH214154   0.051   5.563   0.146 -0.3898  0.5353  0.2959
 4734TIP3    H114155   0.027   5.633   0.085 -3.4057  0.3798  1.2385
 4734TIP3    H214156   0.054   5.484   0.092  0.3592  0.9353 -0.2626
 4735TIP3   OH214157   4.646   5.844   1.101  0.0327 -0.3732  0.2764
 4735TIP3    H114158   4.719   5.782   1.094 -0.8224 -1.1093 -3.4884
 4735TIP3    H214159   4.681   5.925   1.063 -0.6351 -0.3015 -0.1934
 4736TIP3   OH214160   2.283   2.275   6.010 -0.7440  0.3533 -0.0240
 4736TIP3    H114161   2.223   2.346   6.031  0.1586  1.0309  0.2731
 4736TIP3    H214162   2.365   2.318   5.989 -0.3626 -0.5704 -0.4509
 4737TIP3   OH214163   1.301   1.808   5.563  0.3973 -0.4480 -0.4902
 4737TIP3    H114164   1.308   1.807   5.468 -0.0979  0.1350 -0.5397
 4737TIP3    H214165   1.209   1.826   5.580  0.5250 -0.3422  0.0967
 4738TIP3   OH214166   2.388   1.511   5.929 -0.2895 -0.9416 -0.1053
 4738TIP3    H114167   2.333   1.525   5.852 -0.4290  0.1061  0.1735
 4738TIP3    H214168   2.467   1.563   5.911  0.3766 -1.9854 -0.2550
 4739TIP3   OH214169   0.299   6.327   1.041 -0.0272 -0.2668  0.4547
 4739TIP3    H114170   0.355   6.381   0.985 -0.8393  1.3719  1.1973
 4739TIP3    H214171   0.220   6.379   1.055 -1.5987 -2.3982 -0.2492
 4740TIP3   OH214172   4.171   2.867   5.009 -0.2394 -0.0937  0.2038
 4740TIP3    H114173   4.262   2.853   5.037  0.0873 -0.5024 -1.0357
 4740TIP3    H214174   4.137   2.779   4.994 -0.1889  0.1338 -1.3213
 4741TIP3   OH214175   1.046   6.420   6.168 -0.2951  0.0323 -0.2267
 4741TIP3    H114176   1.034   6.504   6.213  1.2350  0.1035  0.0559
 4741TIP3    H214177   1.140   6.416   6.149 -0.6498 -0.7636 -1.9134
 4742TIP3   OH214178   3.605   1.153   4.730 -0.2440 -0.4077  0.6789
 4742TIP3    H114179   3.569   1.120   4.812  0.1499 -0.2608  0.9114
 4742TIP3    H214180   3.614   1.247   4.744 -1.1484 -0.2297  0.0985
 4743TIP3   OH214181   1.479   5.218   6.246 -0.0592  0.1748  0.4972
 4743TIP3    H114182   1.415   5.288   6.230 -1.4338 -0.9202  1.0455
 4743TIP3    H214183   1.515   5.238   6.332  1.2523  1.4720 -0.3336
 4744TIP3   OH214184   7.303   4.107   3.710  0.3923 -0.6488 -0.0794
 4744TIP3    H114185   7.332   4.070   3.627 -0.4328  0.2191 -0.7684
 4744TIP3    H214186   7.217   4.143   3.691  0.7143  0.6344  0.8651
 4745TIP3   OH214187   7.337   6.636   1.739  0.2021 -0.1397  0.3862
 4745TIP3    H114188   7.335   6.633   1.834 -1.3615  0.0336  0.3687
 4745TIP3    H214189   7.425   6.605   1.716  0.2225 -1.2278  1.8440
 4746TIP3   OH214190   0.981   6.302   4.226  0.1614 -0.1582  0.1785
 4746TIP3    H114191   0.989   6.395   4.249 -1.5566 -0.0041  0.2055
 4746TIP3    H214192   1.001   6.299   4.133  1.0936  0.1054  0.3617
 4747TIP3   OH214193   2.545   0.442   5.190 -0.0518  0.6635 -0.7129
 4747TIP3    H114194   2.553   0.469   5.281 -1.2309 -0.5928 -0.2116
 4747TIP3    H214195   2.492   0.512   5.149 -0.3365  0.7489 -0.2044
 4748TIP3   OH214196   2.279   0.046   1.842  0.2651  0.3100  0.3392
 4748TIP3    H114197   2.226   0.112   1.887  1.5764  1.4495  0.2438
 4748TIP3    H214198   2.364   0.050   1.886  2.2314  2.8182 -3.4144
 4749TIP3   OH214199   3.795   0.803   3.748  0.2490 -0.3605 -0.2529
 4749TIP3    H114200   3.824   0.894   3.760  1.2893 -0.7750  0.4836
 4749TIP3    H214201   3.869   0.750   3.778 -1.2294 -1.4576  1.6047
 4750TIP3   OH214202   0.607   0.422   2.545 -0.3662  0.0126 -0.0308
 4750TIP3    H114203   0.582   0.416   2.453  0.8174  0.9651 -0.4312
 4750TIP3    H214204   0.658   0.342   2.561 -0.6678 -0.2085 -0.1711
 4751TIP3   OH214205   7.761   5.937   4.184 -0.0448  0.2893 -0.5511
 4751TIP3    H114206   7.813   5.937   4.265 -1.6166 -3.2152  0.5637
 4751TIP3    H214207   7.822   5.911   4.116 -0.0042 -2.5674  0.5359
 4752TIP3   OH214208   1.858   0.111   3.016 -0.3287 -0.3288 -0.3452
 4752TIP3    H114209   1.787   0.052   2.993  0.3277 -1.7347  1.0978
 4752TIP3    H214210   1.932   0.083   2.962 -0.1992 -0.4306 -0.1187
 4753TIP3   OH214211   2.939   0.861   1.998 -0.1315 -0.1525 -0.5854
 4753TIP3    H114212   2.907   0.930   1.939 -0.4487  0.3541  0.1737
 4753TIP3    H214213   3.013   0.901   2.043 -0.7730 -0.0532  0.3946
 4754TIP3   OH214214   0.988   2.620   1.238  0.0338 -0.2514  0.5829
 4754TIP3    H114215   0.924   2.683   1.270  0.7144  0.0657  1.3490
 4754TIP3    H214216   1.023   2.579   1.317  0.3519 -0.8297  0.1423
 4755TIP3   OH214217   0.459   0.065   4.343  0.0551  0.4703 -0.0809
 4755TIP3    H114218   0.373   0.102   4.324 -0.8879 -0.8939  1.4341
 4755TIP3    H214219   0.453  -0.027   4.316  1.1696  0.4632 -0.3367
 4756TIP3   OH214220   2.000   7.270   2.458 -0.6538 -0.2080  0.2619
 4756TIP3    H114221   1.949   7.195   2.488 -1.1073 -0.4196 -0.9867
 4756TIP3    H214222   2.012   7.255   2.364  1.4774 -0.0163  0.4671
 4757TIP3   OH214223   6.791   5.549   2.084 -0.2751  0.2037  0.0053
 4757TIP3    H114224   6.718   5.607   2.062 -0.0027  1.2685  1.7760
 4757TIP3    H214225   6.864   5.609   2.102  0.3317 -0.7340  0.7040
 4758TIP3   OH214226   3.586   1.013   3.914 -0.5407 -0.4186  0.6382
 4758TIP3    H114227   3.557   0.952   3.982  1.1350 -0.9133  0.9345
 4758TIP3    H214228   3.676   1.034   3.938 -0.2974  0.2530 -0.8359
 4759TIP3   OH214229   2.443   6.495   2.977 -0.0044  0.3568 -0.2045
 4759TIP3    H114230   2.455   6.470   3.069  0.3396  0.6312 -0.1749
 4759TIP3    H214231   2.350   6.514   2.969 -0.1013 -0.0245  0.0015
 4760TIP3   OH214232   0.654   6.621   1.501 -0.4521  0.4077  0.3284
 4760TIP3    H114233   0.738   6.575   1.496  1.1158  3.0324  1.5826
 4760TIP3    H214234   0.638   6.651   1.411  0.7681  1.2644  0.3822
 4761TIP3   OH214235   7.447   5.730   3.718 -0.5708  0.0940  0.4285
 4761TIP3    H114236   7.466   5.640   3.744 -1.5702 -0.1507  0.3257
 4761TIP3    H214237   7.465   5.732   3.624 -1.0669 -0.1414  0.3278
 4762TIP3   OH214238   1.699   0.791   3.569  0.2508 -0.0517  0.0242
 4762TIP3    H114239   1.744   0.815   3.488 -0.1686  0.6454 -0.0117
 4762TIP3    H214240   1.622   0.848   3.571  1.0736  1.0300  1.6844
 4763TIP3   OH214241   0.206   6.370   2.309 -0.0398  0.0309 -0.2251
 4763TIP3    H114242   0.214   6.277   2.331  0.2573 -0.0431 -0.6468
 4763TIP3    H214243   0.287   6.409   2.340 -0.5591  0.3176  0.7894
 4764TIP3   OH214244   3.168   4.929   1.778 -0.3163 -0.0590  0.1341
 4764TIP3    H114245   3.099   4.991   1.756  0.3685 -0.0946 -2.3118
 4764TIP3    H214246   3.244   4.959   1.728  0.6128 -1.6597  0.5497
 4765TIP3   OH214247   7.246   7.425   3.480  0.5131  0.5132  0.1298
 4765TIP3    H114248   7.232   7.517   3.456  0.4905  0.4554 -0.0829
 4765TIP3    H214249   7.216   7.376   3.404 -1.8689  0.2128  1.2286
 4766TIP3   OH214250   3.648   0.649   3.938 -0.1053 -0.2473 -0.3215
 4766TIP3    H114251   3.680   0.717   3.877 -0.8273  1.6917  1.4235
 4766TIP3    H214252   3.582   0.693   3.991 -1.8792 -2.8242 -0.3258
 4767TIP3   OH214253   3.976   7.256   0.174  0.1725 -0.4206  0.1541
 4767TIP3    H114254   3.990   7.291   0.086  0.9952  0.8400  0.7762
 4767TIP3    H214255   3.927   7.175   0.159  3.0208 -1.8859 -1.6805
 4768TIP3   OH214256   3.554   0.566   5.566 -0.0357 -0.7744  0.1052
 4768TIP3    H114257   3.649   0.568   5.582 -0.0128 -0.0793 -0.0958
 4768TIP3    H214258   3.527   0.477   5.591  0.5501 -0.7476  0.8616
 4769TIP3   OH214259   1.931   7.118   3.169 -0.3213  0.3638 -0.7981
 4769TIP3    H114260   1.914   7.123   3.075  0.1704  1.0759 -0.8541
 4769TIP3    H214261   1.944   7.209   3.196  3.0214 -0.0840 -0.6980
 4770TIP3   OH214262   2.451   0.116   3.655  0.3767 -0.4016 -0.0340
 4770TIP3    H114263   2.377   0.059   3.674  0.8282 -0.9841 -0.0180
 4770TIP3    H214264   2.508   0.108   3.732  0.7169 -0.3732 -0.2814
 4771TIP3   OH214265   4.954   1.135   3.265  0.0497  0.0093  0.4413
 4771TIP3    H114266   4.940   1.229   3.263 -0.4285 -0.0677 -0.2111
 4771TIP3    H214267   4.868   1.098   3.242  0.2920 -0.5731  0.4786
 4772TIP3   OH214268   7.631   5.950   2.590 -0.2481  0.8226  0.0856
 4772TIP3    H114269   7.700   5.978   2.650 -0.1953  0.8370  0.0184
 4772TIP3    H214270   7.634   6.014   2.518 -1.4347  1.8153  0.8939
 4773TIP3   OH214271   2.771   5.273   0.262 -0.0183 -0.1752 -0.8048
 4773TIP3    H114272   2.784   5.188   0.305  2.6583  0.7655  0.3822
 4773TIP3    H214273   2.734   5.330   0.330  0.6036  0.2819 -0.8436
 4774TIP3   OH214274   2.092   6.611   2.086 -0.5481  0.1270 -0.5589
 4774TIP3    H114275   2.032   6.574   2.150 -0.2758  2.0569  0.8511
 4774TIP3    H214276   2.177   6.613   2.131 -0.0865  0.3614 -1.4188
 4775TIP3   OH214277   1.035   6.673   6.274 -0.0536  0.4308 -0.6030
 4775TIP3    H114278   1.058   6.764   6.256 -0.3637  0.8142  0.8687
 4775TIP3    H214279   0.940   6.670   6.261 -0.1948  0.5730  0.3858
 4776TIP3   OH214280   1.716   4.972   1.098 -0.2923  0.2607  0.0408
 4776TIP3    H114281   1.797   4.933   1.066 -0.2180  0.5251 -0.0942
 4776TIP3    H214282   1.657   4.969   1.023  0.1579  1.6662 -0.3931
 4777TIP3   OH214283   6.598   6.411   3.332 -0.0961  0.4134 -0.0634
 4777TIP3    H114284   6.507   6.429   3.354 -0.5028 -2.4052  0.8190
 4777TIP3    H214285   6.606   6.437   3.240 -2.2393 -0.7123 -0.6153
 4778TIP3   OH214286   1.436   7.413   1.680  0.0893  0.0736 -0.0040
 4778TIP3    H114287   1.493   7.364   1.739 -2.1584 -1.6372  0.8278
 4778TIP3    H214288   1.352   7.416   1.725 -1.6121 -1.0404 -2.9856
 4779TIP3   OH214289   2.268   0.922   3.729 -0.5821  0.2785 -0.4349
 4779TIP3    H114290   2.237   0.889   3.645 -1.5480  1.5698 -0.6133
 4779TIP3    H214291   2.344   0.975   3.708 -0.3893  0.0067 -0.4163
 4780TIP3   OH214292   3.989   0.146   2.804  0.2815  0.4770 -0.0210
 4780TIP3    H114293   4.072   0.102   2.819 -0.1463 -0.2956  0.0697
 4780TIP3    H214294   3.934   0.081   2.761 -1.0912  0.1970  2.1137
 4781TIP3   OH214295   5.232   0.463   2.725 -0.7410 -0.1804 -0.3022
 4781TIP3    H114296   5.229   0.452   2.630  0.2247  1.5345 -0.5541
 4781TIP3    H214297   5.156   0.415   2.758 -1.2988 -0.4485 -1.9737
 4782TIP3   OH214298   3.530   1.620   1.855  0.9171 -0.8892  0.2502
 4782TIP3    H114299   3.479   1.569   1.792 -0.9839  0.9282  0.2689
 4782TIP3    H214300   3.519   1.572   1.938 -0.0574 -0.9872  0.0748
 4783TIP3   OH214301   2.654   1.745   1.326 -0.2128 -0.6349 -0.5292
 4783TIP3    H114302   2.740   1.787   1.331 -0.5384 -0.2022  1.6781
 4783TIP3    H214303   2.671   1.663   1.279  1.7380 -1.3601  1.3367
 4784TIP3   OH214304   6.699   4.049   6.206  0.2714 -0.6353 -0.8393
 4784TIP3    H114305   6.708   3.956   6.186 -1.2754 -0.7422 -1.1479
 4784TIP3    H214306   6.638   4.082   6.139 -0.3914  0.2681  0.1836
 4785TIP3   OH214307   4.257   0.032   3.931 -0.6277 -0.0572  0.0686
 4785TIP3    H114308   4.275   0.027   4.025  1.7076 -0.1956 -0.3540
 4785TIP3    H214309   4.163   0.045   3.925 -1.0159 -1.5675  2.3983
 4786TIP3   OH214310   2.384   7.216   3.679 -0.2543  0.1937  0.7362
 4786TIP3    H114311   2.337   7.169   3.748 -0.6714 -1.1200 -0.4194
 4786TIP3    H214312   2.399   7.150   3.611  0.7063  1.3140 -0.1542
 4787TIP3   OH214313   1.447   5.856   3.300 -0.0692 -0.0908 -0.0790
 4787TIP3    H114314   1.470   5.777   3.250  0.2237 -0.2915  0.3725
 4787TIP3    H214315   1.381   5.899   3.246 -0.5599 -0.8729 -0.1231
 4788TIP3   OH214316   3.338   0.014   0.988 -0.1416 -0.0224  0.2111
 4788TIP3    H114317   3.282   0.083   0.953  0.6533 -0.2865 -1.6958
 4788TIP3    H214318   3.423   0.056   1.001 -0.0562 -0.2752  0.4891
 4789TIP3   OH214319   7.815   4.113   2.988  0.8477  0.9031 -0.5344
 4789TIP3    H114320   7.904   4.120   2.954  0.9856  0.6754 -0.2232
 4789TIP3    H214321   7.759   4.111   2.911  1.2061 -0.3365 -0.7750
 4790TIP3   OH214322   4.641   0.708   2.730  0.1783 -0.7252  0.1713
 4790TIP3    H114323   4.579   0.641   2.701  1.3558  0.0276 -4.5490
 4790TIP3    H214324   4.589   0.789   2.732  0.1942 -0.6978 -0.4012
 4791TIP3   OH214325   0.015   6.161   0.176 -0.4371 -0.4323 -0.4631
 4791TIP3    H114326   0.023   6.197   0.088  0.8574 -0.6002 -0.4189
 4791TIP3    H214327   0.001   6.237   0.232 -2.4319 -0.4187 -0.9427
 4792TIP3   OH214328   4.566   0.161   0.942 -0.1898 -0.7456 -0.3816
 4792TIP3    H114329   4.540   0.070   0.925  0.5514 -1.1670  0.7427
 4792TIP3    H214330   4.660   0.157   0.959  0.1026  0.4136 -1.6454
 4793TIP3   OH214331   0.179   6.769   2.886 -0.1456 -0.6336 -0.4970
 4793TIP3    H114332   0.126   6.744   2.810 -1.5711 -0.0574  0.2839
 4793TIP3    H214333   0.154   6.707   2.954  1.2083 -1.2159 -0.5058
 4794TIP3   OH214334   3.187   0.732   3.525  0.4829 -0.1535  0.2081
 4794TIP3    H114335   3.144   0.692   3.601  0.2175  0.6913  0.5143
 4794TIP3    H214336   3.185   0.665   3.458  2.0225 -1.4297  1.3976
 4795TIP3   OH214337   7.135   6.510   2.232 -0.2285  0.0566 -0.2816
 4795TIP3    H114338   7.050   6.538   2.266  0.3100 -1.3251  2.2812
 4795TIP3    H214339   7.192   6.506   2.309  2.1957  0.9922 -1.9455
 4796TIP3   OH214340   1.110   7.139   3.364 -0.5679 -0.5700  0.0997
 4796TIP3    H114341   1.125   7.133   3.270  0.9027  0.1898  0.2747
 4796TIP3    H214342   1.160   7.066   3.402  1.7068  1.1680  0.5663
 4797TIP3   OH214343   7.652   5.671   1.102 -0.1279 -0.6270 -0.2905
 4797TIP3    H114344   7.683   5.652   1.190 -2.3776  0.3902  0.7522
 4797TIP3    H214345   7.672   5.593   1.051  1.2261 -1.1971  1.1050
 4798TIP3   OH214346   4.792   0.437   0.983 -0.2517 -0.4994 -0.1560
 4798TIP3    H114347   4.767   0.466   0.895  0.1042 -1.7644 -0.6819
 4798TIP3    H214348   4.829   0.350   0.970  1.0541 -0.1589  1.0768
 4799TIP3   OH214349   3.020   7.224   2.450  0.1563  0.9906  0.5148
 4799TIP3    H114350   3.008   7.231   2.544 -1.6782  1.2169  0.2818
 4799TIP3    H214351   2.989   7.309   2.415 -0.4384  0.4176 -0.3844
 4800TIP3   OH214352   1.107   4.747   4.072  0.0252 -0.0340 -0.3421
 4800TIP3    H114353   1.075   4.820   4.125 -1.3924  0.2775 -1.6036
 4800TIP3    H214354   1.154   4.788   4.000  0.8050 -0.4165 -0.0497
 4801TIP3   OH214355   1.217   5.090   2.017 -0.4281 -0.1468  0.3716
 4801TIP3    H114356   1.223   5.021   2.083  0.8088  0.5409  1.0051
 4801TIP3    H214357   1.167   5.051   1.945  0.2561 -1.7000  0.7205
 4802TIP3   OH214358   7.299   6.525   0.373 -0.5826  0.2480  0.1943
 4802TIP3    H114359   7.347   6.452   0.412  3.1065  2.2366 -0.3810
 4802TIP3    H214360   7.281   6.584   0.446 -0.0278  0.5983  0.0552
 4803TIP3   OH214361   4.782   0.773   0.556 -0.3426  0.2712 -0.1844
 4803TIP3    H114362   4.812   0.851   0.602 -1.2373 -0.0367  0.9356
 4803TIP3    H214363   4.856   0.712   0.560 -0.0948  0.5909  0.0322
 4804TIP3   OH214364   7.699   7.181   1.967 -0.1532  0.4874  0.0322
 4804TIP3    H114365   7.790   7.201   1.944  0.2365 -0.5701  0.6368
 4804TIP3    H214366   7.681   7.237   2.043  0.3928 -0.2185  0.6835
 4805TIP3   OH214367   0.733   5.498   1.263  0.3625  0.9631  0.1381
 4805TIP3    H114368   0.765   5.419   1.307 -0.0694  1.2690  1.0021
 4805TIP3    H214369   0.638   5.485   1.257  0.5819  0.2003 -2.1302
 4806TIP3   OH214370   0.250   5.268   1.834 -0.0271 -0.1499  0.1511
 4806TIP3    H114371   0.277   5.278   1.925  1.0877 -0.6516 -0.1171
 4806TIP3    H214372   0.155   5.281   1.836 -0.1133 -0.8443  1.4870
 4807TIP3   OH214373   2.168   6.866   1.217  0.3124  0.5009 -0.1979
 4807TIP3    H114374   2.115   6.880   1.138 -0.2485 -2.0876 -0.3184
 4807TIP3    H214375   2.257   6.888   1.191 -0.3808  3.0618 -0.5369
 4808TIP3   OH214376   5.139   2.391   2.796 -0.0299  0.0252  0.4189
 4808TIP3    H114377   5.214   2.415   2.741 -0.7808 -0.7127 -0.9538
 4808TIP3    H214378   5.171   2.317   2.848  0.6606  0.6688  0.9200
 4809TIP3   OH214379   0.875   7.031   2.543 -0.2108 -0.3585  0.2275
 4809TIP3    H114380   0.889   6.937   2.538 -0.4049 -0.4048  0.5476
 4809TIP3    H214381   0.783   7.043   2.522  0.0753 -0.1384 -0.9328
 4810TIP3   OH214382   6.662   6.816   1.614  0.3131  0.1293  0.3249
 4810TIP3    H114383   6.700   6.851   1.695  2.1884  2.2646 -1.4142
 4810TIP3    H214384   6.714   6.738   1.594 -0.2288 -0.4694  1.2056
 4811TIP3   OH214385   5.583   0.124   2.809  0.7165  0.6153  0.2962
 4811TIP3    H114386   5.572   0.030   2.794  1.3912  0.4809  0.6386
 4811TIP3    H214387   5.521   0.165   2.748  0.0733 -0.0581  0.4913
 4812TIP3   OH214388   4.951   0.886   2.935  0.2259 -0.5114 -0.2746
 4812TIP3    H114389   4.954   0.952   3.004  1.0546  0.6001 -1.3547
 4812TIP3    H214390   4.872   0.835   2.954 -1.1200  1.5840 -0.1588
 4813TIP3   OH214391   1.485   6.418   3.732  0.5638  0.4319 -0.2883
 4813TIP3    H114392   1.530   6.425   3.817  1.1226  1.6954 -0.6834
 4813TIP3    H214393   1.543   6.364   3.678  0.3640 -0.0961  0.0129
 4814TIP3   OH214394   0.189   6.143   3.729  0.2457  0.0743  0.4553
 4814TIP3    H114395   0.097   6.130   3.709  0.2471  1.1779 -0.2549
 4814TIP3    H214396   0.231   6.060   3.704 -0.3136  0.1189 -0.6249
 4815TIP3   OH214397   4.020   1.665   3.897 -0.5326  0.0175  0.3524
 4815TIP3    H114398   3.933   1.704   3.897 -0.8654 -0.6217  2.8401
 4815TIP3    H214399   4.075   1.727   3.945  0.0708 -0.2017 -0.0423
 4816TIP3   OH214400   4.466   1.481   2.986 -0.1291  0.0290 -0.4623
 4816TIP3    H114401   4.515   1.419   3.040  1.6236 -0.0378 -2.0793
 4816TIP3    H214402   4.531   1.519   2.928 -1.5568  1.8626 -0.9268
 4817TIP3   OH214403   4.916   1.551   5.268  0.5023 -0.1852  0.7269
 4817TIP3    H114404   4.966   1.477   5.302 -1.9400 -1.9499  0.6285
 4817TIP3    H214405   4.942   1.558   5.176  0.7831 -0.8897  0.7518
 4818TIP3   OH214406   6.129   7.066   4.706 -0.3355 -0.2403 -0.4741
 4818TIP3    H114407   6.151   7.128   4.636 -0.0473  0.7343  0.4626
 4818TIP3    H214408   6.055   7.106   4.751  0.7473  0.1335  1.0140
 4819TIP3   OH214409   6.587   1.176   2.614  0.4471 -0.2099  0.5334
 4819TIP3    H114410   6.659   1.152   2.556 -0.5325  1.0193 -1.2722
 4819TIP3    H214411   6.623   1.242   2.673  1.6694 -2.0475  1.8837
 4820TIP3   OH214412   2.541   1.714   1.900 -0.5355 -0.2009 -0.1926
 4820TIP3    H114413   2.585   1.686   1.981 -0.5787  1.2230  0.3393
 4820TIP3    H214414   2.465   1.657   1.894 -0.0585 -0.9082  0.3054
 4821TIP3   OH214415   1.692   6.644   3.047 -0.3429 -0.0424 -0.2154
 4821TIP3    H114416   1.636   6.671   3.120 -0.3671 -0.8373  0.0659
 4821TIP3    H214417   1.726   6.726   3.011  2.0404  0.2905  2.5656
 4822TIP3   OH214418   3.141   5.384   2.322  0.3778 -0.2418 -0.3869
 4822TIP3    H114419   3.097   5.447   2.379  0.0663 -1.1381  0.3876
 4822TIP3    H214420   3.137   5.422   2.235  1.6069  1.5565  0.3226
 4823TIP3   OH214421   6.605   0.352   2.497  0.3237 -0.1353 -0.1465
 4823TIP3    H114422   6.624   0.353   2.591 -0.5430  0.3201  0.0272
 4823TIP3    H214423   6.692   0.352   2.455  0.7297  1.2254  0.6382
 4824TIP3   OH214424   1.259   7.065   2.141 -0.4939 -0.2053  0.4498
 4824TIP3    H114425   1.186   7.127   2.150 -1.0923 -1.0869  1.8940
 4824TIP3    H214426   1.333   7.110   2.180 -0.9680 -0.4533  1.6578
 4825TIP3   OH214427   4.218   6.152   2.776 -0.2342  0.0931 -0.1633
 4825TIP3    H114428   4.124   6.141   2.788  0.2840 -1.9254  2.7349
 4825TIP3    H214429   4.237   6.107   2.694 -1.4584 -1.8014  0.5490
 4826TIP3   OH214430   5.858   1.295   2.794  0.6209  0.3264 -0.4517
 4826TIP3    H114431   5.951   1.280   2.778  0.6419  0.4994 -0.4909
 4826TIP3    H214432   5.841   1.251   2.878  1.2272  2.1456  0.6447
 4827TIP3   OH214433   6.476   0.732   1.566 -0.5807  0.0079 -0.0858
 4827TIP3    H114434   6.519   0.758   1.648 -0.3843  3.6101 -1.2604
 4827TIP3    H214435   6.387   0.709   1.593 -0.1277 -0.0991  1.3485
 4828TIP3   OH214436   4.603   2.559   3.273  0.1438 -0.9724  0.1869
 4828TIP3    H114437   4.568   2.500   3.339 -0.5609  0.3292  1.0058
 4828TIP3    H214438   4.541   2.632   3.270  1.4439  0.1534 -0.1505
 4829TIP3   OH214439   2.333   5.967   2.357 -0.1549  0.5793 -0.6290
 4829TIP3    H114440   2.363   5.883   2.323  0.3094  0.7368 -0.6039
 4829TIP3    H214441   2.237   5.959   2.358 -0.1301  0.2046 -1.0175
 4830TIP3   OH214442   2.705   6.623   0.756  0.3974  0.1245 -0.3382
 4830TIP3    H114443   2.628   6.619   0.700  0.5821  0.4094 -0.6156
 4830TIP3    H214444   2.718   6.533   0.785 -0.1136  0.0991 -0.1877
 4831TIP3   OH214445   7.459   6.875   3.619  0.2205  0.1869 -0.1998
 4831TIP3    H114446   7.432   6.811   3.685 -0.2776 -0.6890 -1.2308
 4831TIP3    H214447   7.541   6.840   3.584  0.9186  1.0755  0.5216
 4832TIP3   OH214448   0.824   4.770   1.055  0.4368  0.5748  0.8494
 4832TIP3    H114449   0.799   4.681   1.080  3.0391 -0.2374  0.7277
 4832TIP3    H214450   0.904   4.787   1.105  1.5677  1.7411 -1.2974
 4833TIP3   OH214451   3.460   6.884   3.376  0.3144 -0.2914 -0.6109
 4833TIP3    H114452   3.437   6.802   3.419 -0.2601 -0.3939 -1.1049
 4833TIP3    H214453   3.545   6.868   3.337  0.6558 -0.3278  0.1429
 4834TIP3   OH214454   1.662   7.048   0.328 -0.0125  0.0294  0.2454
 4834TIP3    H114455   1.622   6.997   0.399 -0.3877  0.8651  0.6415
 4834TIP3    H214456   1.608   7.127   0.322  1.0217  0.7391  0.1506
 4835TIP3   OH214457   7.546   4.395   2.911 -0.0216  0.2278 -0.2638
 4835TIP3    H114458   7.584   4.368   2.995  0.2465  3.0021  0.5604
 4835TIP3    H214459   7.511   4.314   2.874 -2.4234 -0.6983  3.6593
 4836TIP3   OH214460   2.122   1.164   1.997  0.7172  0.0919 -0.3173
 4836TIP3    H114461   2.049   1.139   1.940  1.7814 -0.9612 -1.2319
 4836TIP3    H214462   2.092   1.140   2.085  0.2929 -1.1297 -0.7798
 4837TIP3   OH214463   6.277  -0.001   2.375 -0.1007  0.4628 -0.7874
 4837TIP3    H114464   6.184   0.023   2.381 -0.1346  0.2114 -0.2226
 4837TIP3    H214465   6.321   0.079   2.348 -0.5823  0.3812 -1.8429
 4838TIP3   OH214466   1.972   6.054   2.132  0.1440  0.1885 -0.1829
 4838TIP3    H114467   2.013   6.002   2.201 -0.0055  0.9724  0.5079
 4838TIP3    H214468   2.023   6.135   2.129  0.3480  0.0146 -1.2136
 4839TIP3   OH214469   1.312   5.293   2.208 -0.1886  0.4585 -0.2501
 4839TIP3    H114470   1.336   5.211   2.166 -0.6258 -0.4578  1.2260
 4839TIP3    H214471   1.231   5.320   2.164  0.2808  0.4018 -1.1414
 4840TIP3   OH214472   2.358   3.952   2.352  0.5514 -0.2089 -0.2181
 4840TIP3    H114473   2.402   3.914   2.428 -0.0569  0.8038  0.6529
 4840TIP3    H214474   2.266   3.927   2.363  0.4149  0.1759 -0.4755
 4841TIP3   OH214475   7.258   6.842   2.474  0.2162  0.1130 -0.1106
 4841TIP3    H114476   7.215   6.908   2.420 -0.6965  0.2351  0.7366
 4841TIP3    H214477   7.351   6.860   2.464  0.0587  0.2213 -1.5122
 4842TIP3   OH214478   6.439   6.395   2.606 -0.2681 -0.0589  0.0894
 4842TIP3    H114479   6.345   6.406   2.621 -0.1139  0.8901  0.4240
 4842TIP3    H214480   6.471   6.484   2.591  0.6819 -0.3066  0.6005
 4843TIP3   OH214481   1.693   6.366   2.912  0.3240 -0.2744 -0.1786
 4843TIP3    H114482   1.702   6.324   2.997  1.3095  1.5467  0.6220
 4843TIP3    H214483   1.700   6.459   2.929 -0.9121  0.2144 -2.0680
 4844TIP3   OH214484   1.671   7.040   3.705 -0.1612 -0.1560  0.5391
 4844TIP3    H114485   1.605   7.066   3.641  1.1749 -0.7653 -1.1110
 4844TIP3    H214486   1.708   7.123   3.736  0.2121  0.1100 -0.5915
 4845TIP3   OH214487   3.459   0.299   1.678  0.0222 -0.8786  0.2072
 4845TIP3    H114488   3.517   0.254   1.617  1.2785  0.1694  0.6141
 4845TIP3    H214489   3.429   0.377   1.631  0.1705 -0.6081  0.5612
 4846TIP3   OH214490   6.939   7.460   0.882  0.1518 -0.3144  0.6792
 4846TIP3    H114491   6.851   7.423   0.872  0.1220 -0.2057  0.5371
 4846TIP3    H214492   6.973   7.420   0.962  0.4204 -1.2565  0.1107
 4847TIP3   OH214493   1.127   6.894   2.752  0.6425 -0.2618 -0.7335
 4847TIP3    H114494   1.048   6.869   2.800  2.4846 -0.9937  2.0068
 4847TIP3    H214495   1.178   6.946   2.815  3.4132 -1.7847 -1.6558
 4848TIP3   OH214496   1.228   6.461   2.837 -0.0157  0.0272 -0.3472
 4848TIP3    H114497   1.283   6.467   2.916 -1.0813  2.3486  0.2614
 4848TIP3    H214498   1.144   6.499   2.863 -1.3241 -1.7515 -1.8185
 4849TIP3   OH214499   2.546   7.389   2.292 -0.5090  0.5070  0.1726
 4849TIP3    H114500   2.625   7.336   2.278 -1.7579 -1.4427  0.2940
 4849TIP3    H214501   2.479   7.345   2.240 -1.3842  2.5189 -0.4422
 4850TIP3   OH214502   2.515   5.944   2.603  0.0464 -0.2891  0.3362
 4850TIP3    H114503   2.554   6.004   2.540 -0.9268  1.2843  1.1862
 4850TIP3    H214504   2.435   5.913   2.560  0.9241 -1.5579 -0.3955
 4851TIP3   OH214505   6.587   1.717   1.450  0.0836  0.6191 -0.0880
 4851TIP3    H114506   6.550   1.782   1.390 -2.1895  1.7495  2.4351
 4851TIP3    H214507   6.636   1.769   1.514  0.3296 -0.3615  0.5292
 4852TIP3   OH214508   7.339   2.361   2.116 -0.1364 -0.0200 -0.3122
 4852TIP3    H114509   7.411   2.358   2.179  0.0915 -0.4926 -0.5944
 4852TIP3    H214510   7.381   2.384   2.033 -0.2678 -0.5839 -0.5381
 4853TIP3   OH214511   4.488   6.923   0.484  0.2621  0.4393 -0.5059
 4853TIP3    H114512   4.398   6.908   0.453  1.3967 -1.9606 -2.8378
 4853TIP3    H214513   4.493   6.876   0.567 -1.0135  1.7589  0.3435
 4854TIP3   OH214514   3.058   5.457   1.692 -0.3453  0.4573  0.3016
 4854TIP3    H114515   3.040   5.431   1.601 -1.9573  0.9944  0.4510
 4854TIP3    H214516   3.110   5.537   1.684 -1.0966  0.9031 -0.1548
 4855TIP3   OH214517   1.143   3.966   6.259  0.4846 -0.0437  0.4415
 4855TIP3    H114518   1.226   4.012   6.248 -0.6048  2.0183  0.6335
 4855TIP3    H214519   1.082   4.010   6.199 -1.2425  0.5352  2.5423
 4856TIP3   OH214520   1.614   6.498   2.051 -0.1940  0.3010  0.6269
 4856TIP3    H114521   1.598   6.576   2.105  0.2000 -0.4141  1.7892
 4856TIP3    H214522   1.684   6.524   1.991 -1.3358  1.4326 -0.2456
 4857TIP3   OH214523   7.473   0.236   1.099 -0.1019  0.0112  0.4468
 4857TIP3    H114524   7.543   0.259   1.160  0.1733  0.8099 -0.1629
 4857TIP3    H214525   7.452   0.318   1.054 -0.6708 -0.4593 -0.1592
 4858TIP3   OH214526   2.498   4.899   1.036  0.0241 -0.5447 -0.2901
 4858TIP3    H114527   2.485   4.957   0.961 -1.3910 -0.2677  0.1646
 4858TIP3    H214528   2.453   4.943   1.109 -0.8129 -2.0516  0.1189
 4859TIP3   OH214529   3.939   4.372   0.176 -0.0523  0.0598 -0.1833
 4859TIP3    H114530   3.992   4.411   0.245  0.2646  0.1492 -0.4780
 4859TIP3    H214531   3.870   4.325   0.223  0.1097  0.1959  0.1926
 4860TIP3   OH214532   2.290   7.038   3.868  0.1533  0.0386 -0.6089
 4860TIP3    H114533   2.205   7.040   3.914  0.0538  1.4805 -0.8144
 4860TIP3    H214534   2.354   7.021   3.937 -0.1929  0.1453 -0.2590
 4861TIP3   OH214535   4.082   5.579   0.925 -0.0487 -0.2654  0.4267
 4861TIP3    H114536   4.129   5.618   0.851 -0.5317 -1.3096 -0.4407
 4861TIP3    H214537   4.085   5.647   0.993  0.8838  0.4921 -0.3421
 4862TIP3   OH214538   3.006   6.765   1.550  0.2663  0.2368 -0.6402
 4862TIP3    H114539   3.018   6.811   1.466  1.9640  0.8224 -0.1009
 4862TIP3    H214540   2.955   6.688   1.527  2.4395 -0.6871 -2.5943
 4863TIP3   OH214541   1.657   3.809   5.785 -0.1798  0.3684  0.2632
 4863TIP3    H114542   1.620   3.828   5.871  0.6906 -0.2595  0.7841
 4863TIP3    H214543   1.716   3.883   5.767 -1.4935  1.2469 -0.4605
 4864TIP3   OH214544  -0.013   1.470   5.516  0.1331 -0.3038 -0.7064
 4864TIP3    H114545   0.037   1.514   5.584 -2.0677  2.7862 -0.9641
 4864TIP3    H214546   0.046   1.466   5.441  0.3534  2.3800 -0.7072
 4865TIP3   OH214547   4.945   7.381   1.565 -0.0597  0.1685 -0.2132
 4865TIP3    H114548   4.981   7.303   1.525 -0.8619  0.1355 -0.8845
 4865TIP3    H214549   4.852   7.363   1.574  0.1614  0.0319  2.0042
 4866TIP3   OH214550   3.300   6.878   0.674 -0.0101 -0.3424  0.3783
 4866TIP3    H114551   3.328   6.949   0.615  0.0729 -0.5813  0.1292
 4866TIP3    H214552   3.209   6.898   0.694 -0.0094 -0.2031  0.2493
 4867TIP3   OH214553   4.667   6.497   2.890 -0.1291 -0.0293  0.0339
 4867TIP3    H114554   4.577   6.468   2.874  0.4291 -1.4202 -0.6556
 4867TIP3    H214555   4.668   6.519   2.983 -0.8904 -1.1067  0.3105
 4868TIP3   OH214556   6.778   0.413   2.790  0.0964 -0.0200 -0.4365
 4868TIP3    H114557   6.778   0.508   2.795 -1.4983 -0.0055 -0.4419
 4868TIP3    H214558   6.765   0.384   2.880 -0.0398 -0.2154 -0.5181
 4869TIP3   OH214559   3.043   6.636   2.600  0.0597  0.3371  0.0137
 4869TIP3    H114560   3.110   6.580   2.561  0.9551  0.8349  0.8144
 4869TIP3    H214561   3.002   6.581   2.667  0.7620  0.5478  0.6220
 4870TIP3   OH214562   0.741   2.845   6.120 -0.2685  0.3150  0.1659
 4870TIP3    H114563   0.685   2.779   6.161  0.0033  0.8279  1.4020
 4870TIP3    H214564   0.682   2.916   6.097 -0.3135  0.3355  0.3443
 4871TIP3   OH214565   2.073   6.334   2.213 -0.7766  0.0313 -1.1025
 4871TIP3    H114566   2.130   6.309   2.286 -1.2115 -0.9998 -1.1025
 4871TIP3    H214567   2.001   6.381   2.253 -0.3093  0.6952 -1.0253
 4872TIP3   OH214568   7.289   1.941   5.602 -0.6442  0.1392 -0.6542
 4872TIP3    H114569   7.372   1.962   5.558 -0.8810  0.7647 -0.8057
 4872TIP3    H214570   7.311   1.941   5.695 -0.3622 -0.1980 -0.7202
 4873TIP3   OH214571   4.203   6.842   0.618 -0.5333 -0.5829 -0.3551
 4873TIP3    H114572   4.198   6.898   0.695 -0.3142  0.8208 -1.3549
 4873TIP3    H214573   4.113   6.836   0.587 -0.2802  0.9030 -1.4290
 4874TIP3   OH214574   3.169   6.147   1.243  0.0772 -0.0458  0.3144
 4874TIP3    H114575   3.190   6.208   1.172  0.9213 -2.5869 -1.6886
 4874TIP3    H214576   3.079   6.120   1.225  0.7129 -1.6562 -0.5686
 4875TIP3   OH214577   2.937   3.681   2.221 -0.3793  1.0491  0.2147
 4875TIP3    H114578   2.901   3.709   2.137 -0.4811  1.7806  0.5051
 4875TIP3    H214579   2.883   3.606   2.246  2.4651 -2.1021 -2.5489
 4876TIP3   OH214580   0.980   5.609   2.968  0.3097 -0.1991  0.2484
 4876TIP3    H114581   0.909   5.632   2.907 -0.6513  0.0970  1.4496
 4876TIP3    H214582   1.035   5.549   2.919 -0.1736  0.4252 -1.0870
 4877TIP3   OH214583   5.220   0.340   1.652  0.3466  0.1913  0.0533
 4877TIP3    H114584   5.218   0.404   1.581  0.7863  0.9363  0.7011
 4877TIP3    H214585   5.130   0.310   1.660 -0.1967  1.9436  0.8158
 4878TIP3   OH214586   0.990   1.261   0.980 -0.2186 -0.4219 -0.3361
 4878TIP3    H114587   1.062   1.207   0.946  0.9342  0.5900  0.4636
 4878TIP3    H214588   0.984   1.333   0.917  0.9890  0.7047  0.8107
 4879TIP3   OH214589   4.896   0.574   2.782  0.3677  0.3491  0.0092
 4879TIP3    H114590   4.900   0.542   2.692  0.2734  1.0558 -0.2509
 4879TIP3    H214591   4.822   0.636   2.782 -1.1571 -1.4005  1.1366
 4880TIP3   OH214592   3.349   5.794   2.303  0.0047 -0.0933 -0.0296
 4880TIP3    H114593   3.351   5.882   2.266 -1.4723 -0.3374 -0.7239
 4880TIP3    H214594   3.263   5.759   2.279  0.5987 -1.7568  0.1667
 4881TIP3   OH214595   3.873   0.012   2.342  0.0302  0.3487  0.2249
 4881TIP3    H114596   3.849  -0.018   2.430 -1.0384  1.0694  0.1889
 4881TIP3    H214597   3.840   0.102   2.338  1.4898  0.8764 -0.3500
 4882TIP3   OH214598   6.817   1.557   1.909 -0.2225 -0.7311 -0.6685
 4882TIP3    H114599   6.778   1.639   1.940  0.8796  0.0774 -1.3814
 4882TIP3    H214600   6.745   1.511   1.866 -0.7944 -0.0093 -0.4833
 4883TIP3   OH214601   3.461   1.720   2.274  0.2083 -1.0412  0.0267
 4883TIP3    H114602   3.370   1.725   2.303  0.8473 -2.0728  2.3618
 4883TIP3    H214603   3.493   1.811   2.281 -0.3427 -0.8665  0.2886
 4884TIP3   OH214604   2.670   6.993   2.839 -0.0560  0.1771  0.1520
 4884TIP3    H114605   2.632   6.907   2.854 -0.1695  0.2276  0.1595
 4884TIP3    H214606   2.609   7.054   2.881  0.0053  0.2628  0.1164
 4885TIP3   OH214607   4.907   0.025   1.401  0.0689 -0.6234  0.2571
 4885TIP3    H114608   4.938   0.095   1.344 -3.2784 -0.8462 -1.9045
 4885TIP3    H214609   4.897   0.067   1.487 -1.0149  1.3013 -0.7999
 4886TIP3   OH214610   7.066   0.084   1.554 -0.5194 -0.0113 -0.1879
 4886TIP3    H114611   7.021   0.160   1.517  2.0387  1.1857 -0.9377
 4886TIP3    H214612   7.101   0.114   1.637  1.0554 -0.1559 -0.7794
 4887TIP3   OH214613   3.090   4.459   0.345 -0.3091  0.2482 -0.4735
 4887TIP3    H114614   3.056   4.529   0.290 -1.3253  0.6856  0.6652
 4887TIP3    H214615   3.028   4.386   0.332 -0.5735  0.3657  0.1006
 4888TIP3   OH214616   6.220   0.668   1.662  0.0158  0.0576 -0.4006
 4888TIP3    H114617   6.218   0.631   1.574 -1.8088  0.0229 -0.3767
 4888TIP3    H214618   6.128   0.685   1.682  0.4902  0.8558  1.1686
 4889TIP3   OH214619   6.263   0.614   2.132 -0.1204 -1.0339 -0.1406
 4889TIP3    H114620   6.186   0.671   2.129  0.3335 -0.4152 -0.1258
 4889TIP3    H214621   6.298   0.625   2.220 -0.0193 -1.3215 -0.1434
 4890TIP3   OH214622   4.078   6.429   2.560 -0.6476  0.4931  0.3904
 4890TIP3    H114623   4.104   6.407   2.649  1.1846  1.5215  0.1237
 4890TIP3    H214624   4.090   6.348   2.511  0.0523  0.3978  0.7109
 4891TIP3   OH214625   3.391   7.310   1.780  0.1302  0.1888 -0.5973
 4891TIP3    H114626   3.442   7.341   1.706  1.8246  0.3195  0.6119
 4891TIP3    H214627   3.359   7.224   1.753  1.5853 -0.1969 -1.0990
 4892TIP3   OH214628   1.414   2.960   5.926 -0.2404  0.3793 -0.1145
 4892TIP3    H114629   1.466   3.038   5.945 -0.4977  0.9142 -1.5921
 4892TIP3    H214630   1.457   2.920   5.850 -1.5065  0.3764 -0.8355
 4893TIP3   OH214631   3.383   6.647   2.733  0.3764  0.3170  0.2289
 4893TIP3    H114632   3.290   6.666   2.747  0.1723  0.2013 -0.9120
 4893TIP3    H214633   3.424   6.733   2.722  0.8014  0.5092  2.9414
 4894TIP3   OH214634   7.594   0.272   1.933 -0.0534 -0.1418  0.0160
 4894TIP3    H114635   7.643   0.191   1.951 -1.4868 -0.9692  0.2558
 4894TIP3    H214636   7.647   0.341   1.972  1.1312 -0.9672 -0.0756
 4895TIP3   OH214637   2.898   6.754   1.895  0.0447 -0.5696  0.0396
 4895TIP3    H114638   2.937   6.708   1.969 -0.1486  0.2658  0.6700
 4895TIP3    H214639   2.962   6.821   1.871 -1.0095  0.8621  1.1334
 4896TIP3   OH214640   2.070   6.219   1.516  0.3006  0.1156 -0.0343
 4896TIP3    H114641   2.036   6.278   1.583  0.1584  0.6183 -0.5422
 4896TIP3    H214642   2.042   6.132   1.544 -2.5799  0.6178 -1.0978
 4897TIP3   OH214643   4.132   5.482   3.377  0.2161 -0.3220 -0.2482
 4897TIP3    H114644   4.125   5.574   3.354 -0.1762 -0.4367 -0.6012
 4897TIP3    H214645   4.071   5.471   3.450 -0.8076 -0.6020 -1.1333
 4898TIP3   OH214646   4.016   6.700   3.338  0.5880 -0.3273  0.3039
 4898TIP3    H114647   4.023   6.782   3.387 -1.0272  0.2069 -0.3284
 4898TIP3    H214648   3.989   6.727   3.250  1.4008 -1.4394 -0.3017
 4899TIP3   OH214649   2.617   6.087   0.797  0.0037 -0.2686  0.0625
 4899TIP3    H114650   2.544   6.067   0.738 -0.0905  0.8905 -0.2104
 4899TIP3    H214651   2.595   6.041   0.878 -0.3658 -1.0242 -0.4585
 4900TIP3   OH214652   3.346   6.564   2.022  0.7167 -0.4509 -0.3094
 4900TIP3    H114653   3.292   6.532   2.094 -0.3085 -0.4333 -1.0613
 4900TIP3    H214654   3.398   6.488   1.995  0.4182 -0.7016 -0.1719
 4901TIP3   OH214655   3.661   5.679   1.538  0.9765 -0.1155 -0.2469
 4901TIP3    H114656   3.605   5.620   1.588  0.8003 -0.8618 -1.2895
 4901TIP3    H214657   3.744   5.680   1.585  0.3790  0.2800  0.8097
 4902TIP3   OH214658   2.773   6.096   0.420  0.2932 -0.6162  0.0837
 4902TIP3    H114659   2.744   6.012   0.386 -0.9222  0.1004 -0.6612
 4902TIP3    H214660   2.692   6.142   0.444  0.9639  0.1841  0.8579
 4903TIP3   OH214661   0.145   0.360   0.481  0.3671 -0.0875 -0.8208
 4903TIP3    H114662   0.153   0.411   0.561 -1.7671 -1.4199  0.2724
 4903TIP3    H214663   0.209   0.290   0.491 -2.8894 -2.8717  1.8215
 4904TIP3   OH214664   3.715   5.349   1.776  0.2991  0.2971  0.1937
 4904TIP3    H114665   3.796   5.396   1.794  0.7131 -0.6742  0.8354
 4904TIP3    H214666   3.650   5.419   1.763  0.6455  1.0574  2.3655
 4905TIP3   OH214667   4.173   4.370   3.058 -0.1815 -0.0400 -0.0590
 4905TIP3    H114668   4.088   4.414   3.059  0.2609  0.9005 -1.9187
 4905TIP3    H214669   4.216   4.399   3.138 -0.8513  0.9967 -0.0691
 4906TIP3   OH214670   4.060   6.059   3.947  0.1154  0.0502  0.9772
 4906TIP3    H114671   4.131   6.118   3.971  1.2580 -0.8064 -0.2307
 4906TIP3    H214672   4.103   5.975   3.933 -1.4197 -0.9675  2.1938
 4907TIP3   OH214673   4.791   2.615   2.338  0.1368  0.0154  0.6561
 4907TIP3    H114674   4.713   2.622   2.393 -0.6965 -0.5738 -0.4428
 4907TIP3    H214675   4.779   2.682   2.270  0.6910  0.0670  0.6058
 4908TIP3   OH214676   3.922   4.547   3.480 -0.1299 -0.0365 -0.3031
 4908TIP3    H114677   3.998   4.535   3.538 -0.2590 -0.7869 -0.2873
 4908TIP3    H214678   3.854   4.581   3.538 -0.4505 -1.3785  0.1335
 4909TIP3   OH214679   3.681   5.258   3.130  0.2136 -0.0724 -0.0320
 4909TIP3    H114680   3.608   5.246   3.191 -1.0312  0.4105 -1.4034
 4909TIP3    H214681   3.747   5.306   3.180 -0.2285 -0.8825  1.3510
 4910TIP3   OH214682   2.001   4.800   2.164 -0.5774 -0.2630 -0.4087
 4910TIP3    H114683   1.937   4.772   2.099 -1.9015  1.9148 -0.0958
 4910TIP3    H214684   2.059   4.860   2.117 -3.0482  3.3240  0.9021
 4911TIP3   OH214685   2.827   0.240   1.948 -0.1446 -0.1163 -0.3828
 4911TIP3    H114686   2.749   0.197   1.982 -1.8783  1.4366 -2.2425
 4911TIP3    H214687   2.851   0.190   1.871 -0.3592  0.4261 -0.8093
 4912TIP3   OH214688   3.258   6.279   0.028  0.3216 -0.5213 -0.4636
 4912TIP3    H114689   3.272   6.256   0.119  0.3774 -0.0865 -0.3615
 4912TIP3    H214690   3.341   6.257  -0.015  0.0991 -1.2713 -0.5242
 4913TIP3   OH214691   7.123   0.183   1.793  0.9037 -0.0690 -0.3143
 4913TIP3    H114692   7.055   0.228   1.842  0.4322  2.0796 -2.8289
 4913TIP3    H214693   7.205   0.217   1.830  0.5589  0.7711 -0.3036
 4914TIP3   OH214694   5.907   4.140   1.740  0.2959  0.6878 -0.1030
 4914TIP3    H114695   5.994   4.150   1.701  1.3000 -0.2148  1.8198
 4914TIP3    H214696   5.863   4.075   1.686  0.6226  1.4875 -1.3671
 4915TIP3   OH214697   7.444   2.932   6.307  0.6691 -0.0743 -0.2917
 4915TIP3    H114698   7.530   2.927   6.347 -0.0665 -2.2069  1.1254
 4915TIP3    H214699   7.391   2.869   6.356 -1.2877  0.0868 -2.1186
 4916TIP3   OH214700   6.274   0.243   2.279  0.2045  0.0680  0.1064
 4916TIP3    H114701   6.190   0.247   2.325 -1.1227  1.3026 -2.3596
 4916TIP3    H214702   6.327   0.310   2.321 -0.8496  0.8887  0.1488
 4917TIP3   OH214703   0.196   0.575   0.680  0.0115  0.2584 -0.4972
 4917TIP3    H114704   0.256   0.599   0.610 -0.1904 -1.1662 -1.1704
 4917TIP3    H214705   0.131   0.646   0.681  1.6989  1.8471  0.2761
 4918TIP3   OH214706   5.629   6.746   1.707  0.5483 -0.8863  0.4705
 4918TIP3    H114707   5.579   6.816   1.750  0.0578 -0.7075 -0.3795
 4918TIP3    H214708   5.656   6.784   1.624 -0.0918 -1.8457 -0.1948
 4919TIP3   OH214709   6.175   0.043   1.612 -0.0360  0.5296  0.3171
 4919TIP3    H114710   6.222   0.052   1.695  0.6881 -1.0977  0.1027
 4919TIP3    H214711   6.150   0.133   1.588  0.3505  1.0810  1.9368
 4920TIP3   OH214712   3.786   4.695   3.655 -0.4354  0.2636  0.2928
 4920TIP3    H114713   3.736   4.761   3.704  0.8848  1.7196 -0.2654
 4920TIP3    H214714   3.874   4.701   3.692 -0.1100 -0.6168 -0.3446
 4921TIP3   OH214715   3.539   6.787   2.277 -0.2358  0.1634 -0.3756
 4921TIP3    H114716   3.502   6.789   2.188  0.4750 -0.5035 -0.6925
 4921TIP3    H214717   3.472   6.828   2.331 -0.8653  0.1930 -1.1543
 4922TIP3   OH214718   3.382   6.722   1.575  0.0243 -0.5519 -0.4357
 4922TIP3    H114719   3.322   6.667   1.625 -0.3562 -0.4449 -0.7722
 4922TIP3    H214720   3.437   6.661   1.526  1.0342 -0.6859  0.8363
 4923TIP3   OH214721   1.394   5.721   2.328 -0.0605 -0.7771 -0.5976
 4923TIP3    H114722   1.419   5.630   2.315 -0.4173 -0.5971 -2.8960
 4923TIP3    H214723   1.302   5.725   2.301 -0.3045  0.0968  0.3206
 4924TIP3   OH214724   3.245   4.543   1.999 -0.4580  0.3018  0.3115
 4924TIP3    H114725   3.294   4.476   1.952 -0.0516  2.0634 -1.8764
 4924TIP3    H214726   3.153   4.516   1.990 -0.3269  0.2363 -0.8868
 4925TIP3   OH214727   7.123   2.084   6.147 -0.2642  0.0157  0.0887
 4925TIP3    H114728   7.085   2.092   6.234  0.2115 -0.1809  0.3171
 4925TIP3    H214729   7.071   2.015   6.104 -1.3623  1.0359 -0.2544
 4926TIP3   OH214730   4.479   0.746   1.766  0.1280 -0.3436  0.3866
 4926TIP3    H114731   4.465   0.764   1.673  1.2853 -0.4474  0.1877
 4926TIP3    H214732   4.451   0.826   1.810  1.7017  0.5694 -0.2231
 4927TIP3   OH214733   4.927   5.252   1.897  0.3491 -0.3989  0.2986
 4927TIP3    H114734   4.926   5.185   1.966  0.4520 -1.9523 -1.1887
 4927TIP3    H214735   5.017   5.283   1.894  0.8645 -1.9813 -0.7092
 4928TIP3   OH214736   4.217   6.136   1.422  0.1033 -0.2172  0.4039
 4928TIP3    H114737   4.151   6.135   1.492  1.0289  1.5492  1.3250
 4928TIP3    H214738   4.258   6.222   1.429 -0.3419  0.3223 -2.8712
 4929TIP3   OH214739   7.299   0.312   1.372 -0.2533  0.4923  0.0476
 4929TIP3    H114740   7.363   0.351   1.312  1.2641  1.4499  2.2244
 4929TIP3    H214741   7.298   0.219   1.349  1.4037  0.5945 -0.4750
 4930TIP3   OH214742   7.262   1.487   0.450  0.0585  0.0007  0.5961
 4930TIP3    H114743   7.344   1.461   0.408 -0.1810 -1.3278  0.9485
 4930TIP3    H214744   7.215   1.405   0.464 -0.7598  0.6362  1.6035
 4931TIP3   OH214745   3.426   5.114   0.389  0.5957  0.3266 -0.0249
 4931TIP3    H114746   3.335   5.097   0.367  0.9841 -0.0475 -1.3573
 4931TIP3    H214747   3.421   5.169   0.468 -0.7311 -1.3240  1.0731
 4932TIP3   OH214748   2.181   7.405   3.151  0.6752 -0.2102  0.1937
 4932TIP3    H114749   2.213   7.338   3.091 -0.6329 -0.6477 -0.0361
 4932TIP3    H214750   2.182   7.362   3.237 -1.7577 -1.1211 -0.1938
 4933TIP3   OH214751   1.137   6.625   3.490 -0.2208  0.1890 -0.3024
 4933TIP3    H114752   1.197   6.638   3.563  1.4285 -1.0462 -1.4005
 4933TIP3    H214753   1.061   6.582   3.529  0.9156 -1.0498  0.5943
 4934TIP3   OH214754   5.379   6.650   0.958 -0.0297  0.3946  0.4733
 4934TIP3    H114755   5.342   6.734   0.931 -1.3032  0.2471  1.7170
 4934TIP3    H214756   5.412   6.665   1.046 -0.6203 -0.5043  0.8633
 4935TIP3   OH214757   4.889   4.553   1.485 -0.5065 -0.6377 -0.9559
 4935TIP3    H114758   4.876   4.524   1.394  1.1388  1.5961 -1.9207
 4935TIP3    H214759   4.980   4.532   1.504 -0.6438 -0.4212 -0.0526
 4936TIP3   OH214760   4.858   7.423   0.155 -0.5285  0.1602 -0.0838
 4936TIP3    H114761   4.797   7.374   0.211 -2.2508  0.0987 -1.9480
 4936TIP3    H214762   4.828   7.514   0.162 -0.3337  0.2469 -0.3883
 4937TIP3   OH214763   0.523   0.719   6.067 -0.0626  0.2609 -0.0870
 4937TIP3    H114764   0.435   0.692   6.040  0.1843 -2.2117  1.4829
 4937TIP3    H214765   0.508   0.794   6.125 -0.9996  1.0935 -1.3810
 4938TIP3   OH214766   5.731   0.541   0.852  0.6017  0.2335  0.4707
 4938TIP3    H114767   5.643   0.526   0.887  0.2866 -4.0716 -1.7646
 4938TIP3    H214768   5.717   0.589   0.771  0.4327  0.9442  0.9233
 4939TIP3   OH214769   5.598   1.268   1.354 -0.1778  0.1463  0.0384
 4939TIP3    H114770   5.567   1.213   1.426 -2.5021  0.9374 -0.3399
 4939TIP3    H214771   5.668   1.216   1.313  0.7703 -0.5580  2.4599
 4940TIP3   OH214772   3.815   4.458   2.870  0.6635 -0.1061  0.1020
 4940TIP3    H114773   3.809   4.497   2.783 -0.8660 -0.9411 -0.1892
 4940TIP3    H214774   3.769   4.519   2.927  0.6167 -0.1437  0.1049
 4941TIP3   OH214775   3.144   5.067   1.042  0.0300 -0.5521 -0.3320
 4941TIP3    H114776   3.181   4.984   1.071  1.0718  0.0849  0.1712
 4941TIP3    H214777   3.172   5.131   1.108 -0.3656  0.2925 -0.9623
 4942TIP3   OH214778   5.033   6.769   0.626 -0.4141 -0.0398  0.0500
 4942TIP3    H114779   5.090   6.802   0.695 -1.7438  0.4181  0.9577
 4942TIP3    H214780   4.945   6.772   0.664 -0.9317 -1.6714 -0.9664
 4943TIP3   OH214781   5.317   0.327   0.205  0.3076 -0.3440  0.1051
 4943TIP3    H114782   5.386   0.393   0.198 -0.6730  0.6300 -0.5123
 4943TIP3    H214783   5.236   0.376   0.192 -0.5883 -1.2822  1.8966
 4944TIP3   OH214784   3.715   5.096   1.720 -0.0259  0.0971  0.4996
 4944TIP3    H114785   3.777   5.118   1.650 -1.4385  0.6396 -0.6282
 4944TIP3    H214786   3.687   5.180   1.755 -1.4408 -0.0605 -0.2090
 4945TIP3   OH214787   4.413   5.155   1.608 -0.1949 -0.3657  0.0798
 4945TIP3    H114788   4.411   5.207   1.528 -1.0677 -1.7848 -0.8471
 4945TIP3    H214789   4.504   5.163   1.640  0.8443 -1.7420 -2.3971
 4946TIP3   OH214790   6.006   0.495   1.725  0.0629  0.0409 -0.3889
 4946TIP3    H114791   6.033   0.416   1.772 -0.7540 -0.3740 -0.6072
 4946TIP3    H214792   5.997   0.467   1.634 -0.1251  0.4096 -0.4824
 4947TIP3   OH214793   5.086   6.702   2.878 -0.1748 -0.2234 -0.8070
 4947TIP3    H114794   5.155   6.673   2.819  2.8439  1.3560  1.7796
 4947TIP3    H214795   5.074   6.629   2.939  2.3985  1.0529  1.3673
 4948TIP3   OH214796   3.933   5.572   1.336 -0.0973  0.3631  0.0908
 4948TIP3    H114797   3.905   5.507   1.401  0.1806  0.6384  0.4872
 4948TIP3    H214798   4.009   5.614   1.375 -0.1408  0.7765 -0.2662
 4949TIP3   OH214799   0.075   0.137   1.117  0.7316  0.6014  0.2751
 4949TIP3    H114800   0.144   0.191   1.078  0.6756  1.5777  1.4831
 4949TIP3    H214801   0.005   0.137   1.052  0.4463  2.6246  0.5508
 4950TIP3   OH214802   3.190   5.717   0.340  0.3792  0.3438 -0.4500
 4950TIP3    H114803   3.254   5.664   0.388  1.5354  2.0297 -0.0817
 4950TIP3    H214804   3.113   5.717   0.396  0.5536 -0.4760 -0.1953
 4951TIP3   OH214805   1.922   3.238   6.192 -0.5556  0.4833  1.0151
 4951TIP3    H114806   1.984   3.284   6.249  1.0651 -0.8341  0.3531
 4951TIP3    H214807   1.903   3.156   6.237 -0.6981  0.2394  0.5219
 4952TIP3   OH214808   6.481   5.836   0.809  0.8046 -0.2243  0.6704
 4952TIP3    H114809   6.506   5.812   0.720 -2.0114  0.3986 -0.3456
 4952TIP3    H214810   6.436   5.759   0.844 -2.7827  1.2694 -0.4079
 4953TIP3   OH214811   5.203   5.868   1.935 -0.6106  0.5399  0.5567
 4953TIP3    H114812   5.108   5.881   1.941 -0.5552  0.5662  1.4478
 4953TIP3    H214813   5.240   5.953   1.959 -0.3605  0.6254 -0.1139
 4954TIP3   OH214814   2.118   4.762   6.216  0.1590 -0.5855 -0.2073
 4954TIP3    H114815   2.137   4.778   6.309  2.2635 -1.5832 -0.4533
 4954TIP3    H214816   2.038   4.812   6.200  0.5334  0.7385  1.7992
 4955TIP3   OH214817   4.349   7.427   4.200  0.2563  0.4169 -0.1929
 4955TIP3    H114818   4.403   7.506   4.193 -0.1681  0.5407 -2.2021
 4955TIP3    H214819   4.390   7.365   4.140  0.9484 -1.1310  1.8285
 4956TIP3   OH214820   4.197   4.404   0.683 -0.1001  0.3087  0.4904
 4956TIP3    H114821   4.172   4.470   0.748  0.2454  0.9585 -0.0276
 4956TIP3    H214822   4.292   4.412   0.676 -0.3560  1.7152 -1.6529
 4957TIP3   OH214823   1.213   4.450   5.892  0.5564 -0.3802 -0.5811
 4957TIP3    H114824   1.165   4.378   5.932  2.7976 -1.5833  0.0133
 4957TIP3    H214825   1.219   4.517   5.960 -1.1062  0.2033 -0.9793
 4958TIP3   OH214826   1.771   4.610   1.198  0.1340  0.0197  0.3730
 4958TIP3    H114827   1.827   4.540   1.230  0.4223 -0.4853 -1.1708
 4958TIP3    H214828   1.823   4.653   1.130 -1.0247  0.0413 -0.5396
 4959TIP3   OH214829   4.535   7.138   1.774  0.2890 -0.1195  0.2640
 4959TIP3    H114830   4.543   7.226   1.736  0.9999 -0.1384  0.3498
 4959TIP3    H214831   4.443   7.129   1.797  0.1471  0.4734 -0.0677
 4960TIP3   OH214832   4.756   4.908   1.782 -0.5274 -0.2451  0.2714
 4960TIP3    H114833   4.747   4.976   1.716  0.4312 -0.7775 -0.4237
 4960TIP3    H214834   4.666   4.881   1.801 -0.7855 -0.3972 -1.1409
 4961TIP3   OH214835   0.976   3.144   6.095  0.6472  0.5956 -0.3184
 4961TIP3    H114836   0.970   3.056   6.059  0.7221  0.8027 -0.8460
 4961TIP3    H214837   0.925   3.198   6.035 -0.1596  0.7621  0.5148
 4962TIP3   OH214838   1.759   3.958   6.149  0.4451 -0.0356  0.0764
 4962TIP3    H114839   1.819   3.885   6.133  1.8410  1.1016  0.0232
 4962TIP3    H214840   1.812   4.036   6.131 -1.1005  0.9784 -0.1065
 4963TIP3   OH214841   4.604   6.690   1.834  0.1650 -0.3143  0.5692
 4963TIP3    H114842   4.524   6.655   1.874  0.1530 -0.4448  0.4301
 4963TIP3    H214843   4.657   6.613   1.814  0.4102 -0.2169  0.8351
 4964TIP3   OH214844   2.460   7.040   1.707 -0.5294  0.0331 -0.1623
 4964TIP3    H114845   2.541   7.007   1.746 -0.1572 -0.0669 -1.0173
 4964TIP3    H214846   2.451   6.992   1.625 -0.9408  0.7390 -0.5385
 4965TIP3   OH214847   4.879   3.127   0.713 -0.4698 -0.3034 -0.0064
 4965TIP3    H114848   4.949   3.183   0.748 -0.9629 -0.0674  0.6190
 4965TIP3    H214849   4.811   3.188   0.685  0.2678 -0.4410 -2.2088
 4966TIP3   OH214850   7.494   2.016   1.610  0.4510  0.1089 -0.1198
 4966TIP3    H114851   7.451   2.048   1.531 -0.0666  0.8961  0.4763
 4966TIP3    H214852   7.466   1.925   1.617  0.2583  0.1246 -0.6736
 4967TIP3   OH214853   3.264   3.030   1.520 -0.4578 -0.0920 -0.1580
 4967TIP3    H114854   3.297   2.952   1.564 -1.8464 -0.2041  0.6908
 4967TIP3    H214855   3.219   2.998   1.442  0.7012  0.0175 -0.9054
 4968TIP3   OH214856   5.597   6.193   2.564 -0.1277 -0.4108 -0.0869
 4968TIP3    H114857   5.505   6.218   2.563  0.3290  1.3526 -0.0369
 4968TIP3    H214858   5.623   6.191   2.472  0.6797  2.7128 -0.0003
 4969TIP3   OH214859   4.747   5.705   3.143 -0.5050  0.0315  0.4082
 4969TIP3    H114860   4.737   5.720   3.237 -2.2969 -0.3607  0.2930
 4969TIP3    H214861   4.732   5.790   3.103  1.0037  0.3579  0.5160
 4970TIP3   OH214862   3.671   6.303   0.047 -0.0131 -0.3309  0.6708
 4970TIP3    H114863   3.644   6.331   0.135 -0.9022  0.6044  0.1024
 4970TIP3    H214864   3.723   6.376   0.014 -1.7006  0.3534 -0.5228
 4971TIP3   OH214865   5.265   6.060   1.300 -0.4787  0.0398 -0.2267
 4971TIP3    H114866   5.199   6.125   1.274  1.0950  1.2127 -1.4319
 4971TIP3    H214867   5.344   6.112   1.315  0.1387 -1.3305  1.3422
 4972TIP3   OH214868   0.798   0.937   0.966  0.4844 -0.2574  0.1188
 4972TIP3    H114869   0.802   0.868   0.900 -0.5970  0.2627 -0.5003
 4972TIP3    H214870   0.878   0.926   1.017  0.1919 -2.1392  0.2001
 4973TIP3   OH214871   4.650   4.903   0.920  0.1716 -0.3105 -0.1483
 4973TIP3    H114872   4.600   4.914   1.000  1.4844 -1.2700  0.8183
 4973TIP3    H214873   4.610   4.964   0.858  1.0297  2.6224  2.1168
 4974TIP3   OH214874   4.450   3.905   2.151  0.6913  0.2734  0.3028
 4974TIP3    H114875   4.499   3.833   2.190  1.1986  0.9114  0.8540
 4974TIP3    H214876   4.423   3.872   2.065  0.8231 -0.6092  0.5954
 4975TIP3   OH214877   3.342   6.205   3.022 -0.3324 -0.1359 -0.3907
 4975TIP3    H114878   3.381   6.276   2.971 -2.4627  1.0874 -0.3920
 4975TIP3    H214879   3.270   6.172   2.968 -0.5046 -1.0635  0.3810
 4976TIP3   OH214880   7.339   2.037   4.669 -0.3953  0.0546 -0.0351
 4976TIP3    H114881   7.343   1.956   4.719  1.7632 -0.5181 -1.0813
 4976TIP3    H214882   7.353   2.106   4.735  0.3040 -0.5709  0.4834
 4977TIP3   OH214883   6.343   0.540   0.418  0.0631 -0.4005  0.0057
 4977TIP3    H114884   6.410   0.550   0.486  1.2976 -1.8626 -0.9230
 4977TIP3    H214885   6.327   0.445   0.414  0.7078 -0.4659 -2.3331
 4978TIP3   OH214886   3.216   6.269   2.230  0.3880  0.1086 -0.0561
 4978TIP3    H114887   3.219   6.276   2.135  0.0562 -1.8892 -0.2334
 4978TIP3    H214888   3.125   6.250   2.250  0.6160 -0.3177  0.5999
 4979TIP3   OH214889   4.485   5.992   1.717 -0.3135 -0.4083  0.3207
 4979TIP3    H114890   4.455   5.993   1.626 -3.3767 -0.0137  1.2706
 4979TIP3    H214891   4.507   5.900   1.734 -0.5874 -0.6461 -0.5656
 4980TIP3   OH214892   7.096   1.091   2.708  0.0531  0.2396 -0.2567
 4980TIP3    H114893   7.114   1.113   2.617  1.9796  0.9780  0.2914
 4980TIP3    H214894   7.174   1.119   2.756 -1.2375  0.5480  1.7303
 4981TIP3   OH214895   4.866   7.206   3.100 -0.1179 -0.0163 -0.0119
 4981TIP3    H114896   4.802   7.176   3.165  0.3462  0.3139  0.6081
 4981TIP3    H214897   4.853   7.301   3.096  1.6001  0.3060  1.5158
 4982TIP3   OH214898   3.635   6.478   3.208  0.4745 -0.3204 -0.6737
 4982TIP3    H114899   3.555   6.447   3.252 -0.9713  4.6228  0.4602
 4982TIP3    H214900   3.700   6.483   3.277 -0.4879  2.9767  0.0768
 4983TIP3   OH214901   5.142   5.564   2.434 -0.1730  0.2582 -0.5682
 4983TIP3    H114902   5.211   5.630   2.428 -0.1338  0.3390  0.6739
 4983TIP3    H214903   5.104   5.560   2.346 -0.9511  2.7710 -0.3731
 4984TIP3   OH214904   4.495   5.171   3.817  0.3467  0.5588  0.4945
 4984TIP3    H114905   4.522   5.093   3.866 -2.5203 -1.7035 -1.3233
 4984TIP3    H214906   4.427   5.211   3.871  0.2436  0.5333  0.3838
 4985TIP3   OH214907   5.669   6.675   0.981  0.0320 -0.1833  0.0141
 4985TIP3    H114908   5.714   6.743   0.932 -0.1808  0.0634  0.1565
 4985TIP3    H214909   5.578   6.679   0.950 -0.1917  0.2467  0.7204
 4986TIP3   OH214910   7.081   5.647   3.176 -0.1979  0.0335  0.7024
 4986TIP3    H114911   7.018   5.716   3.197 -1.5099 -1.1989  0.9143
 4986TIP3    H214912   7.094   5.654   3.081  0.1680  0.9681  0.8180
 4987TIP3   OH214913   3.404   7.260   2.234 -0.2925  0.3637 -0.4439
 4987TIP3    H114914   3.375   7.340   2.191 -2.9834 -0.2659  0.1350
 4987TIP3    H214915   3.424   7.200   2.162 -1.1087  0.5947 -0.8683
 4988TIP3   OH214916   5.578   7.403   4.021 -0.1423 -0.3030  0.2410
 4988TIP3    H114917   5.585   7.342   4.094  0.5361 -0.6954 -0.1473
 4988TIP3    H214918   5.486   7.430   4.020 -0.2354 -0.5827  1.0012
 4989TIP3   OH214919   7.860   4.325   3.559 -0.1787 -0.6764 -0.3741
 4989TIP3    H114920   7.782   4.373   3.531  0.9446  2.6856  2.0125
 4989TIP3    H214921   7.925   4.344   3.491  0.0710  0.7424  0.2408
 4990TIP3   OH214922   6.715   2.615   3.480 -0.3924 -0.1048  0.4090
 4990TIP3    H114923   6.779   2.546   3.495 -0.2058  0.0306  0.2439
 4990TIP3    H214924   6.759   2.676   3.420 -0.2027  0.6411  1.2993
 4991TIP3   OH214925   7.805   0.110   2.249  0.1568 -0.0558  0.0753
 4991TIP3    H114926   7.878   0.093   2.189  0.0056 -1.9219  0.4011
 4991TIP3    H214927   7.845   0.154   2.324  0.5410  1.1647 -0.8370
 4992TIP3   OH214928   5.625   2.579   1.396  0.1640  0.0564  0.5497
 4992TIP3    H114929   5.533   2.597   1.414  0.0298 -2.7403  2.9875
 4992TIP3    H214930   5.624   2.525   1.317 -0.1579  1.0175 -0.1190
 4993TIP3   OH214931   1.183   3.353   1.100 -0.4838  0.1486 -0.1507
 4993TIP3    H114932   1.206   3.278   1.154  2.3238  0.6238 -0.6450
 4993TIP3    H214933   1.164   3.423   1.163  2.7098  0.6856  0.2520
 4994TIP3   OH214934   6.374   6.785   2.910  0.0710 -0.0207  0.2902
 4994TIP3    H114935   6.364   6.867   2.861  1.9130  0.7450  1.1312
 4994TIP3    H214936   6.363   6.811   3.001 -0.1139 -0.8586  0.5098
 4995TIP3   OH214937   3.506   6.953   0.154 -0.5595  0.4269 -0.3796
 4995TIP3    H114938   3.492   6.894   0.080  1.0362  0.9067 -1.0812
 4995TIP3    H214939   3.530   7.037   0.114 -1.3347  1.1501  0.6436
 4996TIP3   OH214940   3.114   5.840   1.980 -0.1684 -0.3354  0.2075
 4996TIP3    H114941   3.147   5.875   1.897 -0.5118 -0.4364  0.0268
 4996TIP3    H214942   3.069   5.760   1.956 -0.0379 -0.5078  0.5295
 4997TIP3   OH214943   4.109   5.940   5.199 -0.0634 -0.1156 -0.2819
 4997TIP3    H114944   4.171   5.880   5.158 -0.5659 -1.0516  0.3017
 4997TIP3    H214945   4.074   5.992   5.127 -0.5455 -1.3769 -0.9588
 4998TIP3   OH214946   4.020   4.625   1.411 -0.1346 -0.3029  0.0526
 4998TIP3    H114947   3.991   4.656   1.325 -0.6507 -0.5988  0.1197
 4998TIP3    H214948   4.048   4.704   1.457  1.3431 -0.2705 -0.8348
 4999TIP3   OH214949   7.338   6.409   0.839 -0.9507  0.2985  0.2375
 4999TIP3    H114950   7.320   6.402   0.746 -0.9989  0.0015  0.2693
 4999TIP3    H214951   7.393   6.333   0.859 -0.1117  0.9057  0.2531
 5000TIP3   OH214952   6.912   4.100   5.486  0.7356  0.2049 -0.2098
 5000TIP3    H114953   6.894   4.140   5.401  0.5459  1.7445  0.5445
 5000TIP3    H214954   6.830   4.107   5.534  0.0778 -2.9489 -0.7619
 5001TIP3   OH214955   3.116   5.676   1.274  0.5251 -0.1245 -0.0005
 5001TIP3    H114956   3.189   5.737   1.266  0.8214 -0.5954 -0.8816
 5001TIP3    H214957   3.068   5.685   1.192 -0.9621  0.8923  0.9611
 5002TIP3   OH214958   0.751   2.327   5.588  0.1298 -0.4358 -0.7528
 5002TIP3    H114959   0.667   2.354   5.625  0.8620 -1.1836  1.5433
 5002TIP3    H214960   0.732   2.305   5.497 -1.3902  3.2157 -1.4183
 5003TIP3   OH214961   5.489   5.058   0.663  0.4367  0.0371  0.0570
 5003TIP3    H114962   5.494   4.971   0.623  1.3789 -0.0627  0.3924
 5003TIP3    H214963   5.415   5.100   0.619  0.1482 -0.8329 -0.3000
 5004TIP3   OH214964   3.340   4.678   0.565  0.1890 -0.2035  0.0418
 5004TIP3    H114965   3.361   4.703   0.655  0.2832  0.0615 -0.0522
 5004TIP3    H214966   3.425   4.653   0.527  0.3547  0.9461 -0.3628
 5005TIP3   OH214967   2.936   0.487   1.920  0.3212 -0.3676 -0.6086
 5005TIP3    H114968   2.889   0.403   1.909  1.4067 -1.0658  0.0515
 5005TIP3    H214969   2.868   0.548   1.948 -0.3806 -1.1498 -0.5553
 5006TIP3   OH214970   4.926   6.430   2.880  0.0711  0.0146  0.4197
 5006TIP3    H114971   4.831   6.428   2.870  0.2444  0.3746 -1.4031
 5006TIP3    H214972   4.940   6.437   2.974 -1.7073  0.0802  0.6898
 5007TIP3   OH214973   7.154   5.912   2.924 -0.8127  0.0074  0.4933
 5007TIP3    H114974   7.193   5.987   2.879 -1.5152 -0.4848 -0.9788
 5007TIP3    H214975   7.074   5.893   2.875 -2.4080  0.3861  2.8771
 5008TIP3   OH214976   5.734   6.887   2.998  0.2649 -0.2030  0.1661
 5008TIP3    H114977   5.760   6.956   2.936 -0.2477  0.2419  0.4392
 5008TIP3    H214978   5.808   6.879   3.058  0.4532 -0.1055 -0.0525
 5009TIP3   OH214979   3.667   6.103   0.416 -0.8033 -0.7235  0.0795
 5009TIP3    H114980   3.672   6.051   0.336 -0.3869 -0.4497 -0.0725
 5009TIP3    H214981   3.621   6.183   0.390  1.0438  0.2211 -0.3373
 5010TIP3   OH214982   2.748   0.286   5.085  0.1030 -0.0242 -0.6752
 5010TIP3    H114983   2.758   0.196   5.117 -0.2116 -0.3172 -1.3998
 5010TIP3    H214984   2.681   0.324   5.143  0.5376 -0.1283 -0.1026
 5011TIP3   OH214985   7.906   1.819   6.125 -0.1719 -0.0308 -0.1241
 5011TIP3    H114986   7.821   1.776   6.134 -0.1589  0.0049  0.1821
 5011TIP3    H214987   7.925   1.853   6.213 -1.0974  2.3218 -0.8068
 5012TIP3   OH214988   7.300   1.206   5.636 -0.2841 -0.0882 -0.3925
 5012TIP3    H114989   7.205   1.199   5.636 -0.2347 -1.0145 -1.5122
 5012TIP3    H214990   7.330   1.118   5.612  0.8408  0.2563 -0.2711
 5013TIP3   OH214991   6.986   6.078   5.350 -0.8366 -0.1664 -0.5602
 5013TIP3    H114992   7.038   6.158   5.356 -1.0490 -0.0008 -0.8835
 5013TIP3    H214993   7.047   6.008   5.372 -0.6416  0.0811 -0.3010
 5014TIP3   OH214994   6.975   6.361   5.178 -0.2272  0.7796 -0.3193
 5014TIP3    H114995   6.926   6.392   5.255 -0.3024 -0.0991 -0.0013
 5014TIP3    H214996   6.908   6.319   5.123  0.1664 -0.5480  0.1800
 5015TIP3   OH214997   1.662   2.685   4.971 -0.2926  0.2534  0.5501
 5015TIP3    H114998   1.610   2.757   4.937 -1.6494 -1.1742 -0.4874
 5015TIP3    H214999   1.680   2.630   4.895  1.4530 -0.0621  1.1694
 5016TIP3   OH215000   2.393   0.267   2.768  0.7208 -0.1715  0.1336
 5016TIP3    H115001   2.345   0.350   2.774  0.3337 -0.3902  0.1050
 5016TIP3    H215002   2.387   0.229   2.856  2.2365  0.5603  0.5744
 5017TIP3   OH215003   0.135   7.341   3.999  0.2804 -0.1974 -0.0543
 5017TIP3    H115004   0.206   7.298   3.951  0.3232 -0.0488 -0.1266
 5017TIP3    H215005   0.172   7.359   4.085  0.4467  0.1834 -0.2001
 5018TIP3   OH215006   5.074   3.238   0.426 -0.2208  0.2416  0.2395
 5018TIP3    H115007   5.141   3.305   0.437  0.4060 -0.6220  1.8262
 5018TIP3    H215008   4.993   3.286   0.408  0.5868  1.3363 -0.4892
 5019TIP3   OH215009   6.224   7.007   6.157 -0.0221  0.0831 -0.0587
 5019TIP3    H115010   6.133   7.030   6.135 -0.7044 -0.0698  2.3882
 5019TIP3    H215011   6.229   6.913   6.141  0.2165  0.3865 -1.8194
 5020TIP3   OH215012   2.608   1.155   5.997 -0.1287  0.2297  0.0418
 5020TIP3    H115013   2.514   1.161   5.980 -0.0141 -1.9499 -1.6690
 5020TIP3    H215014   2.644   1.115   5.918  2.0249 -0.3169  1.2534
 5021TIP3   OH215015   5.690   4.372   1.137 -0.3610 -0.9368  0.7038
 5021TIP3    H115016   5.614   4.425   1.161  1.9575  3.0284 -0.2813
 5021TIP3    H215017   5.671   4.342   1.048 -0.1440  1.3873 -0.1603
 5022TIP3   OH215018   2.779   1.392   5.966 -0.1035  0.3105  0.8099
 5022TIP3    H115019   2.703   1.445   5.942  0.1962  0.5309  0.3554
 5022TIP3    H215020   2.854   1.438   5.927  0.2193 -0.1293  0.9108
 5023TIP3   OH215021   6.585   7.352   6.130  0.0398 -0.0634 -0.1444
 5023TIP3    H115022   6.515   7.301   6.170  0.1225 -0.3368 -0.3526
 5023TIP3    H215023   6.658   7.347   6.193 -1.1651  2.7966  1.5639
 5024TIP3   OH215024   4.185   0.117   3.015 -0.7471 -0.0252 -0.1607
 5024TIP3    H115025   4.278   0.138   3.027 -0.5771 -0.7927 -0.1114
 5024TIP3    H215026   4.156   0.090   3.102 -1.3964  1.6616  0.1600
 5025TIP3   OH215027   6.031   3.683   2.196 -0.1072 -0.4124  0.2574
 5025TIP3    H115028   6.104   3.734   2.161 -0.2887 -0.2586  0.1080
 5025TIP3    H215029   5.956   3.708   2.143 -0.0400 -1.4040 -0.3143
 5026TIP3   OH215030   1.102   0.546   5.433 -0.3825 -0.0149 -0.3411
 5026TIP3    H115031   1.113   0.559   5.527 -0.9229  0.5239 -0.3529
 5026TIP3    H215032   1.094   0.451   5.422  1.4576 -0.2368 -0.0370
 5027TIP3   OH215033   2.155   1.775   5.129  0.2941 -0.4470 -0.3515
 5027TIP3    H115034   2.223   1.797   5.192  1.4110  1.2937 -2.0874
 5027TIP3    H215035   2.133   1.684   5.147 -0.3911  0.3911  3.3772
 5028TIP3   OH215036   0.821   0.057   5.843  0.5011  0.1114 -0.4711
 5028TIP3    H115037   0.844   0.133   5.790 -0.0004  0.5176 -0.1084
 5028TIP3    H215038   0.891   0.050   5.907 -0.0172  0.9165  0.1804
 5029TIP3   OH215039   2.183   2.202   2.992  0.4469 -0.5137 -0.1202
 5029TIP3    H115040   2.157   2.283   3.037 -1.6758 -0.9476 -0.5082
 5029TIP3    H215041   2.238   2.156   3.055  0.6233  0.6357  0.5812
 5030TIP3   OH215042   6.041   1.300   0.132  0.0168 -0.3338 -0.1503
 5030TIP3    H115043   6.072   1.386   0.103  0.3994 -0.2636  0.4706
 5030TIP3    H215044   6.084   1.239   0.072 -0.6307 -0.0731 -0.9048
 5031TIP3   OH215045   4.194   4.757   0.409 -0.6439  0.3050  0.0434
 5031TIP3    H115046   4.209   4.774   0.317 -2.2115  0.2313 -0.2374
 5031TIP3    H215047   4.151   4.671   0.411 -2.2873  1.1263  0.6941
 5032TIP3   OH215048   7.102   7.184   6.062 -0.2747  0.4102  0.4048
 5032TIP3    H115049   7.120   7.153   6.151 -1.2034  0.9896  0.8027
 5032TIP3    H215050   7.106   7.279   6.069 -1.8853  0.5084  0.1665
 5033TIP3   OH215051   3.370   1.191   4.026 -0.2855 -0.8447  0.3111
 5033TIP3    H115052   3.336   1.279   4.043  0.0234 -0.5620 -0.4960
 5033TIP3    H215053   3.462   1.206   4.002 -0.0221 -1.4569  0.9244
 5034TIP3   OH215054   0.265   5.261   2.110 -0.4858  0.1988  0.1998
 5034TIP3    H115055   0.344   5.300   2.148 -0.0687 -0.3766 -0.0583
 5034TIP3    H215056   0.192   5.300   2.158  0.0129 -0.2068  1.2998
 5035TIP3   OH215057   4.825   4.653   0.721  0.3305 -0.5267  0.2333
 5035TIP3    H115058   4.755   4.634   0.783  0.1742  1.9752  0.8682
 5035TIP3    H215059   4.793   4.727   0.669  2.5695  0.8146  0.6888
 5036TIP3   OH215060   1.818   0.373   6.371  0.6591 -0.4549  0.1735
 5036TIP3    H115061   1.728   0.401   6.387  1.1519  1.8363 -0.8589
 5036TIP3    H215062   1.810   0.283   6.339 -1.1561 -0.7364  1.3370
 5037TIP3   OH215063   0.283   3.131   2.741  0.3503 -0.1461  0.3136
 5037TIP3    H115064   0.259   3.220   2.767 -2.6959 -1.7708  3.3730
 5037TIP3    H215065   0.328   3.095   2.818 -0.3912 -1.9484 -0.0669
 5038TIP3   OH215066   2.346   0.016   4.715 -0.1400  0.3114  0.1363
 5038TIP3    H115067   2.298   0.027   4.633  1.2964 -0.4182 -0.8102
 5038TIP3    H215068   2.376   0.105   4.737  0.2648  0.3568 -0.6037
 5039TIP3   OH215069   6.614   2.220   2.818 -0.1712 -0.8761 -0.3263
 5039TIP3    H115070   6.704   2.209   2.788  0.2966  0.5652  0.5032
 5039TIP3    H215071   6.585   2.131   2.838  1.4304 -1.2531  0.4184
 5040TIP3   OH215072   2.497   0.609   4.286  0.4525 -0.1255 -0.0279
 5040TIP3    H115073   2.406   0.625   4.311 -0.9262 -1.2787 -3.9034
 5040TIP3    H215074   2.536   0.696   4.280  0.0044  0.3266  2.8193
 5041TIP3   OH215075   5.931   7.191   4.852 -0.1930 -0.3930 -0.2229
 5041TIP3    H115076   5.942   7.244   4.931 -0.5343 -1.7695  0.7675
 5041TIP3    H215077   5.837   7.197   4.832 -0.0923  0.0279 -0.5934
 5042TIP3   OH215078   0.851   7.122   5.897 -0.1141 -0.4249 -0.7335
 5042TIP3    H115079   0.818   7.061   5.831 -2.1443  0.9608 -1.0724
 5042TIP3    H215080   0.850   7.207   5.853  0.1941  0.2407  0.5291
 5043TIP3   OH215081   2.925   1.113   5.986  0.2771 -0.1761 -0.0472
 5043TIP3    H115082   2.927   1.018   5.973  0.5437 -0.0684 -0.8460
 5043TIP3    H215083   3.017   1.137   5.996  0.2225  0.0258 -0.0383
 5044TIP3   OH215084   7.811   2.211   2.595  0.2121 -0.4394  0.0640
 5044TIP3    H115085   7.756   2.285   2.569 -1.8321 -2.5654 -1.8011
 5044TIP3    H215086   7.854   2.183   2.515  0.7257 -1.4852  0.6887
 5045TIP3   OH215087   0.805   6.508   5.863 -0.2847 -0.3356 -0.2280
 5045TIP3    H115088   0.747   6.445   5.819  2.0064 -2.0147 -0.9466
 5045TIP3    H215089   0.891   6.494   5.823  0.7812  1.6291  1.2779
 5046TIP3   OH215090   2.298   3.976   0.338 -0.6776 -0.8185  0.0900
 5046TIP3    H115091   2.296   3.904   0.275 -0.8528 -0.6225 -0.1313
 5046TIP3    H215092   2.241   3.949   0.409  0.1896 -1.4118  0.5720
 5047TIP3   OH215093   5.484   4.093   0.448  0.1891  0.4746 -0.3255
 5047TIP3    H115094   5.530   4.091   0.532 -2.3945 -0.2668  1.1368
 5047TIP3    H215095   5.419   4.163   0.458  0.2122  0.7413 -1.9209
 5048TIP3   OH215096   7.497   6.991   4.495 -0.3049  0.1399 -0.2147
 5048TIP3    H115097   7.550   7.061   4.533  1.1091 -1.0745  0.0710
 5048TIP3    H215098   7.520   6.991   4.403 -1.1716  0.7899 -0.4457
 5049TIP3   OH215099   2.609   1.350   5.214 -0.3295 -0.4039 -0.3090
 5049TIP3    H115100   2.681   1.289   5.198  0.1902  0.1193  0.0144
 5049TIP3    H215101   2.652   1.433   5.237 -1.0277 -0.7970  2.5895
 5050TIP3   OH215102   6.864   6.180   6.039  0.3369 -0.4102  0.1682
 5050TIP3    H115103   6.841   6.252   6.098  0.6963 -0.7925  0.7817
 5050TIP3    H215104   6.905   6.223   5.964  2.6192 -0.1231  1.5499
 5051TIP3   OH215105   1.541   0.064   5.722  0.2555 -0.0041 -0.2837
 5051TIP3    H115106   1.472   0.115   5.764  1.2967  0.9036  0.3486
 5051TIP3    H215107   1.620   0.116   5.734  0.6426  0.1668 -3.1248
 5052TIP3   OH215108   0.140   6.973   4.672  0.0589 -0.4963 -0.3010
 5052TIP3    H115109   0.113   6.995   4.762 -0.0735  1.0867 -0.7090
 5052TIP3    H215110   0.094   7.037   4.617  0.8845 -0.8417 -1.4183
 5053TIP3   OH215111   0.718   0.324   5.443 -0.0994 -0.8628  0.1211
 5053TIP3    H115112   0.634   0.305   5.486 -0.6197 -2.2630 -1.4544
 5053TIP3    H215113   0.783   0.288   5.503 -0.4496  2.1056  2.3839
 5054TIP3   OH215114   1.269   0.461   6.099  0.8190 -0.1001 -0.5450
 5054TIP3    H115115   1.298   0.439   6.188 -1.3655 -1.2106 -0.0721
 5054TIP3    H215116   1.245   0.553   6.104 -2.0641 -0.8497  0.8427
 5055TIP3   OH215117   5.277   3.911   0.328  0.3300  0.4497 -0.6642
 5055TIP3    H115118   5.349   3.964   0.363  0.6892 -1.1402  1.0966
 5055TIP3    H215119   5.319   3.848   0.270  0.2494  0.1140 -0.3575
 5056TIP3   OH215120   2.994   2.755   0.547  0.5442 -1.0803  0.6063
 5056TIP3    H115121   3.065   2.817   0.532 -0.9549  0.1446 -1.7752
 5056TIP3    H215122   2.955   2.781   0.630  1.0541  0.0369  0.4979
 5057TIP3   OH215123   3.203   2.743   0.095  0.8347  0.0004  0.1241
 5057TIP3    H115124   3.215   2.723   0.002  0.1451 -3.4801  0.7034
 5057TIP3    H215125   3.284   2.714   0.137  0.6821  0.4829  0.7579
 5058TIP3   OH215126   7.505   1.809   5.746 -1.0174 -0.1420  0.2387
 5058TIP3    H115127   7.594   1.790   5.775 -0.1477  1.4448 -1.2850
 5058TIP3    H215128   7.461   1.843   5.824 -0.1676 -0.5145  0.8887
 5059TIP3   OH215129   1.322   0.412   5.278 -0.4702 -0.1405 -0.0094
 5059TIP3    H115130   1.310   0.362   5.197  1.2944  3.3233 -2.5417
 5059TIP3    H215131   1.261   0.485   5.270  1.2895  1.4481  0.7397
 5060TIP3   OH215132   0.899   1.386   4.967  0.0800  0.0963  0.0742
 5060TIP3    H115133   0.991   1.414   4.963  0.2035  0.4225  3.4733
 5060TIP3    H215134   0.850   1.468   4.968 -0.2806 -0.0827 -1.8754
 5061TIP3   OH215135   6.341   3.795   0.619 -0.2758 -0.0769  0.0451
 5061TIP3    H115136   6.389   3.745   0.685 -0.0687  1.2477  0.9114
 5061TIP3    H215137   6.389   3.779   0.537 -0.3837 -1.5167  0.2553
 5062TIP3   OH215138   3.560   1.697   5.197  0.1867  0.4986 -0.2603
 5062TIP3    H115139   3.637   1.681   5.251  0.2604  0.1134 -0.4763
 5062TIP3    H215140   3.501   1.746   5.254  0.1138 -0.2226  0.2945
 5063TIP3   OH215141   4.721   5.294   2.623  0.4732  0.4099 -0.0778
 5063TIP3    H115142   4.629   5.279   2.645  0.3999  0.6329 -0.2272
 5063TIP3    H215143   4.723   5.384   2.590  1.0741  1.0638  1.6749
 5064TIP3   OH215144   0.256   1.780   6.476  0.2001  0.1480  0.0085
 5064TIP3    H115145   0.275   1.698   6.431 -0.7584 -0.0071 -0.1192
 5064TIP3    H215146   0.173   1.810   6.437  0.5948  1.2174 -0.0147
 5065TIP3   OH215147   1.098   6.650   5.974 -0.0936 -0.2171  0.2628
 5065TIP3    H115148   1.142   6.735   5.976 -1.2942  0.4384 -0.8229
 5065TIP3    H215149   1.094   6.622   6.066 -0.1787  1.1339  0.6721
 5066TIP3   OH215150   2.025   6.959   3.633 -0.1742  0.2508 -0.0518
 5066TIP3    H115151   2.100   6.934   3.578  1.3346  0.7829  1.7022
 5066TIP3    H215152   2.000   7.046   3.602  0.7813  0.6189  0.1877
 5067TIP3   OH215153   0.781   6.846   5.222  0.0890 -0.6102 -0.8724
 5067TIP3    H115154   0.851   6.858   5.158  0.6159  0.8188 -0.0629
 5067TIP3    H215155   0.802   6.763   5.265  3.6352  1.6164  2.1178
 5068TIP3   OH215156   6.824   2.722   2.416  0.1614 -0.0407 -0.5590
 5068TIP3    H115157   6.746   2.752   2.370 -0.2194  0.4650  0.3950
 5068TIP3    H215158   6.827   2.775   2.496  0.6075 -1.1413  0.1742
 5069TIP3   OH215159   3.477   0.694   5.296  0.2802 -0.5136  0.3319
 5069TIP3    H115160   3.427   0.670   5.374  0.1999 -1.5679 -0.0361
 5069TIP3    H215161   3.563   0.654   5.309  0.2469 -0.7510 -0.1389
 5070TIP3   OH215162   3.997   2.083   5.496 -0.5411  0.1072 -0.4239
 5070TIP3    H115163   4.084   2.106   5.529 -0.4120  1.0124 -1.3765
 5070TIP3    H215164   3.968   2.013   5.554  1.3608 -1.1061 -0.8778
 5071TIP3   OH215165   7.809   6.880   5.418 -0.1563 -0.2300 -0.2243
 5071TIP3    H115166   7.757   6.857   5.495  0.7931 -0.3226  0.4012
 5071TIP3    H215167   7.758   6.849   5.344 -2.8548  3.0699  0.1108
 5072TIP3   OH215168   0.933   1.209   5.192 -0.3571 -0.7401 -0.2119
 5072TIP3    H115169   0.897   1.281   5.139 -1.6778 -2.4380 -1.6842
 5072TIP3    H215170   0.913   1.130   5.141  0.0661 -2.2558  1.9234
 5073TIP3   OH215171   3.729   1.683   4.543 -0.8077  0.1855 -0.1298
 5073TIP3    H115172   3.671   1.720   4.477  1.4269  2.3122 -0.9487
 5073TIP3    H215173   3.703   1.727   4.624  0.0478  1.6332 -0.6165
 5074TIP3   OH215174   5.705   7.172   5.557  0.2595  0.3804 -0.1113
 5074TIP3    H115175   5.790   7.147   5.521  0.4439  0.1812  0.4498
 5074TIP3    H215176   5.644   7.106   5.524  0.1179  1.1397 -1.3964
 5075TIP3   OH215177   7.752   0.951   4.899 -0.0160  0.2869 -0.0943
 5075TIP3    H115178   7.664   0.915   4.907 -0.1798  0.5607 -0.6663
 5075TIP3    H215179   7.753   1.027   4.957  0.3471 -0.6539  1.1626
 5076TIP3   OH215180   7.338   1.407   5.407  0.3854 -0.2501 -0.0236
 5076TIP3    H115181   7.376   1.477   5.460 -0.8053  0.5638 -0.2319
 5076TIP3    H215182   7.319   1.337   5.469  0.4559  0.0915  0.3850
 5077TIP3   OH215183   2.153   2.269   0.241 -0.6945  0.3792 -0.1842
 5077TIP3    H115184   2.179   2.362   0.238 -1.2287  0.4944 -1.4174
 5077TIP3    H215185   2.134   2.247   0.150  0.3728 -1.2277 -0.0237
 5078TIP3   OH215186   0.753   0.063   4.723  0.1655  0.3926  0.0869
 5078TIP3    H115187   0.665   0.080   4.690  0.9237  0.5777 -1.8941
 5078TIP3    H215188   0.810   0.068   4.646  2.1689  2.0716  1.5976
 5079TIP3   OH215189   0.830   2.152   4.872  0.2326  0.0466 -0.2519
 5079TIP3    H115190   0.894   2.137   4.803  0.8423 -0.3702  0.4055
 5079TIP3    H215191   0.761   2.204   4.829 -0.2597 -1.7051 -1.6436
 5080TIP3   OH215192   2.312   1.993   4.686  0.3586 -0.0910 -0.0699
 5080TIP3    H115193   2.255   2.044   4.628  0.8503  0.1804 -0.3122
 5080TIP3    H215194   2.251   1.940   4.738 -0.1148  0.1508 -0.3727
 5081TIP3   OH215195   3.496   4.818   1.300 -0.2211 -0.6340  0.0768
 5081TIP3    H115196   3.528   4.728   1.287 -0.1983 -0.7491  0.9051
 5081TIP3    H215197   3.561   4.858   1.358 -0.3200 -0.1276 -0.1567
 5082TIP3   OH215198   7.670   5.103   5.096  0.0778  0.7696 -0.4516
 5082TIP3    H115199   7.584   5.090   5.135 -0.4054 -0.0228 -1.7618
 5082TIP3    H215200   7.655   5.166   5.025  0.4875  0.2637 -0.9875
 5083TIP3   OH215201   4.689   1.937   5.025  0.2728  0.2843  0.2807
 5083TIP3    H115202   4.738   1.855   5.022  3.0393  1.8292  2.2668
 5083TIP3    H215203   4.714   1.983   4.945 -0.1291 -0.1234 -0.0865
 5084TIP3   OH215204   4.200   1.372   5.331  0.4172 -0.2086  0.3038
 5084TIP3    H115205   4.285   1.412   5.349  1.0128 -1.2757 -0.1231
 5084TIP3    H215206   4.137   1.444   5.342  1.1140  0.0546  3.0113
 5085TIP3   OH215207   5.267   1.015   3.905  0.4031 -0.0197 -0.0326
 5085TIP3    H115208   5.276   1.019   3.809 -1.5309 -0.3343 -0.2450
 5085TIP3    H215209   5.267   0.922   3.925  2.5389  0.0625  0.4815
 5086TIP3   OH215210   2.970   0.900   5.730 -0.1696 -0.0237 -0.1757
 5086TIP3    H115211   2.966   0.870   5.821  0.9223  2.6159  0.7705
 5086TIP3    H215212   3.060   0.882   5.702 -0.3487 -0.3233 -0.5787
 5087TIP3   OH215213   1.131   7.355   5.247  0.0444  0.2690  0.3487
 5087TIP3    H115214   1.082   7.341   5.166  0.5954 -0.9772  0.2292
 5087TIP3    H215215   1.133   7.270   5.290  0.1044  0.8331  1.4902
 5088TIP3   OH215216   1.215   1.816   4.931  0.0409 -0.4039 -0.2845
 5088TIP3    H115217   1.225   1.906   4.961 -0.1047 -0.1357 -1.0328
 5088TIP3    H215218   1.304   1.785   4.917  0.1320 -0.6687  0.8046
 5089TIP3   OH215219   4.805   2.227   5.352 -0.2533 -0.0691  0.5371
 5089TIP3    H115220   4.815   2.138   5.386  0.0915  0.2962  1.3915
 5089TIP3    H215221   4.832   2.220   5.261 -0.8682 -0.9860  0.4111
 5090TIP3   OH215222   1.644   6.555   5.403  0.1325 -0.5671  0.0974
 5090TIP3    H115223   1.709   6.508   5.455 -2.0603 -0.4921  3.0406
 5090TIP3    H215224   1.567   6.499   5.404 -0.2589 -0.1194 -2.3525
 5091TIP3   OH215225   2.820   1.270   6.234 -0.0739  0.7065  0.4918
 5091TIP3    H115226   2.767   1.265   6.313 -0.3879  0.5389  0.2739
 5091TIP3    H215227   2.902   1.311   6.262  0.2565 -0.3477  1.1333
 5092TIP3   OH215228   2.826   0.385   5.841 -0.3820  0.3545  0.0027
 5092TIP3    H115229   2.862   0.296   5.830 -0.4271  0.3664 -0.2386
 5092TIP3    H215230   2.891   0.442   5.800  0.2486  0.5407  1.2512
 5093TIP3   OH215231   3.679   0.369   3.866 -0.6480  0.2522 -0.1946
 5093TIP3    H115232   3.771   0.345   3.856 -0.6909 -0.8631  1.8846
 5093TIP3    H215233   3.680   0.464   3.876  0.1190  0.4191 -1.7644
 5094TIP3   OH215234   1.168   6.947   4.379 -0.3543  0.3492 -0.3900
 5094TIP3    H115235   1.209   6.875   4.330 -2.1657 -0.3115 -0.9558
 5094TIP3    H215236   1.242   6.993   4.420  0.8018 -2.0530  0.2995
 5095TIP3   OH215237   3.216   0.045   5.597  0.3605 -0.5010 -0.1567
 5095TIP3    H115238   3.143  -0.013   5.618 -0.6611  0.6442 -0.4826
 5095TIP3    H215239   3.292  -0.013   5.594 -0.3313 -1.5295  1.3229
 5096TIP3   OH215240   5.935   4.157   0.160  0.0429 -0.0007 -1.1218
 5096TIP3    H115241   5.979   4.083   0.118 -0.0495  0.1972 -1.5707
 5096TIP3    H215242   5.843   4.133   0.160  0.2295 -0.8149  0.6277
 5097TIP3   OH215243   3.927   0.337   5.526 -0.2463 -0.8928  0.1327
 5097TIP3    H115244   3.873   0.269   5.484 -1.5447  0.1087  0.1610
 5097TIP3    H215245   3.977   0.376   5.454 -0.4127 -1.0507 -0.0695
 5098TIP3   OH215246   1.266   1.939   5.290 -0.2739 -0.0682  0.4484
 5098TIP3    H115247   1.225   1.996   5.225 -0.1113  0.3845  0.7408
 5098TIP3    H215248   1.219   1.856   5.283 -1.9569  0.7753  1.5106
 5099TIP3   OH215249   0.666   6.970   5.644 -0.6889 -0.5941 -0.1290
 5099TIP3    H115250   0.603   7.042   5.641 -0.4411 -0.3255  1.0040
 5099TIP3    H215251   0.630   6.909   5.708 -0.0127 -0.6328  0.2220
 5100TIP3   OH215252   1.107   0.708   6.170 -0.1110 -0.2286 -0.1515
 5100TIP3    H115253   1.034   0.768   6.153 -0.0290 -0.5965 -1.8744
 5100TIP3    H215254   1.141   0.736   6.254 -1.4700  0.7418  0.0966
 5101TIP3   OH215255   1.909   0.402   5.294  0.2192 -0.3458  0.2012
 5101TIP3    H115256   1.843   0.456   5.338  0.9259  0.1989  0.6175
 5101TIP3    H215257   1.887   0.312   5.319  0.2212 -0.0879  1.1523
 5102TIP3   OH215258   2.746   1.307   4.598 -0.4465 -0.2370 -0.0212
 5102TIP3    H115259   2.810   1.378   4.608  0.9889 -1.2970 -1.3695
 5102TIP3    H215260   2.684   1.320   4.669 -0.1295  2.2867 -0.1643
 5103TIP3   OH215261   6.813   3.791   0.647  0.2063  0.0627 -0.0081
 5103TIP3    H115262   6.838   3.879   0.618 -0.5271 -0.3061 -1.8183
 5103TIP3    H215263   6.863   3.777   0.727 -0.2212  2.4248  0.7210
 5104TIP3   OH215264   1.817   1.427   4.718  0.4117 -0.4750  0.0808
 5104TIP3    H115265   1.884   1.390   4.776  1.0277 -0.6658 -0.7577
 5104TIP3    H215266   1.740   1.434   4.774  0.8699 -1.1096  0.8101
 5105TIP3   OH215267   5.315   0.266   4.810  0.6314 -0.0227  0.4945
 5105TIP3    H115268   5.273   0.335   4.760 -0.2794  0.0336  1.3250
 5105TIP3    H215269   5.247   0.200   4.823  1.2429 -0.6664  0.4823
 5106TIP3   OH215270   1.596   1.328   4.862 -0.0031 -0.3684  0.0478
 5106TIP3    H115271   1.610   1.375   4.945 -1.4677  0.4699 -0.1640
 5106TIP3    H215272   1.505   1.348   4.839  0.9847  1.0223 -2.7820
 5107TIP3   OH215273   1.134   7.352   4.533 -0.1178 -0.2524  0.0711
 5107TIP3    H115274   1.220   7.377   4.566  1.5697 -0.3512 -4.0630
 5107TIP3    H215275   1.083   7.432   4.537  0.5555  0.1370  1.2341
 5108TIP3   OH215276   2.875   0.598   4.436 -0.0776 -0.2628 -0.4940
 5108TIP3    H115277   2.872   0.568   4.345  1.9986  1.0650 -1.0408
 5108TIP3    H215278   2.812   0.670   4.440 -0.3049 -0.4399 -0.8440
 5109TIP3   OH215279   2.925   0.831   5.215 -0.6658 -0.4436 -0.0711
 5109TIP3    H115280   2.989   0.828   5.287 -0.0083  0.9834 -0.5858
 5109TIP3    H215281   2.843   0.800   5.255 -0.3066  0.3420  1.2960
 5110TIP3   OH215282   4.674   0.699   5.461 -0.2836 -0.0675 -0.4004
 5110TIP3    H115283   4.730   0.645   5.405 -0.1981 -0.9127  0.4834
 5110TIP3    H215284   4.724   0.711   5.542 -0.7480  0.4469 -0.1823
 5111TIP3   OH215285   6.495   0.486   3.830  0.2588  0.1565  0.1167
 5111TIP3    H115286   6.546   0.410   3.859  0.9441 -0.1997 -1.9706
 5111TIP3    H215287   6.409   0.474   3.871  0.4660 -1.5783  0.0624
 5112TIP3   OH215288   1.631   0.586   6.151 -0.4108 -0.0209  0.4808
 5112TIP3    H115289   1.718   0.587   6.113  0.5066  1.0725  2.4841
 5112TIP3    H215290   1.621   0.498   6.187  0.4729  0.2956  1.5298
 5113TIP3   OH215291   7.584   7.294   5.697 -0.3724 -0.3954 -0.4156
 5113TIP3    H115292   7.632   7.214   5.718  0.6544  0.2675 -0.2266
 5113TIP3    H215293   7.551   7.280   5.608 -1.0329 -1.4227 -0.0131
 5114TIP3   OH215294   4.614   5.651   0.148 -0.3495 -0.0381  0.1408
 5114TIP3    H115295   4.606   5.737   0.107  2.4598 -0.3364 -1.1615
 5114TIP3    H215296   4.546   5.650   0.216 -1.2388  2.7087 -0.6423
 5115TIP3   OH215297   1.600   4.436   5.269 -0.0867  0.0491  0.2590
 5115TIP3    H115298   1.569   4.462   5.183  0.8190 -0.5859 -0.2779
 5115TIP3    H215299   1.544   4.362   5.294 -0.9356  0.8089  0.6205
 5116TIP3   OH215300   1.228   7.475   4.887 -0.0372  0.0527  0.9702
 5116TIP3    H115301   1.246   7.412   4.818 -0.0069 -1.0877  2.0079
 5116TIP3    H215302   1.171   7.429   4.948 -2.4745  2.0079  0.2384
 5117TIP3   OH215303   3.290   5.955   0.612  0.1458  0.0669 -0.2702
 5117TIP3    H115304   3.286   5.900   0.534  0.5120  0.7290 -0.7691
 5117TIP3    H215305   3.384   5.961   0.633 -0.0065 -0.7288  0.6746
 5118TIP3   OH215306   1.089   6.946   3.748 -0.0518  0.0435 -0.5285
 5118TIP3    H115307   1.183   6.961   3.745 -0.2145  1.1182 -0.7404
 5118TIP3    H215308   1.056   7.014   3.806 -0.3939 -2.0534  1.7863
 5119TIP3   OH215309   1.274   1.170   6.308  0.3079  0.3630 -0.3598
 5119TIP3    H115310   1.270   1.259   6.271 -0.6926  0.7588  0.6710
 5119TIP3    H215311   1.249   1.113   6.235 -0.5578  1.0531 -0.6131
 5120TIP3   OH215312   4.434   5.635   0.359  0.2175  0.6213  0.3752
 5120TIP3    H115313   4.523   5.615   0.390 -0.2229  0.2647  1.4464
 5120TIP3    H215314   4.399   5.694   0.426 -0.7080 -0.0347  0.4690
 5121TIP3   OH215315   3.796   0.600   4.872  0.6007 -0.0126  0.0101
 5121TIP3    H115316   3.703   0.581   4.857  0.6996 -2.0965  1.6963
 5121TIP3    H215317   3.796   0.686   4.914 -0.4515  0.6591 -1.3305
 5122TIP3   OH215318   3.417   1.985   5.208 -0.2869 -0.3976  0.5370
 5122TIP3    H115319   3.356   1.912   5.213 -0.7626  0.0659  1.5992
 5122TIP3    H215320   3.405   2.021   5.120 -0.6213 -1.1001  0.2982
 5123TIP3   OH215321   0.493   1.904   6.421  0.3557 -0.2097  0.2876
 5123TIP3    H115322   0.410   1.869   6.455  0.3997 -0.7052 -0.1095
 5123TIP3    H215323   0.471   1.993   6.394 -0.0724 -0.3714  0.0919
 5124TIP3   OH215324   2.960   2.112   5.860  0.0705  0.4273  0.3085
 5124TIP3    H115325   3.026   2.088   5.925 -0.0243 -1.5797 -0.2860
 5124TIP3    H215326   3.008   2.115   5.777 -0.5107 -0.8800 -0.1017
 5125TIP3   OH215327   7.729   5.455   0.933 -0.2639 -0.1652  0.2315
 5125TIP3    H115328   7.778   5.430   0.855  1.2576 -0.5078  1.2748
 5125TIP3    H215329   7.747   5.385   0.996 -1.5976  0.0308  0.8383
 5126TIP3   OH215330   2.891   2.582   6.353  0.3793 -0.0850  0.1876
 5126TIP3    H115331   2.928   2.495   6.369  0.5480 -0.1309 -0.4353
 5126TIP3    H215332   2.958   2.642   6.386  1.3839 -0.1511 -1.6400
 5127TIP3   OH215333   4.881   1.893   3.681  0.0264 -0.1003  0.3250
 5127TIP3    H115334   4.794   1.921   3.710  0.4441  1.9595 -0.3260
 5127TIP3    H215335   4.940   1.957   3.720  1.0676 -0.3521 -0.8305
 5128TIP3   OH215336   7.164   6.357   6.442 -0.2357  0.4928  0.8800
 5128TIP3    H115337   7.094   6.365   6.377  0.4619  1.1586  0.2043
 5128TIP3    H215338   7.226   6.296   6.403 -0.5016 -0.2032  1.5407
 5129TIP3   OH215339   2.875   3.504   4.685  0.1340 -0.3254 -0.0877
 5129TIP3    H115340   2.953   3.465   4.645 -0.4744 -1.2333 -0.4024
 5129TIP3    H215341   2.908   3.583   4.730  0.8365  0.6730 -2.2959
 5130TIP3   OH215342   1.342   3.443   0.079  0.1829  0.4988  0.1388
 5130TIP3    H115343   1.383   3.431  -0.006  0.9415  0.5750  0.4879
 5130TIP3    H215344   1.412   3.479   0.134  0.3858 -1.7736  1.4352
 5131TIP3   OH215345   1.423   2.715   4.678 -0.2201  0.3054  0.1642
 5131TIP3    H115346   1.467   2.711   4.593  1.4587  0.2559  1.0057
 5131TIP3    H215347   1.479   2.773   4.731 -0.9369 -0.1065  1.3987
 5132TIP3   OH215348   5.901   3.062   0.720 -0.3255  0.2705  0.2001
 5132TIP3    H115349   5.868   3.001   0.785  1.9371 -0.4964  0.6531
 5132TIP3    H215350   5.827   3.120   0.701 -1.6207 -0.8274  1.8626
 5133TIP3   OH215351   6.133   4.241   1.001 -0.1337 -0.0014  0.2806
 5133TIP3    H115352   6.181   4.255   0.919 -0.7414  1.8958  0.2251
 5133TIP3    H215353   6.182   4.292   1.065 -1.2374  0.7573  0.5222
 5134TIP3   OH215354   7.723   5.758   5.880  0.2090  0.1203  0.0611
 5134TIP3    H115355   7.754   5.787   5.794 -1.2743 -1.1711 -0.9275
 5134TIP3    H215356   7.802   5.732   5.927  1.1004  1.5139 -0.6505
 5135TIP3   OH215357   7.274   6.212   5.195 -0.0035 -0.2092 -0.3039
 5135TIP3    H115358   7.329   6.228   5.119  1.6349 -1.2882  0.6121
 5135TIP3    H215359   7.240   6.298   5.220  2.1178  0.6267 -0.2604
 5136TIP3   OH215360   5.307   4.719   0.385 -0.2163  0.1646  0.0861
 5136TIP3    H115361   5.253   4.641   0.393  3.2929 -2.2299  1.5352
 5136TIP3    H215362   5.392   4.688   0.354  1.8421  3.0979  2.4015
 5137TIP3   OH215363   6.044   0.246   4.996  0.1516  0.6065  0.6201
 5137TIP3    H115364   6.134   0.277   4.999  0.1615  0.8540 -1.3202
 5137TIP3    H215365   6.033   0.193   5.075  1.7709  1.1573  1.2192
 5138TIP3   OH215366   1.443   6.294   5.134  0.2168 -0.3460 -0.1181
 5138TIP3    H115367   1.383   6.350   5.085  0.2930 -0.8226 -0.7561
 5138TIP3    H215368   1.530   6.326   5.112  0.2396 -0.3719 -0.0663
 5139TIP3   OH215369   2.174   6.805   5.874  0.3797  0.1785 -0.4880
 5139TIP3    H115370   2.258   6.787   5.833 -0.0767 -0.4332 -1.1479
 5139TIP3    H215371   2.196   6.854   5.954  1.4244 -0.9488 -0.0839
 5140TIP3   OH215372   6.587   6.529   5.597 -0.4945 -0.0139 -0.5940
 5140TIP3    H115373   6.580   6.556   5.688  0.9147  2.7773 -1.2704
 5140TIP3    H215374   6.498   6.499   5.574 -1.3304  1.1034  1.1152
 5141TIP3   OH215375   6.537   1.078   5.323  0.2701 -0.1000 -0.3423
 5141TIP3    H115376   6.530   1.154   5.264 -0.9516  1.3828  1.6456
 5141TIP3    H215377   6.457   1.028   5.305 -0.3978  0.6608  0.4249
 5142TIP3   OH215378   4.322   0.396   5.399  0.1825 -0.2473  1.0199
 5142TIP3    H115379   4.282   0.477   5.429 -0.9918 -0.6864  0.6582
 5142TIP3    H215380   4.283   0.379   5.314  0.9470 -0.8246  0.7714
 5143TIP3   OH215381   2.566   1.954   5.535 -0.1351  0.1126 -0.2233
 5143TIP3    H115382   2.519   2.036   5.517 -0.7551  0.1960  1.6164
 5143TIP3    H215383   2.622   1.975   5.610  0.0098 -1.0406  0.0028
 5144TIP3   OH215384   3.096   5.828   4.027 -0.1395 -0.2944  1.0653
 5144TIP3    H115385   3.000   5.825   4.026 -0.1109 -0.9840 -0.2517
 5144TIP3    H215386   3.118   5.916   3.996 -0.3438 -0.3014  0.8974
 5145TIP3   OH215387   2.126   0.583   4.097 -0.5469 -0.5884 -0.6809
 5145TIP3    H115388   2.187   0.617   4.032 -0.5601 -0.4965 -0.6456
 5145TIP3    H215389   2.161   0.613   4.181 -1.0021  0.0286 -0.7084
 5146TIP3   OH215390   3.100   0.503   5.791 -0.1856  0.2094 -0.1586
 5146TIP3    H115391   3.119   0.414   5.764  0.1470 -0.5608  2.4958
 5146TIP3    H215392   3.166   0.557   5.747 -1.3425 -0.6242 -3.0174
 5147TIP3   OH215393   4.285   2.817   4.028 -0.2669  0.3092  0.1715
 5147TIP3    H115394   4.321   2.735   4.061 -2.3485 -1.0474 -0.7941
 5147TIP3    H215395   4.331   2.832   3.946  1.1684  0.9210  1.0616
 5148TIP3   OH215396   4.349   2.328   6.190 -0.6105  0.7991 -0.5110
 5148TIP3    H115397   4.260   2.358   6.172 -0.4505  1.0675 -0.8606
 5148TIP3    H215398   4.341   2.275   6.270 -0.9251  1.6310  0.0155
 5149TIP3   OH215399   4.086   1.385   5.901  0.8942  0.0999  0.0041
 5149TIP3    H115400   4.096   1.443   5.826  1.3040  1.1086  0.8250
 5149TIP3    H215401   4.085   1.444   5.977  0.5851 -0.9111  0.7943
 5150TIP3   OH215402   3.305   0.676   5.619  0.1795  0.5567  0.0543
 5150TIP3    H115403   3.390   0.645   5.587  0.5422  0.9446  0.6259
 5150TIP3    H215404   3.319   0.692   5.712  0.3673  3.5560 -0.4231
 5151TIP3   OH215405   2.042   6.096   4.588 -0.0417 -0.4830 -0.0324
 5151TIP3    H115406   2.011   6.186   4.577  0.6752 -0.0890  1.0963
 5151TIP3    H215407   1.964   6.047   4.612  0.0160  0.3146  1.8203
 5152TIP3   OH215408   1.471   6.054   4.982  0.3862  0.0018  0.1583
 5152TIP3    H115409   1.425   6.107   5.047  0.0723  0.4685 -0.4505
 5152TIP3    H215410   1.531   6.000   5.034  0.7486  0.9939  0.7726
 5153TIP3   OH215411   5.452   3.550   0.119 -0.4317 -0.6537 -0.3597
 5153TIP3    H115412   5.399   3.507   0.051 -2.2924  2.0458 -0.7079
 5153TIP3    H215413   5.413   3.637   0.127  2.6775  0.6605  0.9395
 5154TIP3   OH215414   4.417   0.445   4.175 -0.4532 -0.0875  0.1428
 5154TIP3    H115415   4.355   0.381   4.209 -2.4383  2.3476  1.2518
 5154TIP3    H215416   4.477   0.461   4.248 -0.1903 -0.3881 -0.0057
 5155TIP3   OH215417   3.353   0.290   4.690  0.5239 -0.3292  0.0271
 5155TIP3    H115418   3.303   0.317   4.768  0.4644  0.0251 -0.1300
 5155TIP3    H215419   3.414   0.224   4.722  0.7698  0.1002  0.4555
 5156TIP3   OH215420   5.531   0.909   4.022  0.2029 -0.0094  0.6970
 5156TIP3    H115421   5.520   0.843   4.091 -0.4566 -0.9141 -0.2742
 5156TIP3    H215422   5.443   0.939   4.002  0.2088 -1.1670 -1.1330
 5157TIP3   OH215423   4.326   1.165   5.230  0.1382 -0.2415  0.0995
 5157TIP3    H115424   4.413   1.203   5.218 -0.2291  0.8907  0.9649
 5157TIP3    H215425   4.276   1.232   5.277 -1.5332 -0.4119 -1.3565
 5158TIP3   OH215426   7.279   4.732   0.576 -0.3500 -0.2412  0.7988
 5158TIP3    H115427   7.247   4.674   0.507  0.5492  0.7285 -0.4546
 5158TIP3    H215428   7.202   4.781   0.604 -0.0866  1.8304 -1.9474
 5159TIP3   OH215429   3.524   4.935   1.027  0.2031  0.1763  0.4955
 5159TIP3    H115430   3.531   4.922   1.122 -2.1206  0.9139  0.7918
 5159TIP3    H215431   3.604   4.982   1.004  1.9207 -1.9964  1.6875
 5160TIP3   OH215432   3.937   1.904   3.570  0.2563  0.5390 -0.2943
 5160TIP3    H115433   3.878   1.901   3.645 -0.6906  2.5580 -0.9254
 5160TIP3    H215434   3.985   1.821   3.574 -0.1742  0.3722  2.1963
 5161TIP3   OH215435   6.281   0.717   3.977 -0.3333  0.0827 -0.3448
 5161TIP3    H115436   6.375   0.729   3.988 -0.2742 -0.5145 -0.1395
 5161TIP3    H215437   6.256   0.662   4.052 -1.0101  1.0235  0.1306
 5162TIP3   OH215438   3.036   5.552   3.688  0.0314  0.4831  0.0209
 5162TIP3    H115439   3.114   5.566   3.634 -0.5863  1.0399 -0.7533
 5162TIP3    H215440   3.060   5.584   3.775  1.3403 -1.2587  0.3102
 5163TIP3   OH215441   1.495   7.225   5.644  0.3576  0.4245  0.1738
 5163TIP3    H115442   1.552   7.237   5.721 -1.0604 -2.4513  1.7509
 5163TIP3    H215443   1.413   7.190   5.680 -0.8077  0.2955 -2.5168
 5164TIP3   OH215444   5.607   5.359   1.028  0.1485 -0.8401  0.0284
 5164TIP3    H115445   5.631   5.451   1.024  0.8623 -1.1056 -2.8824
 5164TIP3    H215446   5.518   5.359   1.062 -0.4996  1.0531 -1.5673
 5165TIP3   OH215447   7.618   6.762   5.250 -0.0124  0.0202  0.0030
 5165TIP3    H115448   7.523   6.763   5.265 -0.2096 -2.5810 -0.8787
 5165TIP3    H215449   7.630   6.818   5.174 -0.8766  0.1548 -0.0441
 5166TIP3   OH215450   3.437   0.668   2.487 -0.2963 -0.1540 -0.2555
 5166TIP3    H115451   3.403   0.684   2.575 -0.4060 -0.1260 -0.3038
 5166TIP3    H215452   3.371   0.705   2.428  0.5857  1.4083 -0.3121
 5167TIP3   OH215453   1.649   2.391   5.027  0.1251 -0.4622 -0.7781
 5167TIP3    H115454   1.645   2.480   5.061 -0.1752 -0.5627 -0.5500
 5167TIP3    H215455   1.719   2.393   4.962 -0.0845  0.0111 -0.9834
 5168TIP3   OH215456   6.404   5.448   0.369 -0.4817  0.3196  0.0591
 5168TIP3    H115457   6.381   5.540   0.382  0.7011  0.6444 -0.0653
 5168TIP3    H215458   6.429   5.417   0.457  0.1044  0.4000 -0.0775
 5169TIP3   OH215459   7.000   7.291   5.723  0.1120 -0.7489  0.4483
 5169TIP3    H115460   7.082   7.262   5.763 -0.0445  0.4606  1.6926
 5169TIP3    H215461   7.018   7.292   5.629  1.0801 -1.8228  0.6113
 5170TIP3   OH215462   0.107   7.469   5.433  0.2742  0.0268  0.1419
 5170TIP3    H115463   0.163   7.410   5.484 -0.9097  0.1451  1.6300
 5170TIP3    H215464   0.022   7.425   5.432  0.0595  0.4679 -0.9718
 5171TIP3   OH215465   2.293   0.404   6.338  0.0441  0.1590 -0.2119
 5171TIP3    H115466   2.323   0.488   6.373 -1.1428  0.9019 -0.9263
 5171TIP3    H215467   2.253   0.359   6.412 -1.5825  1.3093 -0.3775
 5172TIP3   OH215468   5.182   1.682   2.878 -0.1526 -0.4848 -0.2063
 5172TIP3    H115469   5.136   1.645   2.802 -1.4261 -1.0004  0.7943
 5172TIP3    H215470   5.268   1.706   2.844  0.6148 -4.0290 -1.0272
 5173TIP3   OH215471   5.859   4.787   0.974  0.5890  0.0725  0.4063
 5173TIP3    H115472   5.929   4.747   0.922 -0.2830 -0.5593 -0.2963
 5173TIP3    H215473   5.852   4.732   1.052 -0.0592 -0.7029 -0.1806
 5174TIP3   OH215474   1.283   2.123   5.801 -0.9290  0.2256 -0.2884
 5174TIP3    H115475   1.245   2.205   5.769 -1.7595 -0.1866 -0.3633
 5174TIP3    H215476   1.373   2.146   5.823 -0.8517  0.9061 -1.3018
 5175TIP3   OH215477   4.251   0.243   3.365 -0.3292  0.2222  0.5200
 5175TIP3    H115478   4.313   0.312   3.343 -1.1214  1.0842  0.9371
 5175TIP3    H215479   4.267   0.225   3.458 -0.0087 -0.2770  0.3693
 5176TIP3   OH215480   0.141   4.991   3.680 -0.0259  0.0915  0.2771
 5176TIP3    H115481   0.220   5.000   3.732 -0.1350  1.9896  0.1452
 5176TIP3    H215482   0.166   5.021   3.593 -0.7938  0.3641  0.1487
 5177TIP3   OH215483   3.823   0.737   6.083  0.8540  0.8351  0.0151
 5177TIP3    H115484   3.839   0.759   6.174  0.4656  0.6119  0.1362
 5177TIP3    H215485   3.909   0.712   6.049  0.7681 -0.4179  0.6813
 5178TIP3   OH215486   3.949   0.372   3.742 -0.3039 -0.3755 -0.2857
 5178TIP3    H115487   4.025   0.422   3.713 -0.6098 -0.0557 -0.5392
 5178TIP3    H215488   3.888   0.378   3.669 -0.4169 -0.9580 -0.2389
 5179TIP3   OH215489   0.658   6.130   4.558  0.9644  0.2063 -0.1853
 5179TIP3    H115490   0.651   6.189   4.483  1.0069  0.1996 -0.1945
 5179TIP3    H215491   0.671   6.188   4.633 -0.7539  0.3152  0.0592
 5180TIP3   OH215492   2.563   6.916   4.432 -0.5987  0.2397 -0.3531
 5180TIP3    H115493   2.609   6.998   4.449 -1.1363  0.2531  1.0963
 5180TIP3    H215494   2.572   6.866   4.513  0.0057 -1.2876 -1.3242
 5181TIP3   OH215495   3.379   2.374   5.620 -0.4297 -0.0241  0.2746
 5181TIP3    H115496   3.454   2.354   5.676 -0.2674  0.7766  0.3499
 5181TIP3    H215497   3.367   2.295   5.568 -0.3431 -0.6363  1.1662
 5182TIP3   OH215498   3.751   0.874   4.995  0.4210 -0.2501 -0.4499
 5182TIP3    H115499   3.747   0.957   4.948 -0.4303 -1.2275 -2.1740
 5182TIP3    H215500   3.692   0.884   5.069  0.1914  0.6195 -0.7495
 5183TIP3   OH215501   2.150   0.417   4.782 -0.3910  0.3204  0.5402
 5183TIP3    H115502   2.151   0.322   4.784  1.0406  0.2933 -0.4083
 5183TIP3    H215503   2.220   0.440   4.721 -0.1335  1.9938  1.4394
 5184TIP3   OH215504   0.912   6.397   4.921  0.1870 -0.0159 -0.4338
 5184TIP3    H115505   0.898   6.333   4.850 -0.7708  1.2907 -1.4481
 5184TIP3    H215506   0.826   6.405   4.962  0.4215  0.2496  0.0013
 5185TIP3   OH215507   2.042   2.159   5.106  0.2679 -0.1454 -0.7128
 5185TIP3    H115508   1.992   2.118   5.035 -1.9411  0.4988  0.4586
 5185TIP3    H215509   2.096   2.225   5.061 -0.0039 -0.7403 -1.9542
 5186TIP3   OH215510   1.155   3.090   3.963  0.0176 -0.0664  0.1850
 5186TIP3    H115511   1.067   3.121   3.943  0.7822  0.0194 -3.4584
 5186TIP3    H215512   1.199   3.166   4.002 -1.3003  0.0909  1.3817
 5187TIP3   OH215513   4.525   2.027   4.415 -0.0253 -0.0889  0.0179
 5187TIP3    H115514   4.547   2.113   4.380 -0.7003  2.2091  4.7830
 5187TIP3    H215515   4.609   1.989   4.440  0.0746  0.2145  0.1446
 5188TIP3   OH215516   3.960   0.915   6.368 -0.3123 -0.0902 -0.2009
 5188TIP3    H115517   3.964   0.957   6.282 -1.3137  0.2317 -0.0887
 5188TIP3    H215518   3.967   0.821   6.348 -1.2838 -0.0651 -0.6986
 5189TIP3   OH215519   3.668   2.174   3.624  0.2721  0.1383  0.2321
 5189TIP3    H115520   3.584   2.211   3.595 -0.3131 -0.9746  0.4730
 5189TIP3    H215521   3.655   2.080   3.618  1.9579 -0.0457 -0.9972
 5190TIP3   OH215522   3.324   0.746   4.789  0.1932  0.3141  0.1884
 5190TIP3    H115523   3.300   0.823   4.737 -0.5568  0.1766  0.3132
 5190TIP3    H215524   3.244   0.692   4.789  0.5502 -0.2165  0.5311
 5191TIP3   OH215525   0.598   6.464   4.487 -0.0992 -0.0840 -0.3186
 5191TIP3    H115526   0.633   6.422   4.408 -1.8587  0.2915 -1.3192
 5191TIP3    H215527   0.668   6.522   4.516  0.6997 -0.4803 -1.4020
 5192TIP3   OH215528   1.540   2.196   5.219 -0.0781  0.1574 -0.3952
 5192TIP3    H115529   1.598   2.241   5.157 -1.5099 -0.3254 -2.1245
 5192TIP3    H215530   1.460   2.249   5.220  0.0441  0.3363  1.3128
 5193TIP3   OH215531   1.985   1.517   3.896 -0.0911  0.0197  0.5484
 5193TIP3    H115532   1.961   1.560   3.814 -0.7644 -0.6091  0.4135
 5193TIP3    H215533   1.907   1.467   3.921  0.2142 -0.0277  1.4158
 5194TIP3   OH215534   1.079   1.238   5.681 -0.5161 -0.0897  0.6417
 5194TIP3    H115535   1.059   1.190   5.601  3.4695 -1.7216  0.5138
 5194TIP3    H215536   1.076   1.330   5.655 -0.6566 -0.5544 -1.0308
 5195TIP3   OH215537   3.057   0.193   5.130  0.5284 -0.7621  0.4000
 5195TIP3    H115538   3.064   0.098   5.126  1.5343 -0.6261 -3.5144
 5195TIP3    H215539   2.981   0.214   5.077  1.6015  0.6909 -0.6240
 5196TIP3   OH215540   5.619   6.538   1.216 -0.2797 -0.1781 -0.0310
 5196TIP3    H115541   5.549   6.592   1.252  1.0557  1.4679  0.1295
 5196TIP3    H215542   5.647   6.584   1.137  0.0498 -1.2803 -0.5717
 5197TIP3   OH215543   2.188   5.758   1.027  0.0415  0.2189  0.3418
 5197TIP3    H115544   2.101   5.774   1.065 -0.5973 -0.1296 -0.9063
 5197TIP3    H215545   2.249   5.770   1.099 -1.0089  1.0006  1.1185
 5198TIP3   OH215546   0.169   1.957   3.928 -0.0603  0.2250  0.2644
 5198TIP3    H115547   0.109   1.929   3.859 -0.0135 -1.2272  0.8040
 5198TIP3    H215548   0.221   1.879   3.949  0.9442  1.0428  0.9078
 5199TIP3   OH215549   2.119   1.487   6.266 -0.4402  0.0285  0.1630
 5199TIP3    H115550   2.078   1.411   6.224  0.8681  0.1529 -1.3576
 5199TIP3    H215551   2.087   1.562   6.216  0.6619  0.2217 -0.2599
 5200TIP3   OH215552   5.899   4.440   5.461 -0.0469 -0.4249 -0.2409
 5200TIP3    H115553   5.861   4.401   5.382 -1.5830 -0.7358  0.6394
 5200TIP3    H215554   5.964   4.376   5.490  0.1778 -0.5346 -0.9711
 5201TIP3   OH215555   4.431   2.806   0.926 -0.2248 -0.3315  0.2598
 5201TIP3    H115556   4.521   2.792   0.957 -0.1715 -0.3951  0.0820
 5201TIP3    H215557   4.424   2.747   0.850 -0.8081 -1.2269  0.9951
 5202TIP3   OH215558   4.607   1.666   5.185 -0.2451  0.2587  0.2686
 5202TIP3    H115559   4.691   1.701   5.215  0.4219 -2.7363  2.0032
 5202TIP3    H215560   4.628   1.583   5.142 -2.1608  0.2630 -0.7624
 5203TIP3   OH215561   5.548   5.305   0.245  0.7638  0.2424  0.1100
 5203TIP3    H115562   5.599   5.226   0.226 -0.2360 -0.2398 -0.6884
 5203TIP3    H215563   5.459   5.281   0.218 -0.1739  0.5392  2.8142
 5204TIP3   OH215564   3.397   1.349   5.866 -0.2523  0.2786 -0.4676
 5204TIP3    H115565   3.409   1.267   5.818 -0.4710  0.1336 -0.2755
 5204TIP3    H215566   3.455   1.411   5.822 -1.2865  0.4355 -1.6366
 5205TIP3   OH215567   5.445   0.959   6.257 -0.2586 -0.4443  0.3342
 5205TIP3    H115568   5.486   0.956   6.170  1.6819 -1.7364  1.2481
 5205TIP3    H215569   5.361   1.003   6.243  0.9779  1.3393 -1.8171
 5206TIP3   OH215570   6.941   5.927   0.003  0.4719  0.1445  0.0805
 5206TIP3    H115571   6.936   5.992   0.073  1.1731 -0.3266  0.5644
 5206TIP3    H215572   7.034   5.913  -0.011  0.3274 -0.3923 -0.3677
 5207TIP3   OH215573   0.585   4.948   4.295 -0.1309  0.1399  0.2411
 5207TIP3    H115574   0.624   4.983   4.375 -0.1493  1.3445 -0.2668
 5207TIP3    H215575   0.554   5.025   4.248 -0.0158 -0.5550 -0.9849
 5208TIP3   OH215576   5.703   3.057   0.417  0.1178 -0.3719 -0.4642
 5208TIP3    H115577   5.620   3.053   0.370  1.5847 -0.6778 -3.1211
 5208TIP3    H215578   5.724   3.150   0.421 -0.5460 -0.2597  0.5984
 5209TIP3   OH215579   6.762   4.066   1.366  0.0232  0.8705 -0.1646
 5209TIP3    H115580   6.672   4.032   1.366  1.1387 -2.3575 -2.3695
 5209TIP3    H215581   6.756   4.148   1.317 -2.1640  2.1747  2.1742
 5210TIP3   OH215582   3.514   2.015   3.076 -0.3961 -0.1275 -0.4506
 5210TIP3    H115583   3.448   2.083   3.065  0.0230  0.4147  0.3402
 5210TIP3    H215584   3.573   2.028   3.001 -1.2690 -0.7364 -1.2639
 5211TIP3   OH215585   1.893   0.641   4.771  0.8248 -0.4849 -0.2214
 5211TIP3    H115586   1.893   0.735   4.789 -0.4400 -0.4382 -0.4511
 5211TIP3    H215587   1.832   0.631   4.698  0.5685 -1.5536  0.1375
 5212TIP3   OH215588   2.714   1.112   4.855 -0.0514 -0.1453 -0.2153
 5212TIP3    H115589   2.795   1.061   4.860  0.1152  0.2708  1.3302
 5212TIP3    H215590   2.740   1.201   4.879 -0.6266  0.3956 -1.5096
 5213TIP3   OH215591   1.924   0.442   5.000 -0.1371 -1.1794 -0.2475
 5213TIP3    H115592   1.919   0.446   5.095  0.9953 -0.9151 -0.1838
 5213TIP3    H215593   1.834   0.454   4.970 -0.3047  0.1331  0.7381
 5214TIP3   OH215594   5.363   0.927   3.653 -0.6819 -0.1791 -0.1572
 5214TIP3    H115595   5.363   0.850   3.596  2.0935 -0.8419  0.6592
 5214TIP3    H215596   5.428   0.985   3.614 -1.2115  0.8301  0.4535
 5215TIP3   OH215597   5.504   3.628   5.549  0.0193  0.4834  0.5034
 5215TIP3    H115598   5.536   3.538   5.550  0.5736  0.6363 -1.9608
 5215TIP3    H215599   5.515   3.658   5.639 -1.1761 -2.2480  1.6175
 5216TIP3   OH215600   4.509   0.614   5.655  0.0416 -0.2905  0.6566
 5216TIP3    H115601   4.565   0.649   5.586  0.7914 -0.5475  1.1253
 5216TIP3    H215602   4.511   0.519   5.642  0.0215 -0.3248  0.9029
 5217TIP3   OH215603   2.471   1.216   5.390  0.2293  0.0013 -0.1323
 5217TIP3    H115604   2.510   1.279   5.331  1.1034 -0.1442  0.2750
 5217TIP3    H215605   2.508   1.238   5.476 -0.2647 -0.3988  0.1833
 5218TIP3   OH215606   3.584   0.841   2.712 -0.1149  0.9069 -0.4546
 5218TIP3    H115607   3.489   0.846   2.720  0.0942  2.0467  2.0485
 5218TIP3    H215608   3.613   0.932   2.720  1.2456  0.4355  0.1144
 5219TIP3   OH215609   2.109   6.909   3.177  0.2211  0.0195 -0.3231
 5219TIP3    H115610   2.172   6.933   3.246  0.4063 -0.4939 -0.3132
 5219TIP3    H215611   2.036   6.969   3.190 -0.2288 -0.7899  1.0278
 5220TIP3   OH215612   5.951   0.593   4.317 -0.0675  0.7025  0.0063
 5220TIP3    H115613   5.875   0.627   4.363  0.0854  0.3717  0.5064
 5220TIP3    H215614   5.961   0.651   4.241 -0.0686  1.4898  0.6065
 5221TIP3   OH215615   3.859   4.029   3.222 -0.0207 -0.3885 -0.7637
 5221TIP3    H115616   3.913   4.059   3.149 -0.9571 -0.3539 -1.4527
 5221TIP3    H215617   3.898   3.946   3.248 -0.0735 -0.7201 -1.7298
 5222TIP3   OH215618   0.157   6.814   5.077  0.0584 -0.6495  0.3837
 5222TIP3    H115619   0.150   6.739   5.136 -1.2504 -0.6714  0.2173
 5222TIP3    H215620   0.098   6.793   5.004  0.9898 -0.2278 -0.4962
 5223TIP3   OH215621   1.012   7.205   4.761  0.5604  0.1523 -0.6491
 5223TIP3    H115622   1.012   7.111   4.743  0.5585  0.2227 -1.0246
 5223TIP3    H215623   1.039   7.245   4.678 -0.4954  0.5402 -0.8089
 5224TIP3   OH215624   7.401   6.778   6.233  0.5804 -0.2850 -0.1705
 5224TIP3    H115625   7.385   6.868   6.260  1.8406 -0.5077  1.3896
 5224TIP3    H215626   7.331   6.727   6.272  0.4423 -0.1225 -0.2101
 5225TIP3   OH215627   3.517   1.810   5.888 -0.4031  0.9263 -0.0588
 5225TIP3    H115628   3.608   1.833   5.908 -0.2215  2.5033 -2.5668
 5225TIP3    H215629   3.466   1.850   5.958  0.6675  1.7018  0.2840
 5226TIP3   OH215630   3.421   2.087   6.136  0.2765  0.4724 -0.0695
 5226TIP3    H115631   3.461   2.146   6.199 -1.7708  0.2471  1.4993
 5226TIP3    H215632   3.336   2.126   6.117 -0.3958 -1.0608 -0.3204
 5227TIP3   OH215633   4.881   0.620   4.652  0.0934 -0.4819  0.1526
 5227TIP3    H115634   4.827   0.552   4.693  0.0442 -0.5895 -0.0893
 5227TIP3    H215635   4.826   0.699   4.655 -0.3029 -0.7308 -0.6182
 5228TIP3   OH215636   2.524   0.748   5.564 -0.5081  0.1504  0.5541
 5228TIP3    H115637   2.615   0.772   5.580 -0.0583 -0.7529 -0.6107
 5228TIP3    H215638   2.502   0.689   5.636 -0.0051 -0.0692  0.5306
 5229TIP3   OH215639   5.255   0.543   5.405  0.1295  0.8657 -0.3369
 5229TIP3    H115640   5.335   0.501   5.374 -1.5117 -2.1011 -0.7318
 5229TIP3    H215641   5.221   0.591   5.330 -1.0212 -1.9258 -1.6578
 5230TIP3   OH215642   7.813   6.919   3.852 -1.1741  0.0533 -0.2567
 5230TIP3    H115643   7.899   6.905   3.891 -0.7023  0.0527 -1.2778
 5230TIP3    H215644   7.803   7.014   3.848 -0.3953  0.0813 -1.8940
 5231TIP3   OH215645   2.275   0.348   5.643  0.0786 -0.4465 -0.0384
 5231TIP3    H115646   2.318   0.264   5.662 -0.5217 -0.5897  0.7051
 5231TIP3    H215647   2.261   0.346   5.549  1.5174 -0.4848 -0.2707
 5232TIP3   OH215648   3.014   1.137   5.479 -0.2698  0.1393 -0.2550
 5232TIP3    H115649   2.953   1.062   5.477 -1.0811  0.8063 -2.6415
 5232TIP3    H215650   3.032   1.150   5.571 -0.0024 -3.1022  0.2312
 5233TIP3   OH215651   3.755   5.061   0.621  0.4665  0.5618  0.2587
 5233TIP3    H115652   3.689   4.999   0.589  1.5964 -0.7269  0.3919
 5233TIP3    H215653   3.731   5.076   0.713  0.5342 -0.1445  0.3931
 5234TIP3   OH215654   7.553   6.130   4.718 -0.5301  0.7242 -0.1983
 5234TIP3    H115655   7.539   6.215   4.675  1.4713  1.5573  0.7485
 5234TIP3    H215656   7.580   6.071   4.648  0.8276  1.5895 -0.4208
 5235TIP3   OH215657   6.475   6.698   3.479 -0.0866  0.5049  0.8949
 5235TIP3    H115658   6.458   6.604   3.487  0.1148  0.4726  0.9538
 5235TIP3    H215659   6.511   6.722   3.565  3.5246 -0.1221 -0.3483
 5236TIP3   OH215660   2.575   1.107   3.045 -0.0356  0.3853 -0.5900
 5236TIP3    H115661   2.520   1.180   3.072 -1.6903 -1.4518  1.2869
 5236TIP3    H215662   2.515   1.047   3.000  0.7051 -0.9769  0.1946
 5237TIP3   OH215663   2.125   3.373   5.841 -0.4007 -0.3685  0.1899
 5237TIP3    H115664   2.080   3.312   5.900  0.3828 -0.6731  0.4809
 5237TIP3    H215665   2.136   3.453   5.893 -0.1151 -0.4812  0.3021
 5238TIP3   OH215666   3.830   2.400   5.861 -0.0321  0.2651  0.3464
 5238TIP3    H115667   3.829   2.449   5.779 -5.3334  1.4812  0.9698
 5238TIP3    H215668   3.858   2.463   5.927 -0.2076  0.5714  0.1277
 5239TIP3   OH215669   1.753   1.653   5.976 -0.4460 -0.3992 -0.4996
 5239TIP3    H115670   1.805   1.638   5.897  0.1701  1.7623 -0.5382
 5239TIP3    H215671   1.789   1.591   6.040  1.1728  0.0003 -0.9866
 5240TIP3   OH215672   3.300   3.218   4.229 -0.3806 -0.0498  0.1440
 5240TIP3    H115673   3.351   3.263   4.162 -2.7939 -0.7829 -2.2969
 5240TIP3    H215674   3.341   3.132   4.237 -1.0408 -0.5620 -1.6426
 5241TIP3   OH215675   4.868   5.113   0.625 -0.3658 -0.7702  0.9700
 5241TIP3    H115676   4.871   5.071   0.539  1.7780 -0.5682  0.9340
 5241TIP3    H215677   4.900   5.046   0.686 -1.6364 -0.8266  1.5851
 5242TIP3   OH215678   2.700   0.483   4.883 -0.6206 -0.0546 -0.1468
 5242TIP3    H115679   2.703   0.393   4.917  2.2969 -0.3208 -0.9269
 5242TIP3    H215680   2.718   0.473   4.789  1.0767  1.4318 -0.0021
 5243TIP3   OH215681   3.215   0.979   3.916  0.3999 -0.0977  0.3982
 5243TIP3    H115682   3.269   1.052   3.945  0.1911  0.0780  0.3446
 5243TIP3    H215683   3.221   0.980   3.820  0.2869 -0.0670  0.3910
 5244TIP3   OH215684   3.026   0.796   3.183 -0.3210  0.7852 -0.4345
 5244TIP3    H115685   3.073   0.879   3.188 -1.6503  1.5199  0.2703
 5244TIP3    H215686   3.084   0.733   3.225 -0.5655  1.9696  1.7814
 5245TIP3   OH215687   3.695   1.316   3.690  0.1306 -0.3695  0.4841
 5245TIP3    H115688   3.606   1.344   3.666 -0.2386 -0.5911  1.5739
 5245TIP3    H215689   3.707   1.347   3.779  1.1255 -0.4197  0.3710
 5246TIP3   OH215690   1.916   2.065   4.889 -0.1638  0.9743  0.3761
 5246TIP3    H115691   1.824   2.077   4.865  0.1443  1.6854 -0.4524
 5246TIP3    H215692   1.960   2.047   4.806  0.3220 -0.1553  0.8689
 5247TIP3   OH215693   4.304   1.963   2.958  0.6176 -0.6343 -0.2396
 5247TIP3    H115694   4.286   1.877   2.921  0.9253 -0.6933 -0.2543
 5247TIP3    H215695   4.301   2.023   2.884  3.7429 -1.0955 -0.8088
 5248TIP3   OH215696   3.696   1.490   4.201  0.1787 -0.1754  0.0173
 5248TIP3    H115697   3.730   1.432   4.269 -1.0417  0.2862  1.0371
 5248TIP3    H215698   3.756   1.564   4.201  0.3051 -0.2748  0.4427
 5249TIP3   OH215699   3.863   1.298   5.012  0.2985  0.0647 -0.0357
 5249TIP3    H115700   3.902   1.254   4.936 -1.3155 -1.8144  0.1659
 5249TIP3    H215701   3.896   1.249   5.087 -2.8320 -1.9600  0.1050
 5250TIP3   OH215702   4.656   0.009   3.733 -0.0895 -0.3404 -0.4468
 5250TIP3    H115703   4.619   0.067   3.800  3.1400 -0.9495  2.0244
 5250TIP3    H215704   4.682   0.068   3.662 -1.6365  0.5942 -0.2513
 5251TIP3   OH215705   0.606   6.399   5.684 -0.2912 -0.1550  0.1019
 5251TIP3    H115706   0.585   6.457   5.611 -0.6407  0.5283  0.7465
 5251TIP3    H215707   0.550   6.429   5.756 -1.0744 -1.7975  0.1991
 5252TIP3   OH215708   7.786   7.400   3.442 -0.4634  0.6879 -0.1074
 5252TIP3    H115709   7.780   7.314   3.484  0.2657 -0.0999 -1.5847
 5252TIP3    H215710   7.786   7.462   3.515 -0.7981 -0.5624  0.9892
 5253TIP3   OH215711   4.514   0.182   3.882 -0.1406  0.1065  0.1169
 5253TIP3    H115712   4.558   0.196   3.965 -0.2110  0.9096  0.0239
 5253TIP3    H215713   4.429   0.145   3.905  0.0529 -0.1788  0.3686
 5254TIP3   OH215714   3.187   6.514   3.803  0.0289  0.4529 -0.4432
 5254TIP3    H115715   3.133   6.519   3.881 -0.6867  0.2086 -0.9167
 5254TIP3    H215716   3.197   6.604   3.774  0.0655  0.5182 -0.2253
 5255TIP3   OH215717   3.445  -0.024   5.843  0.4908  0.8496  0.0569
 5255TIP3    H115718   3.394  -0.026   5.924  0.1683  0.7918 -0.1460
 5255TIP3    H215719   3.498   0.056   5.849 -1.7726  2.4629 -1.0482
 5256TIP3   OH215720   1.259   5.366   5.637 -0.1408  0.0564 -0.0280
 5256TIP3    H115721   1.342   5.352   5.682 -0.9214 -0.0327  1.4141
 5256TIP3    H215722   1.229   5.452   5.667  0.2356  0.8487 -1.8567
 5257TIP3   OH215723   4.658   3.759   6.243  0.4737 -0.5806  0.2560
 5257TIP3    H115724   4.637   3.666   6.250  1.4263 -0.7006  1.8441
 5257TIP3    H215725   4.662   3.790   6.334  1.1585  0.7790 -0.2133
 5258TIP3   OH215726   2.862   1.873   4.616 -0.0656  0.4451  0.2097
 5258TIP3    H115727   2.779   1.916   4.593  0.2168  1.7122  1.5024
 5258TIP3    H215728   2.849   1.782   4.592 -1.4174  0.8673 -0.7027
 5259TIP3   OH215729   0.530   6.893   5.303 -0.0592  0.0078 -0.2871
 5259TIP3    H115730   0.529   6.825   5.370 -1.3111 -1.3872 -1.6621
 5259TIP3    H215731   0.623   6.906   5.284  0.3337  0.8065  2.0568
 5260TIP3   OH215732   5.601   1.831   5.431  0.0719 -0.6243 -0.3837
 5260TIP3    H115733   5.547   1.779   5.371  1.3004 -0.9762 -1.1983
 5260TIP3    H215734   5.639   1.899   5.375 -0.3611  0.2621  0.3913
 5261TIP3   OH215735   6.582   2.752   4.714 -0.3619  0.2087 -0.3441
 5261TIP3    H115736   6.674   2.771   4.701 -0.4329 -0.2882 -1.6269
 5261TIP3    H215737   6.541   2.838   4.726  0.1778  0.4607 -0.3008
 5262TIP3   OH215738   3.648   1.004   4.354 -0.0483  0.2763  0.6335
 5262TIP3    H115739   3.668   0.975   4.443 -1.0014  1.5763  1.3044
 5262TIP3    H215740   3.662   1.099   4.356  1.3690  0.1180 -1.0203
 5263TIP3   OH215741   5.933   1.678   5.229  0.5214 -0.0245 -0.2923
 5263TIP3    H115742   5.903   1.624   5.302  1.9735  0.3765  0.6150
 5263TIP3    H215743   5.856   1.687   5.173 -0.6971 -0.0443  1.3524
 5264TIP3   OH215744   6.902   1.594   4.399  0.4811 -0.4628 -0.1146
 5264TIP3    H115745   6.844   1.534   4.353  1.5172 -0.6409 -1.2161
 5264TIP3    H215746   6.857   1.613   4.481 -0.2934 -1.9850 -0.1801
 5265TIP3   OH215747   1.771   6.385   3.276 -0.1445  0.4313  0.1549
 5265TIP3    H115748   1.812   6.453   3.222  1.8616 -0.6975  0.2151
 5265TIP3    H215749   1.767   6.308   3.219 -0.4700 -0.0104  0.7699
 5266TIP3   OH215750   5.828   3.377   5.487 -0.3446  0.0847  0.0789
 5266TIP3    H115751   5.866   3.292   5.509 -0.3429 -0.0882 -0.5774
 5266TIP3    H215752   5.804   3.370   5.394  1.0189  1.2919 -0.3972
 5267TIP3   OH215753   3.982   6.189   3.667 -0.5497  0.3133  0.5389
 5267TIP3    H115754   4.018   6.185   3.756  0.3329  0.3938  0.1888
 5267TIP3    H215755   3.887   6.190   3.680 -0.4345 -0.0869  1.4640
 5268TIP3   OH215756   2.794   0.733   5.587 -0.0607  0.5333 -0.0943
 5268TIP3    H115757   2.864   0.788   5.621  1.1688 -1.0591  0.0432
 5268TIP3    H215758   2.838   0.651   5.561 -2.1136 -1.2068  1.6880
 5269TIP3   OH215759   3.913   3.542   5.997  0.8425 -0.0161 -0.7408
 5269TIP3    H115760   3.877   3.625   5.966 -0.0847 -0.1866 -0.1610
 5269TIP3    H215761   3.894   3.479   5.927  1.3168  0.2093 -1.0690
 5270TIP3   OH215762   6.449   4.158   5.758 -0.2220  0.6559  0.7746
 5270TIP3    H115763   6.481   4.119   5.840  2.8566  1.8486  0.1979
 5270TIP3    H215764   6.407   4.240   5.786 -2.5185 -0.7182  1.4962
 5271TIP3   OH215765   2.561   6.756   4.639 -0.0916  0.0458  0.5037
 5271TIP3    H115766   2.637   6.753   4.697  0.2534  0.6893  0.0965
 5271TIP3    H215767   2.487   6.733   4.694  0.1779  1.0159  1.2837
 5272TIP3   OH215768   5.724   1.947   3.879  0.1401 -0.2147 -0.4050
 5272TIP3    H115769   5.791   2.004   3.842 -1.0744  0.5521 -1.4996
 5272TIP3    H215770   5.700   1.888   3.808 -0.9680  0.1138 -0.3275
 5273TIP3   OH215771   5.509   2.033   6.010  0.4514  0.2222 -0.3528
 5273TIP3    H115772   5.452   2.106   6.035 -2.1969 -1.9168  0.0418
 5273TIP3    H215773   5.551   2.006   6.092  0.4866  0.5076 -0.2774
 5274TIP3   OH215774   6.121   0.382   4.508  0.3129  0.4071 -0.2477
 5274TIP3    H115775   6.110   0.477   4.505 -1.9403  0.2761  2.1973
 5274TIP3    H215776   6.186   0.368   4.577  0.0114  0.1220 -0.0217
 5275TIP3   OH215777   4.601   1.311   3.157 -0.1331  0.0997 -0.1430
 5275TIP3    H115778   4.620   1.342   3.246 -1.1019  1.1917 -0.3094
 5275TIP3    H215779   4.629   1.219   3.158  3.6515  1.1673  0.0740
 5276TIP3   OH215780   6.468   0.777   4.590  0.5056  0.3006 -0.0530
 5276TIP3    H115781   6.517   0.844   4.542  1.9274 -0.1767  0.6839
 5276TIP3    H215782   6.448   0.818   4.674  0.9094  0.0040  0.1928
 5277TIP3   OH215783   4.782   1.565   4.081 -0.0894  0.2125 -0.3608
 5277TIP3    H115784   4.694   1.576   4.047  0.9672  1.7772 -2.7007
 5277TIP3    H215785   4.835   1.544   4.004  1.5827 -0.7060  1.0108
 5278TIP3   OH215786   6.557   1.838   6.317  0.0292 -0.0575 -0.3389
 5278TIP3    H115787   6.509   1.909   6.360 -0.9116 -0.7201 -0.2611
 5278TIP3    H215788   6.492   1.767   6.310  0.3296 -0.1488 -2.3652
 5279TIP3   OH215789   5.686   0.570   5.930 -0.0596 -0.9647 -0.4039
 5279TIP3    H115790   5.780   0.561   5.912 -0.1334 -1.6283 -0.4514
 5279TIP3    H215791   5.644   0.548   5.847 -0.2140  0.4778 -0.7219
 5280TIP3   OH215792   7.169   2.904   5.190 -0.2394 -0.5066 -0.2201
 5280TIP3    H115793   7.251   2.907   5.239  0.4544 -1.3929 -1.2928
 5280TIP3    H215794   7.100   2.906   5.258  0.6765 -0.7023  0.7292
 5281TIP3   OH215795   3.354   1.044   5.374 -0.3734  0.3955  0.9094
 5281TIP3    H115796   3.421   1.005   5.318 -0.3375  1.0375  0.4988
 5281TIP3    H215797   3.367   1.138   5.365 -1.6383  0.5445  0.4438
 5282TIP3   OH215798   7.568   5.645   1.580 -0.1009  0.0733  0.0203
 5282TIP3    H115799   7.642   5.657   1.639 -0.6410 -1.6466  1.0976
 5282TIP3    H215800   7.605   5.600   1.504  0.2392  0.5533 -0.0971
 5283TIP3   OH215801   1.670   0.540   3.641 -0.0530  0.4688 -0.2482
 5283TIP3    H115802   1.669   0.628   3.604  0.3034  0.1278 -1.0754
 5283TIP3    H215803   1.738   0.543   3.709  0.4739  0.6191 -0.7843
 5284TIP3   OH215804   3.458   6.433   3.970 -0.1436  0.5243 -0.1972
 5284TIP3    H115805   3.381   6.461   4.019 -0.0780 -0.5059  0.5100
 5284TIP3    H215806   3.526   6.496   3.993 -0.1793  0.1841  0.8540
 5285TIP3   OH215807   3.327   0.814   5.080 -0.3600  0.0478 -0.1467
 5285TIP3    H115808   3.358   0.799   4.991  1.4810  0.1307  0.4455
 5285TIP3    H215809   3.299   0.728   5.110 -1.5125  0.1209 -0.9830
 5286TIP3   OH215810   4.346   1.834   4.645  0.8328 -0.0496 -0.3201
 5286TIP3    H115811   4.296   1.773   4.592 -0.2332 -0.0084  0.6112
 5286TIP3    H215812   4.438   1.809   4.631  0.4429 -1.4614 -0.4274
 5287TIP3   OH215813   4.732   5.194   6.320 -0.1476 -0.1691  0.1359
 5287TIP3    H115814   4.797   5.161   6.258 -0.9762 -0.2026 -0.7420
 5287TIP3    H215815   4.674   5.248   6.267 -0.7929 -0.0866  0.9116
 5288TIP3   OH215816   1.653   7.091   4.935  0.0764  0.1005  0.1846
 5288TIP3    H115817   1.606   7.034   4.996  0.8762  1.3155  1.9953
 5288TIP3    H215818   1.586   7.152   4.903 -0.0846  0.3100  0.9050
 5289TIP3   OH215819   6.575   2.466   4.090  0.1521  0.0951 -0.5945
 5289TIP3    H115820   6.516   2.510   4.029  0.8661  1.3228 -0.4198
 5289TIP3    H215821   6.546   2.496   4.176 -0.5537 -1.2591 -0.3532
 5290TIP3   OH215822   5.291   1.956   5.833  0.1536  0.4415  0.5124
 5290TIP3    H115823   5.339   1.949   5.750  1.9002  0.0250  1.5385
 5290TIP3    H215824   5.357   1.987   5.896 -0.8929 -0.3038  1.9896
 5291TIP3   OH215825   2.625   2.667   6.373  0.2692  0.2664  0.0318
 5291TIP3    H115826   2.712   2.633   6.357 -0.0058 -0.1068 -0.6758
 5291TIP3    H215827   2.575   2.593   6.407  0.0557  0.3166 -0.1677
 5292TIP3   OH215828   7.399   6.639   0.034  0.0399  0.0625 -0.0946
 5292TIP3    H115829   7.449   6.561   0.059  1.0201  1.0980  1.2195
 5292TIP3    H215830   7.367   6.620  -0.054 -1.4310 -2.6824  0.9757
 5293TIP3   OH215831   5.449   3.049   5.526  0.2156  0.5500 -0.5459
 5293TIP3    H115832   5.515   3.114   5.503  0.0001  1.5049  1.3727
 5293TIP3    H215833   5.366   3.089   5.500 -0.0146  1.5657  1.6027
 5294TIP3   OH215834   7.523   2.007   4.428 -0.2469  0.1357 -0.1591
 5294TIP3    H115835   7.474   2.029   4.349  0.4852  1.7114 -0.1931
 5294TIP3    H215836   7.458   2.014   4.499 -0.7471 -0.6575 -0.5274
 5295TIP3   OH215837   4.457   1.501   6.173  0.0905  0.1612  0.0672
 5295TIP3    H115838   4.423   1.591   6.180 -2.1350 -0.5022 -1.5330
 5295TIP3    H215839   4.507   1.501   6.092 -0.6067 -0.2326 -0.3704
 5296TIP3   OH215840   5.932   2.707   4.913  0.0818 -0.3065 -0.2728
 5296TIP3    H115841   5.866   2.640   4.896 -0.1961 -0.1184  0.0588
 5296TIP3    H215842   6.014   2.658   4.923  0.0537 -0.5121 -1.0234
 5297TIP3   OH215843   6.066   2.643   2.851  0.4723  0.3018  0.1473
 5297TIP3    H115844   6.076   2.669   2.760  0.4381 -0.9910 -0.2215
 5297TIP3    H215845   6.156   2.635   2.884  0.5051 -0.6679 -0.1768
 5298TIP3   OH215846   4.645   2.643   4.542 -0.2450  0.4167 -0.4952
 5298TIP3    H115847   4.675   2.723   4.585  0.0006 -0.9439  1.9490
 5298TIP3    H215848   4.686   2.645   4.456  1.9716  1.6057  0.5352
 5299TIP3   OH215849   6.237   1.141   4.714 -0.1163 -0.6258  0.7518
 5299TIP3    H115850   6.151   1.180   4.732  1.2607  1.7113  2.6869
 5299TIP3    H215851   6.249   1.153   4.620 -0.2466  2.7976  1.0805
 5300TIP3   OH215852   0.572   5.694   6.303  0.3390  0.0204 -0.6069
 5300TIP3    H115853   0.562   5.742   6.221 -0.2584 -0.8553 -1.0487
 5300TIP3    H215854   0.667   5.695   6.319  0.3565  1.1371 -0.7306
 5301TIP3   OH215855   6.895   1.610   3.362  0.1985 -0.1839 -0.5732
 5301TIP3    H115856   6.960   1.563   3.311  0.2374  0.1884 -0.8751
 5301TIP3    H215857   6.936   1.625   3.446 -0.0861 -1.3130 -0.2302
 5302TIP3   OH215858   2.652   6.209   5.685 -1.0136 -0.1354 -0.3206
 5302TIP3    H115859   2.605   6.228   5.766 -1.3380  0.8362 -0.7266
 5302TIP3    H215860   2.713   6.139   5.708 -2.1789 -0.9367  0.3785
 5303TIP3   OH215861   6.210   0.380   4.218  0.2474  0.2549 -0.2009
 5303TIP3    H115862   6.147   0.389   4.289 -0.1053 -1.8243 -0.2331
 5303TIP3    H215863   6.296   0.386   4.260  0.0368  0.0031  0.2617
 5304TIP3   OH215864   3.545   0.861   3.569  0.5006  0.0160  0.1266
 5304TIP3    H115865   3.595   0.788   3.532  0.5097 -0.6812  1.4757
 5304TIP3    H215866   3.495   0.823   3.641 -0.6027  1.0682 -0.0574
 5305TIP3   OH215867   2.224   7.226   4.797  0.0766  0.6933 -0.3496
 5305TIP3    H115868   2.131   7.246   4.786 -0.2148 -0.8083 -0.8185
 5305TIP3    H215869   2.267   7.271   4.725 -0.5671 -0.3962 -1.4348
 5306TIP3   OH215870   6.073   1.294   4.411  0.3128  0.1329 -0.2942
 5306TIP3    H115871   6.033   1.229   4.469  1.6369  0.0916  0.5901
 5306TIP3    H215872   6.044   1.267   4.323 -0.7192 -0.5115  0.2203
 5307TIP3   OH215873   0.580   5.833   2.961  0.3210  0.5156 -0.2885
 5307TIP3    H115874   0.647   5.839   2.892 -1.3157  1.7597 -1.8033
 5307TIP3    H215875   0.543   5.921   2.966  0.7305  0.5745  2.5462
 5308TIP3   OH215876   6.846   2.145   3.445  0.2424 -0.2897 -0.0941
 5308TIP3    H115877   6.771   2.157   3.386  0.2049  0.2215  0.0505
 5308TIP3    H215878   6.902   2.081   3.400  0.0015 -0.2385 -0.4759
 5309TIP3   OH215879   6.334   1.801   4.279  0.0698 -0.4293  0.4506
 5309TIP3    H115880   6.263   1.755   4.235  0.6954 -0.0656 -0.9707
 5309TIP3    H215881   6.299   1.888   4.296 -0.2369 -0.6289  0.8477
 5310TIP3   OH215882   5.531   0.963   6.000  0.2040  0.0191  0.2200
 5310TIP3    H115883   5.467   0.902   5.962 -0.5126  0.9280 -0.0393
 5310TIP3    H215884   5.535   1.036   5.938  0.1442  0.8095  1.1387
 5311TIP3   OH215885   5.104   2.354   4.392  0.2690  0.6132 -0.6669
 5311TIP3    H115886   5.055   2.422   4.347  0.0881  0.1556 -1.1729
 5311TIP3    H215887   5.189   2.351   4.347  0.7766  1.4193  0.2209
 5312TIP3   OH215888   6.220   0.099   4.442  0.1547  0.1818 -0.0475
 5312TIP3    H115889   6.194   0.191   4.450 -0.0008  0.1743 -0.4336
 5312TIP3    H215890   6.315   0.102   4.427  0.3689  0.2133  1.2906
 5313TIP3   OH215891   4.378   1.243   4.105 -0.4666  0.1564 -0.3508
 5313TIP3    H115892   4.380   1.324   4.155 -0.0889 -0.3308  0.4228
 5313TIP3    H215893   4.410   1.268   4.018 -1.3434  1.0485 -0.4350
 5314TIP3   OH215894   4.381   1.314   3.822 -0.0077  0.0207  0.3280
 5314TIP3    H115895   4.393   1.400   3.782 -1.1185 -0.0396 -0.1631
 5314TIP3    H215896   4.463   1.267   3.805 -0.6014 -0.1695 -2.3330
 5315TIP3   OH215897   1.058   0.076   0.831  0.2689 -0.0772  0.1519
 5315TIP3    H115898   1.029   0.135   0.901  0.1264 -0.0430  0.0648
 5315TIP3    H215899   1.145   0.047   0.859  1.0727  1.5016 -0.6434
 5316TIP3   OH215900   4.215   3.512   6.455 -0.1064 -0.2746  0.0001
 5316TIP3    H115901   4.212   3.587   6.395  1.1734 -0.2187 -0.0117
 5316TIP3    H215902   4.254   3.442   6.403 -0.3470 -0.6470  0.3252
 5317TIP3   OH215903   6.819   7.021   4.679  0.2332 -0.0440 -0.0582
 5317TIP3    H115904   6.820   7.085   4.608  0.9754 -1.6075 -1.4830
 5317TIP3    H215905   6.769   6.948   4.643  0.7361 -0.9019  0.9908
 5318TIP3   OH215906   1.345   6.856   5.975 -0.0527 -1.0657  0.4763
 5318TIP3    H115907   1.402   6.811   5.914  0.5299  0.3323 -0.0140
 5318TIP3    H215908   1.404   6.907   6.031 -0.8460  1.3078 -0.7788
 5319TIP3   OH215909   5.070   0.584   3.026  0.6708  0.7845  0.4217
 5319TIP3    H115910   5.029   0.581   2.940  1.5764 -2.3408  0.0506
 5319TIP3    H215911   5.000   0.562   3.087  0.6416  0.3382  0.2304
 5320TIP3   OH215912   2.440   5.875   5.785  0.4136  0.2433 -0.2811
 5320TIP3    H115913   2.422   5.963   5.818 -1.4559 -0.3615  0.3730
 5320TIP3    H215914   2.354   5.841   5.760  0.7468 -2.4308  2.0815
 5321TIP3   OH215915   2.385   6.439   5.482 -0.4717 -0.1754 -0.2744
 5321TIP3    H115916   2.420   6.351   5.472  0.9743  0.3122  0.4598
 5321TIP3    H215917   2.344   6.458   5.397  1.5475 -0.5431 -1.3700
 5322TIP3   OH215918   3.110   7.198   5.656 -0.2271  0.1910 -0.2523
 5322TIP3    H115919   3.046   7.232   5.719  1.1296  1.5007  0.4342
 5322TIP3    H215920   3.165   7.138   5.707  2.2299  2.8873  0.3655
 5323TIP3   OH215921   2.730   7.119   4.519  0.4067 -0.1535  0.5794
 5323TIP3    H115922   2.677   7.185   4.564 -0.0961 -0.3601  0.2930
 5323TIP3    H215923   2.818   7.157   4.515  0.1891  0.3604  0.7024
 5324TIP3   OH215924   4.819   3.746   0.231 -0.0486  0.1391  0.5102
 5324TIP3    H115925   4.878   3.688   0.280 -0.1055 -0.1588  0.2253
 5324TIP3    H215926   4.871   3.825   0.217  0.9365 -0.7819 -1.2892
 5325TIP3   OH215927   4.491   0.738   4.125  0.1004 -0.1268  0.1193
 5325TIP3    H115928   4.483   0.643   4.138 -2.6963  0.3091  1.9489
 5325TIP3    H215929   4.402   0.767   4.105  1.0608  2.0350 -1.1844
 5326TIP3   OH215930   2.804   7.254   4.885  0.2049  0.0805 -0.3738
 5326TIP3    H115931   2.727   7.198   4.878  0.3144 -0.1242  0.0272
 5326TIP3    H215932   2.791   7.323   4.820  0.8212 -1.3214 -2.0125
 5327TIP3   OH215933   3.507   1.075   2.992  0.1035 -0.1760  0.4263
 5327TIP3    H115934   3.533   1.136   3.061 -0.8577  1.2634 -0.4553
 5327TIP3    H215935   3.590   1.037   2.962  0.6186 -0.0525  1.6705
 5328TIP3   OH215936   6.315   2.659   5.899  0.0646 -0.2103 -0.0975
 5328TIP3    H115937   6.234   2.647   5.849 -0.4129  0.7773  0.4375
 5328TIP3    H215938   6.308   2.597   5.972 -1.3327  1.5910  1.3323
 5329TIP3   OH215939   2.692   6.585   4.436 -0.0452  0.0890 -0.1511
 5329TIP3    H115940   2.655   6.607   4.350 -1.4553  0.3696  0.5126
 5329TIP3    H215941   2.639   6.634   4.498  0.4603 -0.7248  0.9440
 5330TIP3   OH215942   6.287   1.723   6.261 -0.0202 -0.0882 -0.1442
 5330TIP3    H115943   6.192   1.728   6.272 -0.1305 -1.8756 -0.1714
 5330TIP3    H215944   6.314   1.653   6.320  0.7303 -2.5618 -3.3067
 5331TIP3   OH215945   5.197   0.317   4.184  0.1152 -0.1499  0.3264
 5331TIP3    H115946   5.266   0.262   4.148 -0.7904 -0.7323 -0.5810
 5331TIP3    H215947   5.190   0.390   4.122  1.0973  0.8201  1.3572
 5332TIP3   OH215948   4.000   1.588   5.360 -0.2200 -0.6935 -0.2082
 5332TIP3    H115949   3.980   1.681   5.367 -1.7330 -0.9188 -1.1833
 5332TIP3    H215950   3.921   1.549   5.321  0.3857 -2.3792  0.1737
 5333TIP3   OH215951   5.980   1.465   3.203 -0.1000 -0.0523 -0.4802
 5333TIP3    H115952   5.935   1.513   3.272  0.6656  0.9589 -0.6588
 5333TIP3    H215953   5.991   1.377   3.238  1.3256  0.7504  1.1947
 5334TIP3   OH215954   0.928   7.369   3.795 -0.7076 -0.4580 -0.5537
 5334TIP3    H115955   0.906   7.461   3.779  0.4552 -0.1365 -0.3953
 5334TIP3    H215956   1.023   7.365   3.778 -1.0346 -1.9721 -2.1735
 5335TIP3   OH215957   3.774   0.171   5.345  0.2280 -0.0309 -0.2322
 5335TIP3    H115958   3.757   0.093   5.292  0.6719 -1.1174  1.1645
 5335TIP3    H215959   3.792   0.240   5.282 -0.5259 -0.9778 -1.5138
 5336TIP3   OH215960   4.685   2.355   5.606 -0.3481  0.4065  0.5073
 5336TIP3    H115961   4.742   2.309   5.545  0.0528  0.7864  0.5987
 5336TIP3    H215962   4.663   2.437   5.561  0.5908  1.0469  1.2009
 5337TIP3   OH215963   0.258   6.998   2.775 -0.5536  0.0782  0.2459
 5337TIP3    H115964   0.229   6.910   2.800 -1.5350  0.0727 -0.8615
 5337TIP3    H215965   0.343   7.008   2.816 -1.2492 -0.6848  1.9242
 5338TIP3   OH215966   3.629   1.607   5.454 -0.1687 -0.1409 -0.3411
 5338TIP3    H115967   3.607   1.520   5.487 -1.3857  0.5504  0.7441
 5338TIP3    H215968   3.715   1.597   5.415  1.2170 -1.0946  2.7846
 5339TIP3   OH215969   2.821   6.990   4.224 -0.3502  0.1904 -0.1083
 5339TIP3    H115970   2.763   7.049   4.273  0.8856  0.0237  1.5968
 5339TIP3    H215971   2.860   7.046   4.156 -0.3465  0.9857  0.5349
 5340TIP3   OH215972   3.715   1.658   4.915 -0.2271  0.0904  0.4638
 5340TIP3    H115973   3.660   1.710   4.858 -2.0802 -1.2446  0.9820
 5340TIP3    H215974   3.766   1.722   4.965 -1.4025  1.3551  0.0664
 5341TIP3   OH215975   2.418   1.677   5.242  0.3380 -0.0763  0.3585
 5341TIP3    H115976   2.485   1.641   5.300  0.5328  1.8767  1.3808
 5341TIP3    H215977   2.350   1.710   5.300 -0.8424 -0.7255 -0.6283
 5342TIP3   OH215978   4.489   0.388   3.355  0.1638 -0.5910  0.0505
 5342TIP3    H115979   4.532   0.311   3.392 -1.3251 -0.4242  2.2019
 5342TIP3    H215980   4.553   0.424   3.294  1.8339 -2.1315  0.8434
 5343TIP3   OH215981   4.626   1.216   3.722 -0.2550  0.4790  0.3681
 5343TIP3    H115982   4.640   1.121   3.719 -1.7158  0.2813 -0.8583
 5343TIP3    H215983   4.672   1.249   3.645  1.0079  0.9073  1.2714
 5344TIP3   OH215984   3.741   1.069   3.557 -0.1151 -0.1976 -0.0794
 5344TIP3    H115985   3.725   1.135   3.624 -0.9896 -0.6217  0.1485
 5344TIP3    H215986   3.691   0.993   3.586  3.1925 -1.9783  1.1774
 5345TIP3   OH215987   5.213   1.849   6.281  1.8296  0.2968  0.6348
 5345TIP3    H115988   5.212   1.940   6.309  1.3419  0.7208 -0.7146
 5345TIP3    H215989   5.167   1.849   6.197  0.8011 -1.3784  1.1701
 5346TIP3   OH215990   2.403   1.450   6.189 -0.3281 -0.1089  0.1572
 5346TIP3    H115991   2.398   1.476   6.097 -1.2163 -0.6991  0.0351
 5346TIP3    H215992   2.329   1.494   6.231 -1.5977 -2.0754  0.0317
 5347TIP3   OH215993   5.794   2.432   4.815 -0.1677 -0.1954 -0.0340
 5347TIP3    H115994   5.739   2.357   4.836 -0.3307  0.5399  2.3158
 5347TIP3    H215995   5.883   2.398   4.815 -0.0787 -0.0787  2.8228
 5348TIP3   OH215996   4.766   2.619   4.292  0.2924 -0.3970  0.0774
 5348TIP3    H115997   4.862   2.611   4.293  0.3778  0.7290  0.8457
 5348TIP3    H215998   4.738   2.555   4.227  1.7421  1.1431 -2.1083
 5349TIP3   OH215999   1.575   3.490   0.211  0.5936 -0.0016  0.3274
 5349TIP3    H116000   1.587   3.417   0.152 -0.4134  0.0410  0.0581
 5349TIP3    H216001   1.650   3.486   0.271 -0.1437 -2.0482  1.1559
 5350TIP3   OH216002   2.384   6.831   3.668 -0.2973  0.3881  0.8508
 5350TIP3    H116003   2.337   6.908   3.700 -1.2310 -1.0515  3.0556
 5350TIP3    H216004   2.452   6.814   3.733  0.0363 -0.5445  0.2869
 5351TIP3   OH216005   7.181   0.186   4.900 -0.5365  0.4136  0.0473
 5351TIP3    H116006   7.104   0.147   4.941 -0.4745  1.1070  0.8393
 5351TIP3    H216007   7.195   0.268   4.948  0.1097  0.7682 -0.7328
 5352TIP3   OH216008   3.480   1.068   4.970  0.0162  0.0092 -0.0294
 5352TIP3    H116009   3.403   1.112   5.006 -0.0339 -0.5327  0.5335
 5352TIP3    H216010   3.521   1.026   5.046 -1.4519 -3.2231 -0.9408
 5353TIP3   OH216011   5.271   1.098   3.252 -0.1215 -0.6297  0.0015
 5353TIP3    H116012   5.318   1.051   3.183 -2.9500  0.6671 -2.9482
 5353TIP3    H216013   5.319   1.180   3.261  0.2779 -0.8113 -0.4180
 5354TIP3   OH216014   2.582   5.055   3.039  0.3567  0.0488 -0.3920
 5354TIP3    H116015   2.633   5.092   3.112 -1.6855  1.2152  0.4793
 5354TIP3    H216016   2.539   4.979   3.077  0.3859 -0.1559 -0.7720
 5355TIP3   OH216017   5.939   1.940   3.326 -0.1841 -0.1515  0.1573
 5355TIP3    H116018   5.944   1.916   3.233 -0.1858 -0.7796  0.3207
 5355TIP3    H216019   5.886   2.020   3.327  0.1050  0.0501 -0.4170
 5356TIP3   OH216020   2.902   1.627   3.333  0.5780 -0.0775  0.7565
 5356TIP3    H116021   2.898   1.680   3.253 -0.0004 -1.4258 -0.1158
 5356TIP3    H216022   2.924   1.690   3.402 -1.2629  1.5113 -0.0583
 5357TIP3   OH216023   3.912   2.000   4.508  0.2027  0.2211 -0.1026
 5357TIP3    H116024   3.909   2.020   4.415  3.4148  0.9189 -0.1184
 5357TIP3    H216025   3.852   1.926   4.520  1.0015 -0.9403 -2.9995
 5358TIP3   OH216026   4.755   2.831   5.942  0.0714  0.1370 -0.0108
 5358TIP3    H116027   4.685   2.881   5.901 -0.4506 -0.8845 -0.3890
 5358TIP3    H216028   4.774   2.760   5.880  1.0056  0.0417  0.3738
 5359TIP3   OH216029   6.888   2.672   4.018  0.3875  0.4035 -0.1721
 5359TIP3    H116030   6.835   2.613   3.963 -1.4909  1.9391 -0.0484
 5359TIP3    H216031   6.936   2.726   3.955 -0.4702  1.0170 -0.3065
 5360TIP3   OH216032   6.963   5.924   0.322 -0.7808  0.3654 -0.0074
 5360TIP3    H116033   7.017   5.900   0.397 -2.3230  0.0458  1.0111
 5360TIP3    H216034   7.007   6.000   0.284  0.3417  0.1530  0.8405
 5361TIP3   OH216035   3.853   6.379   4.846  0.1505  0.7109  0.0683
 5361TIP3    H116036   3.873   6.297   4.802 -0.2282  0.7196 -0.1278
 5361TIP3    H216037   3.761   6.370   4.872 -0.6693  2.1112 -2.2621
 5362TIP3   OH216038   5.750   1.133   5.748  0.0833 -0.1892  0.5160
 5362TIP3    H116039   5.708   1.055   5.711 -1.2370  0.9665 -0.5031
 5362TIP3    H216040   5.826   1.147   5.691 -2.7226  2.4113 -2.8785
 5363TIP3   OH216041   4.003   2.193   4.682 -0.2669 -0.2516  0.0969
 5363TIP3    H116042   3.986   2.111   4.636 -0.2871 -0.1645 -0.0497
 5363TIP3    H216043   3.974   2.177   4.772 -0.7660 -0.2291 -0.0601
 5364TIP3   OH216044   0.503   4.269   0.014 -0.4288  0.2081  0.5515
 5364TIP3    H116045   0.568   4.257   0.084 -1.6663 -0.2594  1.6355
 5364TIP3    H216046   0.555   4.289  -0.064  1.0258 -0.3007  1.3767
 5365TIP3   OH216047   4.701   0.829   4.672  0.8245  0.3751  0.2812
 5365TIP3    H116048   4.641   0.845   4.745  0.4749 -2.0410  0.5709
 5365TIP3    H216049   4.649   0.847   4.593  0.0475 -0.6054  0.5601
 5366TIP3   OH216050   5.683   0.791   4.768  0.0888 -0.1724  0.1600
 5366TIP3    H116051   5.641   0.877   4.764  2.9163  1.2095 -2.4636
 5366TIP3    H216052   5.743   0.797   4.842  1.0014  0.5348 -0.6112
 5367TIP3   OH216053   1.928   6.445   6.038  0.0241  0.4931 -0.7567
 5367TIP3    H116054   1.875   6.507   5.988 -1.0540  0.0886 -0.1128
 5367TIP3    H216055   1.973   6.394   5.971 -1.1296  0.1994 -1.3201
 5368TIP3   OH216056   4.228   0.828   4.058  0.2135  0.5509  0.1200
 5368TIP3    H116057   4.257   0.888   3.988  0.0865 -2.1542 -2.3355
 5368TIP3    H216058   4.137   0.810   4.037  0.6926 -1.7196 -0.0678
 5369TIP3   OH216059   4.513   0.135   4.325  0.5307  0.0222 -0.1475
 5369TIP3    H116060   4.475   0.145   4.413 -0.8202 -1.4199 -0.5400
 5369TIP3    H216061   4.452   0.077   4.279 -0.3903  3.0491 -2.9820
 5370TIP3   OH216062   3.996   2.867   4.031  0.0843 -0.2171 -0.3630
 5370TIP3    H116063   3.975   2.889   3.940  0.0022 -0.7952 -0.4821
 5370TIP3    H216064   4.072   2.809   4.024 -0.9265 -1.5910 -0.1480
 5371TIP3   OH216065   2.178   5.632   0.346  0.5667 -0.3463  0.1322
 5371TIP3    H116066   2.142   5.550   0.313 -1.4714  0.3041  0.6528
 5371TIP3    H216067   2.252   5.606   0.400 -0.0760 -1.8355  0.3104
 5372TIP3   OH216068   7.216   1.801   4.498 -0.5320  0.0894 -0.0004
 5372TIP3    H116069   7.204   1.892   4.526  0.7350 -0.1889  1.5391
 5372TIP3    H216070   7.298   1.774   4.539 -0.2524 -1.3747 -1.4517
 5373TIP3   OH216071   5.953   1.724   4.740 -0.6942  0.3593 -0.2213
 5373TIP3    H116072   5.897   1.748   4.665 -1.1840 -2.1174 -0.6926
 5373TIP3    H216073   5.893   1.682   4.801 -0.0922  1.4501  1.1315
 5374TIP3   OH216074   1.600   6.428   4.571  0.0387  0.1190 -0.5434
 5374TIP3    H116075   1.549   6.389   4.642 -2.9989  0.6903 -2.3133
 5374TIP3    H216076   1.673   6.471   4.615 -0.8803 -0.8878  2.0957
 5375TIP3   OH216077   5.040   2.617   4.309  0.1460  0.0427  0.3003
 5375TIP3    H116078   5.128   2.621   4.272  0.5065  1.3541  1.2768
 5375TIP3    H216079   5.029   2.700   4.355 -0.7581 -1.0225  2.0827
 5376TIP3   OH216080   7.616   1.221   3.676 -0.0476 -0.0710 -0.2068
 5376TIP3    H116081   7.645   1.159   3.743 -1.8705 -0.7576 -0.0354
 5376TIP3    H216082   7.578   1.167   3.607 -0.4197  0.7796 -0.6856
 5377TIP3   OH216083   4.283   1.914   6.067 -0.0302 -0.0593  0.2283
 5377TIP3    H116084   4.277   1.828   6.026 -2.2509 -0.4446  1.2734
 5377TIP3    H216085   4.320   1.896   6.154  1.7328  0.3551 -0.4260
 5378TIP3   OH216086   6.414   1.238   4.942  0.0970  0.0682 -0.0506
 5378TIP3    H116087   6.340   1.222   4.883  1.1249 -1.4581 -0.9787
 5378TIP3    H216088   6.419   1.333   4.949 -2.3182  0.1786  0.5128
 5379TIP3   OH216089   7.539   0.777   6.325 -0.2965  0.0854 -0.1032
 5379TIP3    H116090   7.603   0.733   6.381  0.2472  2.5158  1.2495
 5379TIP3    H216091   7.590   0.808   6.250 -0.2800  0.1948 -0.0477
 5380TIP3   OH216092   6.355   1.910   5.248 -0.1081 -0.6801 -0.0387
 5380TIP3    H116093   6.431   1.947   5.202 -1.1038  2.7455  0.9266
 5380TIP3    H216094   6.331   1.976   5.313 -1.2608 -3.6111  2.7074
 5381TIP3   OH216095   6.452   1.854   3.869  0.0343 -0.2580 -0.2395
 5381TIP3    H116096   6.398   1.791   3.822 -0.6873  0.3957 -0.3000
 5381TIP3    H216097   6.423   1.939   3.837  1.9706  0.0547 -1.1786
 5382TIP3   OH216098   3.932   2.804   5.303 -0.2521 -0.2966 -0.0507
 5382TIP3    H116099   3.889   2.738   5.247 -0.9310 -1.1954  1.5100
 5382TIP3    H216100   4.025   2.786   5.293 -0.3143  0.0827 -1.5300
 5383TIP3   OH216101   3.647   1.816   5.625  0.4891 -0.4572 -0.4157
 5383TIP3    H116102   3.644   1.739   5.568 -0.3651  0.4442 -1.6151
 5383TIP3    H216103   3.556   1.830   5.651  0.2921  1.4978 -2.0586
 5384TIP3   OH216104   5.294   4.525   5.740  0.1162  0.0201 -0.0449
 5384TIP3    H116105   5.381   4.490   5.722 -0.7281 -2.2645  0.1602
 5384TIP3    H216106   5.263   4.557   5.655 -0.4788 -2.9439 -0.9755
 5385TIP3   OH216107   6.742   2.560   6.415  0.2660  0.3908 -0.5929
 5385TIP3    H116108   6.669   2.595   6.363  0.4154  1.6157  0.0026
 5385TIP3    H216109   6.777   2.488   6.362 -3.2200 -2.1878  0.4033
 5386TIP3   OH216110   5.371   1.951   4.879  0.1704 -0.6616 -0.0553
 5386TIP3    H116111   5.408   1.885   4.820  0.2963  0.8649 -1.7432
 5386TIP3    H216112   5.399   2.034   4.841 -2.0679  0.4225  0.6314
 5387TIP3   OH216113   7.231   2.278   4.235  0.2595  0.4276 -0.2201
 5387TIP3    H116114   7.189   2.345   4.182  0.2216 -0.1283 -0.8942
 5387TIP3    H216115   7.167   2.258   4.303 -0.7537 -0.7344 -1.5040
 5388TIP3   OH216116   5.986   2.063   3.855 -0.0028 -0.2947 -0.0135
 5388TIP3    H116117   6.018   2.150   3.827  2.9070 -1.6175 -1.0332
 5388TIP3    H216118   6.008   2.059   3.948 -1.3624  0.5695  0.3546
 5389TIP3   OH216119   2.543   7.298   4.675 -0.5120  0.0266  0.1533
 5389TIP3    H116120   2.579   7.386   4.665 -0.9291  0.1255 -0.4317
 5389TIP3    H216121   2.463   7.298   4.623 -1.2564 -0.2680  1.2784
 5390TIP3   OH216122   5.667   1.486   4.655  0.5236 -0.0268 -0.2924
 5390TIP3    H116123   5.686   1.392   4.648 -0.0959 -0.1241 -0.6974
 5390TIP3    H216124   5.710   1.513   4.736  2.3439 -0.2463 -1.1676
 5391TIP3   OH216125   5.821   1.519   5.658  0.1344  0.6092  0.8550
 5391TIP3    H116126   5.832   1.489   5.568  1.4710 -0.1867  1.2862
 5391TIP3    H216127   5.910   1.532   5.690 -0.2731 -1.0215  2.7022
 5392TIP3   OH216128   3.759   0.197   4.630 -0.0288 -0.3850  0.3027
 5392TIP3    H116129   3.790   0.286   4.614  0.7960 -0.8449 -0.6858
 5392TIP3    H216130   3.778   0.182   4.723  0.7533  0.1115  0.2299
 5393TIP3   OH216131   3.682   0.845   5.881 -0.1950  0.0432 -0.3282
 5393TIP3    H116132   3.720   0.775   5.935  2.1032  1.4339 -0.0793
 5393TIP3    H216133   3.756   0.880   5.831 -1.5657  1.4077 -1.4634
 5394TIP3   OH216134   5.030   0.590   3.565 -0.1440  0.1383  0.7597
 5394TIP3    H116135   5.121   0.566   3.546  0.1332  0.3074  1.8792
 5394TIP3    H216136   5.030   0.615   3.657 -1.2664  0.4489  0.6826
 5395TIP3   OH216137   5.681   3.173   5.124 -0.3123  0.0613 -0.4896
 5395TIP3    H116138   5.618   3.243   5.107  1.8218  2.3618  0.6598
 5395TIP3    H216139   5.761   3.202   5.079  0.8218 -1.2227  0.6442
 5396TIP3   OH216140   4.525   0.364   3.650 -0.0038 -0.0549  0.4510
 5396TIP3    H116141   4.614   0.374   3.614 -0.5344  0.0583 -0.8480
 5396TIP3    H216142   4.539   0.342   3.742  1.3874 -0.4799  0.1518
 5397TIP3   OH216143   4.784   7.023   3.681  0.1169  0.4831 -0.1978
 5397TIP3    H116144   4.802   7.083   3.609 -1.0738  0.3367 -0.6408
 5397TIP3    H216145   4.870   6.995   3.712  0.6468  0.6904 -1.4517
 5398TIP3   OH216146   1.044   6.854   5.797 -0.2290 -0.6164  0.0897
 5398TIP3    H116147   1.040   6.760   5.810  0.2577 -0.3477  2.3736
 5398TIP3    H216148   1.135   6.873   5.775 -0.0871 -0.5742  0.6927
 5399TIP3   OH216149   2.570   0.434   5.470  0.0612 -0.0421  0.1545
 5399TIP3    H116150   2.612   0.368   5.525 -0.5447  0.0152  0.6835
 5399TIP3    H216151   2.570   0.513   5.523  0.3825  0.2753 -0.3109
 5400TIP3   OH216152   4.256   2.038   4.445 -0.9164 -0.7802 -0.1931
 5400TIP3    H116153   4.223   1.990   4.521 -0.2212 -0.3322  0.3986
 5400TIP3    H216154   4.350   2.019   4.443 -0.7083  0.2213 -0.1972
 5401TIP3   OH216155   3.208   0.555   5.050 -0.0320 -0.2890  0.4630
 5401TIP3    H116156   3.133   0.614   5.064  0.4745  0.1571  1.3354
 5401TIP3    H216157   3.198   0.525   4.960 -0.1545  1.3470 -0.0861
 5402TIP3   OH216158   1.386   7.029   4.497 -0.2610  0.1513  0.4395
 5402TIP3    H116159   1.398   7.093   4.567 -0.9069  1.0330 -0.2304
 5402TIP3    H216160   1.450   6.961   4.515  1.0308  1.4074  0.7125
 5403TIP3   OH216161   4.320   2.336   5.844  0.3446  0.3719  0.5148
 5403TIP3    H116162   4.251   2.307   5.903 -1.5261 -1.5142 -2.4524
 5403TIP3    H216163   4.396   2.283   5.869 -0.6148 -0.9179  0.7811
 5404TIP3   OH216164   6.770   1.914   4.205  0.0296 -0.1169 -0.0591
 5404TIP3    H116165   6.691   1.880   4.162 -0.5235  1.7991 -0.6101
 5404TIP3    H216166   6.737   1.956   4.284  0.5686  0.2223 -0.0160
 5405TIP3   OH216167   2.702   2.030   5.764 -0.9080  0.4365 -0.1801
 5405TIP3    H116168   2.679   2.009   5.855  1.9367 -0.3569  0.4203
 5405TIP3    H216169   2.786   2.075   5.771 -1.2866  1.5253 -2.3458
 5406TIP3   OH216170   4.183   0.697   4.620  0.1308 -0.2529 -0.1709
 5406TIP3    H116171   4.226   0.679   4.536 -2.2646 -1.7377 -1.1184
 5406TIP3    H216172   4.124   0.771   4.601 -0.6192 -0.7740  0.1253
 5407TIP3   OH216173   0.503   6.609   1.221  0.4205  0.2860 -0.2604
 5407TIP3    H116174   0.542   6.684   1.175  4.7885 -0.1159  2.4303
 5407TIP3    H216175   0.531   6.533   1.170  0.1270  0.2008 -0.2954
 5408TIP3   OH216176   0.505   6.708   0.209  0.4363  0.0788  0.3461
 5408TIP3    H116177   0.522   6.749   0.294  0.0497  2.6373 -0.7616
 5408TIP3    H216178   0.434   6.645   0.227 -1.1378  2.1172  1.5249
 5409TIP3   OH216179   5.091   1.694   3.264  0.6524  0.4886  0.4198
 5409TIP3    H116180   5.122   1.603   3.273 -0.0993  0.1549 -0.2640
 5409TIP3    H216181   5.170   1.747   3.271  1.6332 -0.4105 -2.7344
 5410TIP3   OH216182   7.105   5.923   0.586 -0.0492  0.7199 -0.3020
 5410TIP3    H116183   7.067   5.999   0.630 -2.1977 -0.1743 -0.5661
 5410TIP3    H216184   7.145   5.871   0.656 -0.5918  0.9345  0.1649
 5411TIP3   OH216185   4.739  -0.009   4.424 -0.2902 -0.0807  0.2903
 5411TIP3    H116186   4.652   0.030   4.430 -0.2858  0.0514 -0.4603
 5411TIP3    H216187   4.779   0.033   4.348  0.4399 -0.1162  0.6500
 5412TIP3   OH216188   4.007   1.188   5.210 -0.2798  0.2586 -0.0506
 5412TIP3    H116189   4.067   1.232   5.271 -1.1737  1.4540 -0.0261
 5412TIP3    H216190   4.056   1.111   5.180  0.5978  0.2658  1.3178
 5413TIP3   OH216191   5.698   1.038   4.360 -0.5575 -0.7957  0.3381
 5413TIP3    H116192   5.638   1.106   4.332 -0.9251 -1.6374 -0.9753
 5413TIP3    H216193   5.644   0.959   4.365  0.5369 -1.6801 -1.4426
 5414TIP3   OH216194   4.834   1.365   2.909 -0.0471  0.1368  0.4259
 5414TIP3    H116195   4.872   1.287   2.950  0.0069  0.1524  0.4055
 5414TIP3    H216196   4.868   1.438   2.961  1.1151  0.2473 -0.4738
 5415TIP3   OH216197   5.782   1.311   3.066 -0.5442  0.0746  0.5322
 5415TIP3    H116198   5.747   1.382   3.121 -0.5351 -0.5298  1.3326
 5415TIP3    H216199   5.846   1.267   3.122  0.3541  0.2004 -0.3926
 5416TIP3   OH216200   4.002   1.064   3.742 -0.9652 -0.0067  0.1279
 5416TIP3    H116201   4.089   1.074   3.782 -1.4006  0.2982  1.0238
 5416TIP3    H216202   4.019   1.053   3.649 -0.0057  0.8764  0.1939
 5417TIP3   OH216203   5.273   1.532   4.406 -0.0644 -0.6230 -0.1223
 5417TIP3    H116204   5.213   1.465   4.374  0.0085 -1.3229  1.1689
 5417TIP3    H216205   5.327   1.487   4.472  0.8227  0.3842 -0.1429
 5418TIP3   OH216206   6.192   1.669   2.294  0.8376 -0.2146 -0.5720
 5418TIP3    H116207   6.202   1.577   2.318  0.9196 -0.4164 -1.3558
 5418TIP3    H216208   6.116   1.671   2.236  0.2119  0.3692  0.2624
 5419TIP3   OH216209   0.329   3.184   3.641 -0.1102  0.9147  0.8393
 5419TIP3    H116210   0.412   3.209   3.681  0.0924  1.4001  0.1217
 5419TIP3    H216211   0.327   3.089   3.647  0.7989  0.8511  0.2900
 5420TIP3   OH216212   6.793   2.126   5.157  0.5928 -0.0825  0.1310
 5420TIP3    H116213   6.819   2.210   5.194  2.9305 -1.0266  0.6953
 5420TIP3    H216214   6.822   2.131   5.066  0.6650 -0.2636  0.1458
 5421TIP3   OH216215   6.946   1.804   4.894 -0.2828  0.1228 -0.1337
 5421TIP3    H116216   6.871   1.847   4.853 -1.0283 -0.4305  0.6448
 5421TIP3    H216217   7.012   1.873   4.899 -0.7903  0.6618 -0.6708
 5422TIP3   OH216218   6.523   3.213   4.384  0.0314  0.0798 -0.0643
 5422TIP3    H116219   6.446   3.268   4.398  0.1848  0.5492 -1.0347
 5422TIP3    H216220   6.596   3.274   4.385  0.2899 -0.2303 -0.1401
 5423TIP3   OH216221   6.556   0.581   3.217  0.0809  0.0459  0.4415
 5423TIP3    H116222   6.611   0.658   3.205 -0.5748  0.8422  2.4064
 5423TIP3    H216223   6.467   0.613   3.203 -0.0100 -1.0352 -1.7592
 5424TIP3   OH216224   7.582   0.116   5.467 -0.5528 -0.0977 -0.4212
 5424TIP3    H116225   7.564   0.046   5.530 -2.0176  0.1506 -0.5266
 5424TIP3    H216226   7.676   0.129   5.471 -0.0955 -2.8059 -1.1677
 5425TIP3   OH216227   7.533   3.115   3.269  0.0982 -0.0859 -0.0949
 5425TIP3    H116228   7.475   3.068   3.329 -0.4308  0.2677 -0.3347
 5425TIP3    H216229   7.563   3.191   3.319 -1.0166  0.6702 -0.5749
 5426TIP3   OH216230   5.891   1.759   2.964  0.0566  0.4202 -0.4185
 5426TIP3    H116231   5.807   1.716   2.976  0.8152 -0.2594  2.9026
 5426TIP3    H216232   5.955   1.689   2.968  0.9604  1.2151 -0.6749
 5427TIP3   OH216233   2.599   1.557   4.538 -0.1792 -0.3905  0.0170
 5427TIP3    H116234   2.608   1.539   4.444  2.1270  1.1164 -0.0958
 5427TIP3    H216235   2.688   1.569   4.569 -1.0304  1.2383  1.9736
 5428TIP3   OH216236   0.157   4.719   0.548 -0.1196 -0.4511 -0.4130
 5428TIP3    H116237   0.184   4.642   0.497 -0.2073  0.1676 -1.4035
 5428TIP3    H216238   0.124   4.683   0.630  2.0341 -1.3488  0.1128
 5429TIP3   OH216239   4.980   6.930   3.050 -0.4739 -0.8712  0.3099
 5429TIP3    H116240   4.990   6.887   3.135  2.2016  0.4651  0.7086
 5429TIP3    H216241   4.976   7.023   3.070  0.8600 -0.4957 -1.0700
 5430TIP3   OH216242   7.288   1.157   4.828 -0.1906 -0.1723  0.5333
 5430TIP3    H116243   7.319   1.230   4.882 -2.1967  0.6398  0.6134
 5430TIP3    H216244   7.252   1.095   4.891 -0.5491 -0.2133  0.2847
 5431TIP3   OH216245   1.472   5.766   0.221  0.1599  0.1266 -0.2477
 5431TIP3    H116246   1.436   5.851   0.197  0.8484  0.3440 -0.5311
 5431TIP3    H216247   1.492   5.725   0.137 -0.1865 -0.3215 -0.1120
 5432TIP3   OH216248   7.345   0.105   0.828 -0.2534 -0.0404  0.2609
 5432TIP3    H116249   7.327   0.195   0.802 -4.4596 -1.1589 -1.1112
 5432TIP3    H216250   7.367   0.110   0.921 -2.5719  2.2432  0.7359
 5433TIP3   OH216251   7.769   0.194   5.191  0.1051  0.5040  0.1825
 5433TIP3    H116252   7.767   0.184   5.286 -2.1938 -0.2114  0.0838
 5433TIP3    H216253   7.831   0.126   5.161 -0.1211 -0.0947  1.0617
 5434TIP3   OH216254   6.410   6.810   5.004  0.2046  0.2849  0.0393
 5434TIP3    H116255   6.415   6.866   4.926 -2.5119  0.1714 -0.2674
 5434TIP3    H216256   6.485   6.835   5.056 -0.1001  3.1739 -0.8058
 5435TIP3   OH216257   6.876   2.451   5.081  0.4383  0.6314 -0.4126
 5435TIP3    H116258   6.805   2.515   5.087 -0.6470 -0.4029 -1.8645
 5435TIP3    H216259   6.872   2.404   5.165 -0.6976  0.4885 -0.5339
 5436TIP3   OH216260   4.601   0.083   2.545 -0.0114  0.0905 -0.3860
 5436TIP3    H116261   4.520   0.083   2.596  0.8352 -0.7318  0.9665
 5436TIP3    H216262   4.594   0.006   2.489 -0.7223  0.7263 -1.1887
 5437TIP3   OH216263   5.098   1.691   4.639  0.0805 -0.0901  0.0184
 5437TIP3    H116264   5.027   1.660   4.583  0.8833  0.3680 -1.2799
 5437TIP3    H216265   5.147   1.753   4.584  0.8043  0.4781  1.2719
 5438TIP3   OH216266   4.398   6.848   4.287 -0.0494  0.0034 -0.1941
 5438TIP3    H116267   4.303   6.849   4.281 -0.2502 -0.9933  2.1721
 5438TIP3    H216268   4.425   6.781   4.223 -0.9920 -0.3668 -0.2127
 5439TIP3   OH216269   7.213   0.892   4.499  0.0044  0.5329 -0.0624
 5439TIP3    H116270   7.210   0.944   4.419 -0.7313 -0.9346 -1.0166
 5439TIP3    H216271   7.246   0.806   4.470 -0.6128 -0.1222  1.1350
 5440TIP3   OH216272   6.664   2.686   5.768  0.1307 -0.0310  0.0602
 5440TIP3    H116273   6.675   2.710   5.860  1.7946  2.4421 -0.7463
 5440TIP3    H216274   6.594   2.620   5.769  0.7400 -0.6951  3.1646
 5441TIP3   OH216275   6.884   3.002   4.395  0.5974 -0.1195  0.1032
 5441TIP3    H116276   6.896   3.095   4.377 -1.0693  0.2076  0.5395
 5441TIP3    H216277   6.913   2.957   4.315 -0.6427  0.9119 -0.9443
 5442TIP3   OH216278   5.040   1.904   4.355  0.2031  0.2546  0.3034
 5442TIP3    H116279   5.106   1.924   4.422 -2.2657  3.3127  1.9383
 5442TIP3    H216280   5.081   1.836   4.302  2.8071 -1.3821  4.1054
 5443TIP3   OH216281   6.430   1.416   4.277 -0.0005 -0.5414  0.5601
 5443TIP3    H116282   6.368   1.465   4.330  1.3049 -0.4874  2.0699
 5443TIP3    H216283   6.444   1.334   4.325 -0.9370 -1.7310 -1.1336
 5444TIP3   OH216284   7.257   2.325   3.432  0.0534 -0.2490  0.2860
 5444TIP3    H116285   7.329   2.282   3.478 -0.4232 -0.9025  0.4300
 5444TIP3    H216286   7.238   2.403   3.483 -0.5111 -0.9959  1.2482
 5445TIP3   OH216287   3.009   7.292   2.722 -0.5215 -1.1702  0.0745
 5445TIP3    H116288   3.018   7.220   2.784 -1.0061 -0.7608  0.6321
 5445TIP3    H216289   3.095   7.335   2.721 -0.0602 -2.0996 -0.6982
 5446TIP3   OH216290   7.247   0.536   5.591 -0.1342  0.7839  0.2493
 5446TIP3    H116291   7.184   0.467   5.570  0.1105  0.0323  1.9093
 5446TIP3    H216292   7.329   0.489   5.608  0.3060  1.5744  0.3456
 5447TIP3   OH216293   5.630   3.467   5.816 -0.3718  1.0722 -0.5061
 5447TIP3    H116294   5.607   3.404   5.748  1.0994  0.0745 -0.1055
 5447TIP3    H216295   5.546   3.507   5.842 -0.8655  1.9877 -3.3760
 5448TIP3   OH216296   0.050   7.168   0.170 -0.3130 -0.2985  0.0113
 5448TIP3    H116297   0.063   7.109   0.095 -0.7885  1.5041 -1.5301
 5448TIP3    H216298  -0.042   7.156   0.194  0.0628 -1.5152  0.8776
 5449TIP3   OH216299   7.555   3.334   5.526  0.3621  0.3566 -0.3414
 5449TIP3    H116300   7.464   3.313   5.506  0.2383 -0.9852  1.5147
 5449TIP3    H216301   7.600   3.328   5.442 -0.9394 -0.7417 -0.9716
 5450TIP3   OH216302   7.402   2.058   1.131  0.1934 -0.7692 -0.2003
 5450TIP3    H116303   7.447   2.046   1.048  1.9599 -1.4034  0.8256
 5450TIP3    H216304   7.376   1.970   1.158  2.0959 -0.9281  1.2410
 5451TIP3   OH216305   1.471   0.973   3.067 -0.2694 -0.5948  0.2239
 5451TIP3    H116306   1.440   1.033   2.999 -0.1826 -0.8776 -0.0658
 5451TIP3    H216307   1.455   1.020   3.149 -1.0349 -0.5465  0.0543
 5452TIP3   OH216308   6.225   0.734   2.577  0.5193 -0.4589  0.2018
 5452TIP3    H116309   6.144   0.775   2.550 -0.9195 -2.2787  1.6005
 5452TIP3    H216310   6.292   0.802   2.567 -0.9528  0.7155 -2.0382
 5453TIP3   OH216311   7.185   1.525   4.360  0.0622  0.0327 -0.0421
 5453TIP3    H116312   7.180   1.481   4.276  2.6780  0.0983 -0.2477
 5453TIP3    H216313   7.249   1.476   4.410  0.3401  1.4469  1.0342
 5454TIP3   OH216314   6.409   1.442   3.695 -0.0695 -0.5142  0.4360
 5454TIP3    H116315   6.468   1.402   3.760 -1.3478 -1.6206  0.9425
 5454TIP3    H216316   6.360   1.368   3.659  1.0583 -0.0144 -2.2904
 5455TIP3   OH216317   7.357   3.323   2.555  0.4578 -0.3354  0.0453
 5455TIP3    H116318   7.410   3.328   2.475  2.2789  1.7943  1.3334
 5455TIP3    H216319   7.268   3.341   2.525  0.8280 -1.2383 -1.7397
 5456TIP3   OH216320   6.139   0.457   3.040 -0.2849  0.3182 -0.4912
 5456TIP3    H116321   6.188   0.382   3.074 -2.4677 -0.9106  0.0254
 5456TIP3    H216322   6.195   0.493   2.971  1.0986 -1.3534 -0.2688
 5457TIP3   OH216323   6.047   4.687   3.682  0.1028  0.6664 -0.7070
 5457TIP3    H116324   6.109   4.634   3.732  1.3199  0.0269 -2.8190
 5457TIP3    H216325   5.967   4.633   3.678  0.2436  0.4114 -0.0875
 5458TIP3   OH216326   6.942   1.151   4.781  0.0705 -0.2048 -0.2560
 5458TIP3    H116327   6.953   1.234   4.826 -1.0450  0.1140 -0.5481
 5458TIP3    H216328   7.011   1.150   4.715 -0.5420  0.9658 -0.9325
 5459TIP3   OH216329   7.479   2.198   3.547  0.1098 -0.1234  0.1538
 5459TIP3    H116330   7.484   2.143   3.625  0.5650  1.1591  1.0487
 5459TIP3    H216331   7.570   2.222   3.529 -0.1864  1.3150  0.4899
 5460TIP3   OH216332   1.296   1.597   4.041  0.6915 -0.2604  0.0925
 5460TIP3    H116333   1.329   1.519   3.996 -0.4153 -0.2593 -0.7421
 5460TIP3    H216334   1.230   1.565   4.101 -2.1245  0.3179 -2.5813
 5461TIP3   OH216335   4.838   2.279   4.415 -0.1227 -0.2424 -0.0632
 5461TIP3    H116336   4.929   2.274   4.389  0.3127 -0.6905  1.4773
 5461TIP3    H216337   4.836   2.344   4.485 -0.8248 -0.8439  0.4935
 5462TIP3   OH216338   7.062   3.776   5.714  0.1731  0.4720 -0.4121
 5462TIP3    H116339   7.086   3.838   5.645 -1.1355  0.9446 -0.4678
 5462TIP3    H216340   7.084   3.821   5.795  1.9266 -0.1765 -0.5215
 5463TIP3   OH216341   6.397   2.368   2.717  0.0094 -0.1054  0.3079
 5463TIP3    H116342   6.346   2.294   2.684  0.2067 -0.0316 -0.1623
 5463TIP3    H216343   6.478   2.328   2.750 -0.1312 -0.1628  0.5897
 5464TIP3   OH216344   5.381   2.351   4.311  0.6148 -0.4433  0.3425
 5464TIP3    H116345   5.424   2.426   4.269 -0.6829 -0.5286 -1.1719
 5464TIP3    H216346   5.379   2.283   4.243  1.0226 -1.5787  1.4370
 5465TIP3   OH216347   6.885   2.071   4.019  0.3180  0.1761 -0.1431
 5465TIP3    H116348   6.823   2.143   4.009  1.4075  1.2764  0.8105
 5465TIP3    H216349   6.838   2.007   4.073  0.2573  1.3407  1.2305
 5466TIP3   OH216350   7.821   1.329   3.904 -0.0107 -0.7227 -0.2576
 5466TIP3    H116351   7.824   1.233   3.906  1.1105 -0.6972 -0.1938
 5466TIP3    H216352   7.913   1.355   3.899 -0.3527  0.3276 -1.1690
 5467TIP3   OH216353   3.148   3.566   0.095 -0.1002  0.0043 -0.2976
 5467TIP3    H116354   3.102   3.621   0.032 -1.7239 -0.8883  0.0959
 5467TIP3    H216355   3.172   3.627   0.165 -0.9251  0.4261 -0.3699
 5468TIP3   OH216356   4.958   7.371   6.122 -0.2479  0.0074 -0.0981
 5468TIP3    H116357   4.996   7.319   6.192  1.0304 -0.4220 -1.0982
 5468TIP3    H216358   5.032   7.416   6.082 -1.0034  0.5244 -0.9422
 5469TIP3   OH216359   6.947   0.743   4.328  0.2483 -0.2174 -0.1868
 5469TIP3    H116360   7.012   0.791   4.276 -0.7124 -0.0741 -1.2824
 5469TIP3    H216361   6.922   0.805   4.397  0.2726  0.2327 -0.5767
 5470TIP3   OH216362   6.241   0.103   3.641 -1.1758  0.4820 -0.1185
 5470TIP3    H116363   6.322   0.151   3.626 -1.4630  1.9462  2.6787
 5470TIP3    H216364   6.193   0.156   3.705 -3.4125 -1.3922 -0.1761
 5471TIP3   OH216365   3.637   7.388   4.791  0.2633 -0.5236  0.3866
 5471TIP3    H116366   3.627   7.310   4.736  0.4249 -0.9528  0.9606
 5471TIP3    H216367   3.548   7.410   4.818  0.4748 -2.2979  2.6737
 5472TIP3   OH216368   6.245   3.002   5.457 -0.0560  0.0824  0.0807
 5472TIP3    H116369   6.231   3.032   5.367  1.8087 -0.4704 -0.4212
 5472TIP3    H216370   6.176   3.044   5.507 -0.7844  0.8500 -1.5244
 5473TIP3   OH216371   0.823   0.677   3.329 -0.1748  0.0368 -0.1446
 5473TIP3    H116372   0.874   0.669   3.410  0.7105  1.1550 -0.5755
 5473TIP3    H216373   0.751   0.737   3.352 -0.2365 -0.0783 -0.0368
 5474TIP3   OH216374   5.401   1.355   3.255  0.0155 -0.1487 -0.1524
 5474TIP3    H116375   5.449   1.413   3.314 -0.5375 -0.9116  1.0639
 5474TIP3    H216376   5.314   1.393   3.248 -0.9611 -1.8479  2.2004
 5475TIP3   OH216377   7.569   1.479   4.709 -0.6197 -0.0483  0.2958
 5475TIP3    H116378   7.565   1.461   4.803 -0.8211 -1.2429  0.0741
 5475TIP3    H216379   7.627   1.555   4.702  1.8575 -1.7710  1.1862
 5476TIP3   OH216380   5.515   6.680   5.477 -0.2344  0.1788 -0.1281
 5476TIP3    H116381   5.451   6.707   5.411 -0.1254 -0.3794 -0.4684
 5476TIP3    H216382   5.503   6.586   5.485 -0.3918  0.2773  0.8121
 5477TIP3   OH216383   0.331   2.182   4.046  0.2821 -0.1402  0.4068
 5477TIP3    H116384   0.324   2.183   4.141 -1.4462  1.0415  0.2932
 5477TIP3    H216385   0.274   2.110   4.018  1.2514 -0.8701  0.2868
 5478TIP3   OH216386   7.299   1.387   3.349  0.3008 -0.1246  0.0422
 5478TIP3    H116387   7.226   1.367   3.289 -4.3627 -0.4529  5.4401
 5478TIP3    H216388   7.324   1.301   3.383  1.6680  0.2529 -0.0153
 5479TIP3   OH216389   5.760   0.285   3.223  0.2385 -0.2047  0.1242
 5479TIP3    H116390   5.723   0.204   3.187 -0.4585  0.6221 -1.0197
 5479TIP3    H216391   5.687   0.327   3.268 -0.0133  0.9918 -1.3817
 5480TIP3   OH216392   2.064   5.686   1.284 -0.5959  0.1013  0.4178
 5480TIP3    H116393   2.015   5.767   1.273 -0.7717 -0.2382 -1.5249
 5480TIP3    H216394   2.007   5.618   1.246  0.6467 -0.5290 -0.3561
 5481TIP3   OH216395   5.887   2.886   6.397 -0.3530 -0.4037  0.2197
 5481TIP3    H116396   5.979   2.864   6.409 -0.5754 -1.2302  0.4364
 5481TIP3    H216397   5.853   2.895   6.486 -0.5517 -0.3977  0.1434
 5482TIP3   OH216398   7.155   3.240   5.074 -0.0662  0.0250 -0.0007
 5482TIP3    H116399   7.154   3.274   5.164 -0.5351  1.0841 -0.4012
 5482TIP3    H216400   7.064   3.214   5.058 -0.6035  2.5045 -1.1637
 5483TIP3   OH216401   0.240   0.452   4.003 -0.7927  0.1615  0.1295
 5483TIP3    H116402   0.157   0.416   4.034 -0.4616 -0.4605  0.3107
 5483TIP3    H216403   0.304   0.424   4.069 -0.1380 -0.8731 -0.9184
 5484TIP3   OH216404   5.013   5.909   3.922  0.2794 -0.1409 -0.0367
 5484TIP3    H116405   4.947   5.855   3.878  1.0403 -0.6692 -0.5452
 5484TIP3    H216406   5.003   5.996   3.884 -0.4872 -0.0897  0.2791
 5485TIP3   OH216407   2.045   6.688   6.252 -0.2051  0.2797  0.5668
 5485TIP3    H116408   2.107   6.616   6.242  0.1491  0.6661 -0.0683
 5485TIP3    H216409   2.063   6.724   6.339  0.7478  0.6560  0.2196
 5486TIP3   OH216410   5.893   0.532   2.932 -0.6282  0.1326  1.0632
 5486TIP3    H116411   5.965   0.498   2.984  1.4389  0.2977 -1.5796
 5486TIP3    H216412   5.928   0.612   2.893 -1.8949 -0.2846 -1.0041
 5487TIP3   OH216413   6.640   0.266   3.977 -0.3381  0.6012 -0.3737
 5487TIP3    H116414   6.659   0.312   4.058  0.0721 -0.8964  0.3904
 5487TIP3    H216415   6.545   0.269   3.969 -0.5350 -0.9642  1.1961
 5488TIP3   OH216416   3.079   1.564   2.907  0.3082  0.8839  0.8351
 5488TIP3    H116417   3.060   1.496   2.972  2.6614 -1.0039 -0.3631
 5488TIP3    H216418   2.994   1.591   2.874 -0.6088 -2.8989 -0.0428
 5489TIP3   OH216419   0.915   0.128   2.030  0.4904 -0.3656 -0.2709
 5489TIP3    H116420   0.895   0.039   2.000 -0.6057 -0.4268  0.6054
 5489TIP3    H216421   0.968   0.116   2.108  0.4730 -0.2421 -0.2406
 5490TIP3   OH216422   4.657   6.746   1.432  0.5935 -0.3464 -0.4904
 5490TIP3    H116423   4.632   6.738   1.339 -0.2522 -0.0303 -0.2994
 5490TIP3    H216424   4.670   6.839   1.445  0.6756 -0.3871 -0.2863
 5491TIP3   OH216425   0.292   2.735   3.076  0.5394  0.3740  0.2398
 5491TIP3    H116426   0.263   2.649   3.045  1.1976  0.3112 -0.2180
 5491TIP3    H216427   0.371   2.716   3.127 -0.8655  0.4105  2.4875
 5492TIP3   OH216428   7.193   1.481   4.735  0.1693 -0.2486  0.6016
 5492TIP3    H116429   7.130   1.541   4.693  2.3098 -0.6627 -3.4803
 5492TIP3    H216430   7.150   1.396   4.732 -0.2788 -0.0226  0.5541
 5493TIP3   OH216431   7.699   3.530   5.092 -0.1030 -0.0205  0.0044
 5493TIP3    H116432   7.694   3.531   4.996 -1.5546 -0.5446  0.0669
 5493TIP3    H216433   7.675   3.619   5.118  0.7852  0.2657 -0.1308
 5494TIP3   OH216434   0.457   1.545   3.382 -0.3127 -0.6107 -0.2108
 5494TIP3    H116435   0.552   1.546   3.365  0.2402  0.3216  2.6005
 5494TIP3    H216436   0.424   1.622   3.336  0.3663 -0.7636 -0.9524
 5495TIP3   OH216437   7.642   1.215   3.252 -0.1210 -0.3745  0.9189
 5495TIP3    H116438   7.712   1.281   3.255  0.8391 -1.3906  1.2638
 5495TIP3    H216439   7.631   1.196   3.159  1.6346 -1.8112  0.9520
 5496TIP3   OH216440   7.421   2.610   4.092  0.1065 -0.0312  0.4887
 5496TIP3    H116441   7.486   2.653   4.036  0.8736 -0.1885  1.2573
 5496TIP3    H216442   7.472   2.571   4.163 -0.8952  0.4570  1.4852
 5497TIP3   OH216443   6.957   2.779   5.022 -0.0587 -0.6768  0.0034
 5497TIP3    H116444   6.907   2.729   5.087 -1.2919  0.4074 -0.0829
 5497TIP3    H216445   7.023   2.825   5.073 -1.1995  0.3888  0.5568
 5498TIP3   OH216446   0.835   1.326   3.426 -0.0120  0.3618  0.1624
 5498TIP3    H116447   0.869   1.366   3.506  0.1676 -1.5754  1.0682
 5498TIP3    H216448   0.775   1.258   3.457  1.0788 -1.3021 -1.3155
 5499TIP3   OH216449   6.634   1.997   4.781 -0.3637  0.5613 -0.2757
 5499TIP3    H116450   6.661   2.082   4.816  0.1865  0.3519 -0.1863
 5499TIP3    H216451   6.708   1.968   4.727 -0.8091  0.4304 -0.8228
 5500TIP3   OH216452   5.973   1.111   1.740 -0.7658 -0.0929  0.3486
 5500TIP3    H116453   5.920   1.170   1.794  0.3958  0.2772  1.0905
 5500TIP3    H216454   6.017   1.169   1.678 -2.2073 -0.5246 -1.1360
 5501TIP3   OH216455   7.159   0.573   3.837 -0.1600 -0.9252  0.5799
 5501TIP3    H116456   7.106   0.506   3.882 -0.0278 -0.2814  1.7304
 5501TIP3    H216457   7.244   0.569   3.881 -0.2268  0.1564  0.8216
 5502TIP3   OH216458   7.530   1.734   1.645  0.1470  0.9294 -0.2783
 5502TIP3    H116459   7.581   1.765   1.720  0.6515 -0.3240 -0.0750
 5502TIP3    H216460   7.467   1.673   1.683  0.4850  0.1966 -0.8721
 5503TIP3   OH216461   4.995   3.274   3.827 -0.0631  0.5816  0.0812
 5503TIP3    H116462   5.074   3.318   3.856  0.4263  0.1693 -0.6128
 5503TIP3    H216463   5.020   3.181   3.819 -1.0454  0.1889  1.4099
 5504TIP3   OH216464   7.359   1.684   0.605 -0.0768  0.6622  0.0562
 5504TIP3    H116465   7.415   1.621   0.652 -0.6397 -0.4650 -0.7567
 5504TIP3    H216466   7.282   1.633   0.580 -0.1271  1.4442 -1.4280
 5505TIP3   OH216467   0.156   1.341   1.674 -0.0101  0.5258 -0.5059
 5505TIP3    H116468   0.112   1.399   1.735  1.0534  1.3948 -0.5463
 5505TIP3    H216469   0.086   1.299   1.625 -0.7871  1.9750 -0.6535
 5506TIP3   OH216470   5.338   1.601   4.785  0.6435  0.3184 -0.0622
 5506TIP3    H116471   5.407   1.665   4.769 -0.8681  1.5867 -1.7488
 5506TIP3    H216472   5.257   1.648   4.766 -0.7096 -1.1601  1.8020
 5507TIP3   OH216473   6.677   0.918   3.803 -0.3756  0.1044 -0.0220
 5507TIP3    H116474   6.677   0.954   3.714  0.1401 -0.8528 -0.4156
 5507TIP3    H216475   6.741   0.971   3.850  0.1620 -0.0966 -0.5217
 5508TIP3   OH216476   7.253   0.732   5.049 -0.2890 -0.4931  0.0151
 5508TIP3    H116477   7.199   0.736   5.128 -0.3230 -0.3768 -0.0138
 5508TIP3    H216478   7.189   0.720   4.978 -0.1834 -1.7005  0.1147
 5509TIP3   OH216479   6.907   0.294   3.617  0.4172  0.5802 -0.1760
 5509TIP3    H116480   6.892   0.277   3.709  2.0443  0.9809  0.1856
 5509TIP3    H216481   6.838   0.246   3.571  0.2756 -0.5341  1.1915
 5510TIP3   OH216482   2.380   0.019   0.419 -0.0832  0.3147 -0.0231
 5510TIP3    H116483   2.358   0.113   0.422 -1.7748 -0.1032  1.7553
 5510TIP3    H216484   2.336  -0.013   0.340 -0.3760  0.8393 -0.0768
 5511TIP3   OH216485   6.128   0.575   3.797 -0.1626  0.3309  0.1299
 5511TIP3    H116486   6.185   0.640   3.838 -0.0585  1.0663 -1.1718
 5511TIP3    H216487   6.181   0.538   3.726 -1.1793  0.7858 -0.8745
 5512TIP3   OH216488   4.890   7.243   5.309  0.2830 -0.0365  0.1009
 5512TIP3    H116489   4.854   7.325   5.274 -2.5094 -0.9250  0.7071
 5512TIP3    H216490   4.963   7.223   5.251 -0.1224  1.9450 -1.1798
 5513TIP3   OH216491   5.061   0.894   5.561  0.2423 -0.7355 -0.5383
 5513TIP3    H116492   5.063   0.810   5.607  0.0424  0.5374  1.8690
 5513TIP3    H216493   5.130   0.946   5.602  0.9718  0.0007 -2.6134
 5514TIP3   OH216494   6.545   2.632   6.244 -0.0899 -0.0731  0.0753
 5514TIP3    H116495   6.456   2.667   6.243  0.0015  0.2401  1.6468
 5514TIP3    H216496   6.588   2.671   6.168 -1.2639 -0.1455 -0.6291
 5515TIP3   OH216497   6.058   2.365   3.543  0.1281  0.3992 -0.0939
 5515TIP3    H116498   6.134   2.309   3.554 -1.8832 -2.3312  0.4664
 5515TIP3    H216499   6.040   2.364   3.449 -1.4465 -2.1192  0.1845
 5516TIP3   OH216500   6.676   1.549   4.208  0.0519 -0.0981  0.0587
 5516TIP3    H116501   6.587   1.515   4.206  0.0886 -0.1947  0.0579
 5516TIP3    H216502   6.665   1.644   4.217 -0.0579 -0.0592 -0.4542
 5517TIP3   OH216503   0.302   1.735   4.051  0.4585 -0.0632 -0.2127
 5517TIP3    H116504   0.302   1.656   3.998  1.1887 -0.2203  0.0141
 5517TIP3    H216505   0.315   1.704   4.141 -1.3305  0.1579  0.1320
 5518TIP3   OH216506   5.919   0.237   2.983 -0.3039 -0.1223  0.2767
 5518TIP3    H116507   5.885   0.297   3.050 -0.7633 -0.0434 -0.0274
 5518TIP3    H216508   6.009   0.219   3.011 -0.4022  0.1290  0.7680
 5519TIP3   OH216509   5.011   2.134   4.056  0.2213 -0.5161  0.4093
 5519TIP3    H116510   4.983   2.099   3.972  0.4760  0.2821 -0.0066
 5519TIP3    H216511   4.988   2.065   4.119 -0.5053 -0.8611 -0.2282
 5520TIP3   OH216512   0.929   1.861   4.061 -0.2366 -0.6337  0.1770
 5520TIP3    H116513   0.846   1.813   4.055 -0.1185 -0.8726  0.4269
 5520TIP3    H216514   0.925   1.907   4.144 -0.7563  0.5734 -0.4995
 5521TIP3   OH216515   6.080   3.990   3.523 -0.0171 -0.0778  0.5307
 5521TIP3    H116516   6.152   4.008   3.584 -0.7861  0.0189  1.4223
 5521TIP3    H216517   6.085   3.896   3.506 -0.8944 -0.4291  2.1591
 5522TIP3   OH216518   5.693   1.952   5.795 -0.5990  0.4222 -0.4839
 5522TIP3    H116519   5.632   1.887   5.760 -1.2923  1.2610 -0.8769
 5522TIP3    H216520   5.644   1.995   5.865  0.3920 -0.5013  0.7951
 5523TIP3   OH216521   5.599   0.535   3.065 -0.4309 -0.3602  0.3166
 5523TIP3    H116522   5.691   0.553   3.085 -0.1698 -0.8181 -0.4435
 5523TIP3    H216523   5.602   0.456   3.011 -1.1279  0.6553 -1.2235
 5524TIP3   OH216524   5.405   0.018   3.481 -0.0063 -0.0813 -0.0957
 5524TIP3    H116525   5.413   0.099   3.531  1.4029 -0.2983  0.0473
 5524TIP3    H216526   5.346  -0.037   3.533  0.4117  0.1915  0.6766
 5525TIP3   OH216527   7.531   6.538   0.562  0.1282  0.2621  0.2850
 5525TIP3    H116528   7.548   6.484   0.485  1.8537  1.7903 -0.4456
 5525TIP3    H216529   7.600   6.513   0.624  0.5968  1.2207  0.1530
 5526TIP3   OH216530   6.309   1.149   4.447 -0.6558  0.2071 -0.3909
 5526TIP3    H116531   6.239   1.192   4.398  0.5239  1.5725 -0.9136
 5526TIP3    H216532   6.324   1.067   4.401 -2.4594 -0.4783  0.2074
 5527TIP3   OH216533   0.398   2.119   5.594 -0.6935  0.5289  0.6324
 5527TIP3    H116534   0.334   2.073   5.539 -1.4000  0.3045  1.6273
 5527TIP3    H216535   0.448   2.049   5.637  0.4061  0.7018 -0.3342
 5528TIP3   OH216536   6.140   2.374   5.567  0.4169  0.2211  0.1177
 5528TIP3    H116537   6.054   2.410   5.588 -0.4491 -0.8568 -1.4963
 5528TIP3    H216538   6.153   2.395   5.475  1.4481 -0.5074  0.0963
 5529TIP3   OH216539   0.040   3.800   5.103 -0.2376  0.2334  0.8389
 5529TIP3    H116540  -0.053   3.787   5.120 -0.7808 -0.3210 -2.2682
 5529TIP3    H216541   0.042   3.865   5.033  1.6680 -0.7645 -0.0664
 5530TIP3   OH216542   6.765   1.708   5.837 -0.4236 -0.2170  0.0278
 5530TIP3    H116543   6.701   1.735   5.902 -1.8944 -2.5251 -0.3993
 5530TIP3    H216544   6.834   1.664   5.888  0.0310  0.7941  0.3117
 5531TIP3   OH216545   6.273   3.052   4.304 -0.3142  0.2137 -0.1301
 5531TIP3    H116546   6.356   3.046   4.351 -0.9744  0.9744  1.1662
 5531TIP3    H216547   6.297   3.050   4.211  0.9981 -1.4480  0.2350
 5532TIP3   OH216548   7.821   3.288   2.688 -0.6202  0.8300  0.3316
 5532TIP3    H116549   7.793   3.376   2.712 -3.9544 -0.3355  1.0464
 5532TIP3    H216550   7.776   3.270   2.606  1.3649  0.4023 -0.6687
 5533TIP3   OH216551   5.533   7.394   3.115 -0.0854  0.3263  0.0129
 5533TIP3    H116552   5.624   7.391   3.144 -1.0774 -0.6542  3.3136
 5533TIP3    H216553   5.502   7.304   3.123 -1.9239  1.0199  1.0127
 5534TIP3   OH216554   6.069   2.334   3.230 -0.1791  0.5093 -0.2397
 5534TIP3    H116555   6.022   2.298   3.155 -0.0855  0.2838 -0.1908
 5534TIP3    H216556   6.161   2.313   3.213 -0.0115  1.6458 -0.7241
 5535TIP3   OH216557   6.627   1.591   5.309 -0.6529 -0.1646  0.5350
 5535TIP3    H116558   6.628   1.586   5.404 -0.3067  2.0576  0.6716
 5535TIP3    H216559   6.683   1.665   5.288 -1.0947 -0.3445 -1.3832
 5536TIP3   OH216560   0.457   3.448   3.712 -0.0396 -0.1054 -0.1603
 5536TIP3    H116561   0.508   3.488   3.641  0.9225  1.1726  1.2031
 5536TIP3    H216562   0.377   3.500   3.717 -0.0428 -0.1052 -0.2129
 5537TIP3   OH216563   2.304   5.620   0.610  0.2636 -0.4712  0.7297
 5537TIP3    H116564   2.351   5.633   0.692  2.8499  0.6254 -0.8506
 5537TIP3    H216565   2.325   5.530   0.584  0.6895 -0.3141  0.5227
 5538TIP3   OH216566   7.152   0.840   4.128 -0.5970 -0.5433  0.9180
 5538TIP3    H116567   7.120   0.847   4.039 -1.1257  0.1014  1.1628
 5538TIP3    H216568   7.196   0.754   4.131  0.0739 -0.2447 -0.1579
 5539TIP3   OH216569   7.789   1.063   3.858  0.3241  0.3703  0.1988
 5539TIP3    H116570   7.857   1.032   3.918 -0.8993 -1.9045  0.4510
 5539TIP3    H216571   7.763   0.985   3.809 -0.3542  1.7308 -1.6657
 5540TIP3   OH216572   6.604   3.365   2.791 -0.2653  0.2278 -0.0452
 5540TIP3    H116573   6.671   3.304   2.822 -0.1088 -0.1028 -0.9916
 5540TIP3    H216574   6.653   3.443   2.764 -0.0373 -0.6299 -2.2924
 5541TIP3   OH216575   4.991   2.465   3.493  0.4407  0.6397 -0.2897
 5541TIP3    H116576   4.920   2.401   3.502  0.9265  0.3247  1.4798
 5541TIP3    H216577   5.010   2.467   3.399 -1.5168  0.3018 -0.7239
 5542TIP3   OH216578   6.875   1.932   5.348  0.2085 -0.6216  0.1203
 5542TIP3    H116579   6.791   1.975   5.334  0.3876  0.5516  2.3581
 5542TIP3    H216580   6.902   1.960   5.436  2.4352 -1.8110 -0.1395
 5543TIP3   OH216581   7.003   2.778   5.852 -0.2391  0.1170 -0.6229
 5543TIP3    H116582   6.955   2.857   5.826  0.9488  0.6669 -1.1663
 5543TIP3    H216583   7.009   2.726   5.772  0.9223  0.4984 -0.7886
 5544TIP3   OH216584   5.926   1.810   4.101  0.2897 -0.2541 -0.5021
 5544TIP3    H116585   5.971   1.891   4.125  2.4817 -1.8869  1.1551
 5544TIP3    H216586   5.839   1.838   4.074  0.2653  2.4621  2.0934
 5545TIP3   OH216587   1.266   3.493   4.284 -0.4856 -0.6969 -0.2174
 5545TIP3    H116588   1.324   3.566   4.306  0.8952 -1.2340 -1.9619
 5545TIP3    H216589   1.216   3.477   4.365 -0.8136  2.1388  0.1864
 5546TIP3   OH216590   7.887   0.737   5.413 -0.4259  0.1521 -0.2712
 5546TIP3    H116591   7.963   0.696   5.373  0.1921  2.0489 -1.1335
 5546TIP3    H216592   7.814   0.712   5.356 -0.3651 -1.1672  0.2151
 5547TIP3   OH216593   7.470   0.719   3.430  0.3360  0.2946 -0.4608
 5547TIP3    H116594   7.473   0.778   3.355 -0.5701  2.8742  1.4492
 5547TIP3    H216595   7.560   0.686   3.438  1.1100  2.2029 -1.0005
 5548TIP3   OH216596   0.044   3.226   5.177 -0.2404 -0.0609 -0.1197
 5548TIP3    H116597   0.088   3.305   5.145 -0.4794 -0.3684 -1.2230
 5548TIP3    H216598   0.036   3.170   5.100  0.1989 -1.2961  0.7154
 5549TIP3   OH216599   4.971   1.012   3.743 -0.3380 -0.1906 -0.2133
 5549TIP3    H116600   4.875   1.014   3.745 -0.3189  0.3401  2.8782
 5549TIP3    H216601   4.995   0.972   3.826  2.1448  0.5874 -0.5307
 5550TIP3   OH216602   2.330   6.561   5.232  0.2483  0.2114  0.2864
 5550TIP3    H116603   2.328   6.630   5.165  0.6112  1.5251  1.6050
 5550TIP3    H216604   2.423   6.546   5.248  0.1824 -1.0276 -0.4137
 5551TIP3   OH216605   0.577   2.371   2.543 -0.3519 -0.6230 -0.1391
 5551TIP3    H116606   0.604   2.289   2.585 -0.5547 -0.6631 -0.0863
 5551TIP3    H216607   0.584   2.353   2.449  2.7936  0.3585 -0.1338
 5552TIP3   OH216608   6.277   0.575   6.350 -0.4887  0.1284 -0.5385
 5552TIP3    H116609   6.228   0.496   6.329  1.1149 -0.9650 -0.2499
 5552TIP3    H216610   6.243   0.603   6.434  1.4067 -2.3531  1.1473
 5553TIP3   OH216611   6.303   0.885   1.018  0.2286 -0.1888  0.1983
 5553TIP3    H116612   6.315   0.861   1.109 -0.5310 -0.1865  0.3003
 5553TIP3    H216613   6.244   0.818   0.982 -1.2719  1.0446  0.2905
 5554TIP3   OH216614   0.967   7.316   0.444 -0.5348  0.5942 -0.3699
 5554TIP3    H116615   0.940   7.363   0.523 -1.1027  0.6083 -0.5659
 5554TIP3    H216616   0.965   7.224   0.468 -1.3949  0.5562 -0.5665
 5555TIP3   OH216617   0.108   2.660   4.854  0.2412  0.1717 -0.4279
 5555TIP3    H116618   0.123   2.677   4.947 -1.6371  1.8598 -0.4007
 5555TIP3    H216619   0.128   2.743   4.811  2.1469 -0.9038 -1.6776
 5556TIP3   OH216620   7.339   3.559   4.105  0.1077  0.1505 -0.1009
 5556TIP3    H116621   7.348   3.568   4.010 -0.6830 -1.1735 -0.3147
 5556TIP3    H216622   7.415   3.507   4.131  0.6178  0.9780  0.0736
 5557TIP3   OH216623   4.093   1.703   3.299  1.0829  0.1643 -0.4323
 5557TIP3    H116624   4.037   1.711   3.377 -0.0552 -0.1308 -1.1946
 5557TIP3    H216625   4.092   1.790   3.260  4.1670  1.1567  1.5089
 5558TIP3   OH216626   0.575   0.656   3.502 -0.3744  0.1492 -0.3528
 5558TIP3    H116627   0.539   0.670   3.414  0.0734  2.8937 -0.1346
 5558TIP3    H216628   0.582   0.561   3.510 -4.1954 -0.3468 -1.7529
 5559TIP3   OH216629   6.284   3.118   5.185  0.2992  0.3421 -0.2804
 5559TIP3    H116630   6.332   3.154   5.110 -1.5950  1.0348 -1.1987
 5559TIP3    H216631   6.219   3.060   5.146  0.9304 -1.2708  0.9943
 5560TIP3   OH216632   6.184   1.183   5.199  0.1621  0.5946 -0.2295
 5560TIP3    H116633   6.221   1.107   5.154 -1.7215 -0.9465  0.8036
 5560TIP3    H216634   6.132   1.228   5.132 -0.7312 -0.4016 -0.2125
 5561TIP3   OH216635   7.059   3.388   6.297  0.2980  0.3263  0.1248
 5561TIP3    H116636   7.116   3.424   6.364  0.7978  1.2779 -0.8012
 5561TIP3    H216637   7.117   3.333   6.244 -0.3872 -1.6412  1.3351
 5562TIP3   OH216638   6.672   2.305   3.683 -0.3701  0.1386  0.9895
 5562TIP3    H116639   6.710   2.230   3.638 -1.9366 -0.6505  0.9719
 5562TIP3    H216640   6.588   2.320   3.640 -1.1508  0.4049  2.5373
 5563TIP3   OH216641   7.798   2.993   4.434  0.3762  0.4022 -0.5513
 5563TIP3    H116642   7.720   2.941   4.451  1.7499 -1.3778  0.5027
 5563TIP3    H216643   7.824   2.970   4.346 -0.3860  1.1606 -0.9858
 5564TIP3   OH216644   2.292   6.719   4.692 -0.0512 -0.5090 -0.0679
 5564TIP3    H116645   2.245   6.801   4.708  1.8544  0.4122  1.0421
 5564TIP3    H216646   2.227   6.650   4.707 -1.1535  0.7353  0.9955
 5565TIP3   OH216647   6.339   2.297   6.278  0.1203  0.3859  0.1927
 5565TIP3    H116648   6.420   2.246   6.273 -0.5100 -0.5520 -0.7134
 5565TIP3    H216649   6.286   2.252   6.343  0.5495  1.3514  1.2354
 5566TIP3   OH216650   7.662   0.229   2.628  0.1626 -0.0970 -0.2077
 5566TIP3    H116651   7.583   0.182   2.600 -1.6102  1.1612  2.4172
 5566TIP3    H216652   7.663   0.219   2.723  1.3686  2.6150  0.1214
 5567TIP3   OH216653   6.431   1.739   0.974 -0.4459  0.0291  0.0719
 5567TIP3    H116654   6.386   1.823   0.970 -0.0294  0.2563  0.1156
 5567TIP3    H216655   6.423   1.712   1.066 -0.7339 -0.0634  0.0189
 5568TIP3   OH216656   7.202   3.422   4.293  0.3398  0.8241 -0.1405
 5568TIP3    H116657   7.272   3.362   4.317 -0.0899  0.8672  1.3158
 5568TIP3    H216658   7.241   3.481   4.229  1.6459  0.8496  0.6528
 5569TIP3   OH216659   7.743   2.662   4.726  0.0684  0.0268 -0.5306
 5569TIP3    H116660   7.831   2.644   4.758  0.1928  0.4250 -0.6375
 5569TIP3    H216661   7.728   2.754   4.751  0.2716  0.4238 -1.8421
 5570TIP3   OH216662   1.905   1.614   3.644 -0.2082 -0.2503 -0.1728
 5570TIP3    H116663   1.864   1.701   3.644 -0.1354 -0.2169  0.5146
 5570TIP3    H216664   1.915   1.593   3.551  0.2694  0.7182 -0.3493
 5571TIP3   OH216665   2.237   2.150   3.534 -0.4280 -0.0589  0.1435
 5571TIP3    H116666   2.298   2.110   3.595  0.4631  1.6464  0.3910
 5571TIP3    H216667   2.176   2.200   3.589 -1.0804 -0.4702 -0.2004
 5572TIP3   OH216668   0.523   3.247   5.006  0.1190 -0.0286  0.2960
 5572TIP3    H116669   0.456   3.311   5.031  0.4671  0.1610  0.7427
 5572TIP3    H216670   0.489   3.208   4.925 -1.1116 -0.7967  1.1668
 5573TIP3   OH216671   3.728   1.450   3.096 -0.1041  0.5571 -0.4600
 5573TIP3    H116672   3.782   1.485   3.167 -1.7383  1.7934  0.1988
 5573TIP3    H216673   3.782   1.382   3.056  1.7054  1.3731  0.5525
 5574TIP3   OH216674   6.522   1.339   4.021 -0.5112  0.0869 -0.4433
 5574TIP3    H116675   6.504   1.255   3.981  1.8046 -1.0529  0.8146
 5574TIP3    H216676   6.463   1.343   4.097 -2.9206  1.0502 -2.3172
 5575TIP3   OH216677   7.096   7.161   4.848  0.0234  0.3935 -0.2559
 5575TIP3    H116678   7.138   7.086   4.890 -1.5840 -1.0903 -1.2446
 5575TIP3    H216679   7.018   7.177   4.901 -1.6157 -1.0171 -2.1487
 5576TIP3   OH216680   1.612   0.714   4.210 -0.6557 -0.4303  0.0275
 5576TIP3    H116681   1.694   0.709   4.160 -0.2068 -0.7580  0.7801
 5576TIP3    H216682   1.578   0.625   4.209 -2.2418  0.1559 -2.2899
 5577TIP3   OH216683   7.439   1.017   5.426 -0.0936 -0.5718 -0.0345
 5577TIP3    H116684   7.442   0.937   5.374 -2.1204 -0.2505 -0.6482
 5577TIP3    H216685   7.475   1.085   5.368 -0.4765 -0.6011 -0.3058
 5578TIP3   OH216686   2.015   3.172   4.672 -0.0062 -0.1464 -0.9784
 5578TIP3    H116687   2.027   3.260   4.637  0.9936 -0.7251 -2.1295
 5578TIP3    H216688   1.921   3.167   4.691  0.2793  1.8980  1.1395
 5579TIP3   OH216689   2.487   1.743   3.403  0.0332 -0.0588 -0.1022
 5579TIP3    H116690   2.398   1.774   3.420 -0.1302 -0.6493  0.1370
 5579TIP3    H216691   2.510   1.782   3.318 -0.4529  0.0956 -0.1636
 5580TIP3   OH216692   1.647   2.476   4.027 -0.0562 -0.3091 -0.4998
 5580TIP3    H116693   1.708   2.411   4.064 -0.6243 -0.4840  0.1463
 5580TIP3    H216694   1.587   2.496   4.099  0.5611  1.4852 -0.4780
 5581TIP3   OH216695   1.215   1.857   4.129  0.1379 -0.1166 -0.5693
 5581TIP3    H116696   1.253   1.779   4.090 -1.1488 -2.0422  1.8403
 5581TIP3    H216697   1.128   1.865   4.089 -0.3660 -0.8913  0.3425
 5582TIP3   OH216698   2.560   3.571   5.809  0.5513  0.2313  0.1730
 5582TIP3    H116699   2.516   3.620   5.740  1.0987 -3.6274 -3.1090
 5582TIP3    H216700   2.489   3.533   5.861  0.0704 -0.5415 -1.0432
 5583TIP3   OH216701   7.132   0.428   5.021  0.1608  0.5868  0.7253
 5583TIP3    H116702   7.040   0.444   5.042 -0.0197  0.7325 -0.1823
 5583TIP3    H216703   7.155   0.496   4.958  0.5269 -0.2446 -0.0510
 5584TIP3   OH216704   6.646   2.043   4.445 -0.4670 -0.0863  0.0327
 5584TIP3    H116705   6.639   2.139   4.446  2.0536  0.1040  1.1331
 5584TIP3    H216706   6.555   2.013   4.435 -1.3777  2.3936  0.4613
 5585TIP3   OH216707   2.539   1.798   3.892  0.5403  0.2552 -0.0886
 5585TIP3    H116708   2.498   1.712   3.905 -1.5289  1.4468  1.7487
 5585TIP3    H216709   2.613   1.781   3.834 -1.1129 -2.4040 -1.5200
 5586TIP3   OH216710   4.657   3.554   5.507  0.3212 -0.3434 -0.5032
 5586TIP3    H116711   4.737   3.605   5.519  0.4802 -0.3801 -1.3715
 5586TIP3    H216712   4.641   3.557   5.413 -0.5644 -0.5437 -0.3644
 5587TIP3   OH216713   0.773   2.580   4.810 -0.4315  0.2685 -0.1092
 5587TIP3    H116714   0.805   2.657   4.762 -0.8619  1.2940  1.2235
 5587TIP3    H216715   0.681   2.600   4.827  0.2194  0.8691  2.9700
 5588TIP3   OH216716   1.350   1.227   2.851  0.1929 -0.5219 -0.5688
 5588TIP3    H116717   1.402   1.297   2.891  0.6306 -1.0008 -0.2877
 5588TIP3    H216718   1.394   1.209   2.768  1.1020 -1.6426  0.1396
 5589TIP3   OH216719   2.386   2.700   4.447 -0.9927  0.4893 -0.6181
 5589TIP3    H116720   2.477   2.673   4.435 -1.0926  0.9047 -2.5372
 5589TIP3    H216721   2.391   2.777   4.503 -0.2024  0.2884 -0.4032
 5590TIP3   OH216722   0.707   1.317   5.827 -0.1345  0.6837 -0.4954
 5590TIP3    H116723   0.651   1.338   5.902 -0.7663  1.5316 -1.1842
 5590TIP3    H216724   0.771   1.388   5.825 -0.0249  0.5791 -0.6618
 5591TIP3   OH216725   0.180   4.033   5.363  0.0035  0.0318 -0.0128
 5591TIP3    H116726   0.111   4.092   5.331  1.6858  2.1034  0.0224
 5591TIP3    H216727   0.149   4.005   5.449 -1.7612 -0.7631 -0.8817
 5592TIP3   OH216728   7.019   2.837   4.561  0.1662 -0.0124 -0.1445
 5592TIP3    H116729   6.983   2.755   4.526  0.0440 -0.6753  1.4753
 5592TIP3    H216730   6.978   2.906   4.509 -1.8358 -0.8480  0.2714
 5593TIP3   OH216731   6.297   7.315   5.660  0.0627  0.0659 -0.4979
 5593TIP3    H116732   6.268   7.284   5.745  0.2270  2.6860  0.5494
 5593TIP3    H216733   6.216   7.327   5.610 -0.3645  2.4311  0.6956
 5594TIP3   OH216734   1.708   0.255   5.429  0.1333  0.2688 -0.0303
 5594TIP3    H116735   1.669   0.328   5.382 -1.2527 -0.6881 -0.4028
 5594TIP3    H216736   1.633   0.203   5.459  1.0031  0.3343  2.4088
 5595TIP3   OH216737   0.521   1.404   5.097 -0.2021  0.3846  0.2858
 5595TIP3    H116738   0.558   1.335   5.042  0.0409  0.5843  0.2003
 5595TIP3    H216739   0.591   1.468   5.107 -1.0835  1.6410 -1.3524
 5596TIP3   OH216740   0.464   4.201   5.438 -0.0381  0.2027 -0.3416
 5596TIP3    H116741   0.391   4.165   5.490  0.8901 -0.1096  0.7517
 5596TIP3    H216742   0.495   4.126   5.387  0.4576 -0.0110  0.2756
 5597TIP3   OH216743   0.639   3.097   3.821 -0.2555 -0.3976 -0.2234
 5597TIP3    H116744   0.686   3.127   3.744  1.3192 -2.2618 -0.0365
 5597TIP3    H216745   0.629   3.175   3.876 -0.0744  0.6220 -1.6205
 5598TIP3   OH216746   3.165   3.409   4.741  0.3227 -0.3947  0.1071
 5598TIP3    H116747   3.200   3.496   4.763  3.2715 -2.0204  2.3673
 5598TIP3    H216748   3.207   3.387   4.658 -0.2492  0.2406 -0.3549
 5599TIP3   OH216749   7.900   0.733   4.211 -0.0482  0.1784 -0.6981
 5599TIP3    H116750   7.901   0.709   4.118 -0.4556  1.0478 -0.9365
 5599TIP3    H216751   7.823   0.788   4.220 -0.3778 -0.4331  0.3053
 5600TIP3   OH216752   6.771   6.150   5.658 -0.0377  0.1463  0.1509
 5600TIP3    H116753   6.840   6.206   5.694  0.3507  1.2053 -2.1312
 5600TIP3    H216754   6.700   6.210   5.636 -0.6733 -0.5985  0.1326
 5601TIP3   OH216755   0.756   3.760   6.440  0.5218 -0.0575  0.5542
 5601TIP3    H116756   0.849   3.782   6.432  0.4362 -0.0537 -0.4293
 5601TIP3    H216757   0.739   3.701   6.367 -0.5920  1.1069 -0.1527
 5602TIP3   OH216758   3.823   3.075   4.440  0.5224 -0.5516 -0.2612
 5602TIP3    H116759   3.837   3.058   4.346  0.0766  0.3043 -0.4875
 5602TIP3    H216760   3.773   2.999   4.470 -2.9560  1.0726 -1.6405
 5603TIP3   OH216761   5.728   5.405   0.626 -0.1582  0.0453  0.0859
 5603TIP3    H116762   5.733   5.336   0.692 -0.6233 -0.5589 -0.5025
 5603TIP3    H216763   5.634   5.423   0.617 -0.1169 -0.1266 -0.6718
 5604TIP3   OH216764   0.342   0.585   2.987 -0.2697  0.1732  0.1479
 5604TIP3    H116765   0.270   0.640   3.018 -0.8604 -1.1891  1.2880
 5604TIP3    H216766   0.360   0.526   3.060  1.7328  0.2264 -0.2905
 5605TIP3   OH216767   0.271   0.419   5.528 -0.4961 -0.3575 -0.1270
 5605TIP3    H116768   0.297   0.329   5.512 -1.0143 -0.8627  1.7731
 5605TIP3    H216769   0.199   0.412   5.591 -0.6412  1.3701 -0.0815
 5606TIP3   OH216770   1.547   1.190   3.528  0.1841  0.4847  0.1866
 5606TIP3    H116771   1.622   1.240   3.561  2.3892 -1.1326 -2.1529
 5606TIP3    H216772   1.566   1.100   3.553  0.5398 -0.3754 -2.9289
 5607TIP3   OH216773   7.498   2.361   4.281  0.6517  0.0921 -0.0939
 5607TIP3    H116774   7.418   2.309   4.269  1.5249 -1.0952 -0.7588
 5607TIP3    H216775   7.493   2.392   4.372 -1.4229  1.4833 -0.6266
 5608TIP3   OH216776   1.186   2.200   4.827 -0.0749 -0.1387  0.0828
 5608TIP3    H116777   1.256   2.257   4.860 -0.6897  0.0358  1.1016
 5608TIP3    H216778   1.118   2.260   4.797 -0.6488 -0.3359  0.9886
 5609TIP3   OH216779   0.389   2.399   5.582  0.0685  0.4630  0.1815
 5609TIP3    H116780   0.374   2.448   5.663  0.2714  0.2712  0.3369
 5609TIP3    H216781   0.365   2.309   5.605  3.2458 -0.2189  0.9870
 5610TIP3   OH216782   3.981   3.293   0.815 -0.3705 -0.5070  0.1624
 5610TIP3    H116783   3.961   3.386   0.813  0.3751 -0.3741 -1.1719
 5610TIP3    H216784   4.044   3.280   0.745  0.2957 -1.8449  0.9884
 5611TIP3   OH216785   7.714   1.579   4.328  0.4121  0.6892 -0.5297
 5611TIP3    H116786   7.730   1.669   4.358 -0.4183  0.0632  1.9271
 5611TIP3    H216787   7.754   1.524   4.395 -0.8170 -0.7852 -0.9758
 5612TIP3   OH216788   7.403   4.360   4.850  0.4010 -0.2790 -0.1871
 5612TIP3    H116789   7.414   4.372   4.755  0.4066  3.1586  0.1914
 5612TIP3    H216790   7.414   4.266   4.863  0.4102 -0.8370 -3.5989
 5613TIP3   OH216791   1.592   1.471   2.670 -0.4689  0.0114 -0.0477
 5613TIP3    H116792   1.570   1.413   2.742 -0.9881  1.7646  1.2402
 5613TIP3    H216793   1.688   1.472   2.668 -0.4407 -2.5926 -1.5140
 5614TIP3   OH216794   4.944   2.930   5.158 -0.5814 -0.0351  0.5157
 5614TIP3    H116795   4.968   3.009   5.110  0.4597 -0.5852  0.1030
 5614TIP3    H216796   5.004   2.929   5.233 -0.2850 -0.6714  0.2709
 5615TIP3   OH216797   3.153   1.064   2.436 -0.6531  0.3149 -0.3646
 5615TIP3    H116798   3.126   1.108   2.517  1.7806 -0.5635  0.9796
 5615TIP3    H216799   3.112   0.977   2.441 -0.4975  0.2578 -0.0635
 5616TIP3   OH216800   7.904   1.128   6.228 -0.2881  0.2602 -0.7081
 5616TIP3    H116801   7.904   1.073   6.306  0.1382  2.2421  0.7563
 5616TIP3    H216802   7.813   1.127   6.197 -0.4164 -0.7059 -0.3087
 5617TIP3   OH216803   5.901   6.970   5.494  0.4233 -0.9040  0.4232
 5617TIP3    H116804   5.875   6.963   5.586  2.4286 -2.1661  0.9164
 5617TIP3    H216805   5.992   6.998   5.497  0.5075 -0.9567 -1.1912
 5618TIP3   OH216806   1.362   3.914   5.527  0.0094 -0.4196  0.5027
 5618TIP3    H116807   1.434   3.938   5.469 -0.7560 -0.7814 -0.6251
 5618TIP3    H216808   1.386   3.828   5.561 -0.7585 -1.4057 -1.3669
 5619TIP3   OH216809   0.497   1.991   4.326  0.2187  0.0954  0.1309
 5619TIP3    H116810   0.545   1.921   4.370  2.4305  1.6638  0.2773
 5619TIP3    H216811   0.542   2.071   4.352 -2.0037  1.5439 -0.3930
 5620TIP3   OH216812   1.307   5.113   4.672  0.2678  0.5372 -0.3814
 5620TIP3    H116813   1.350   5.033   4.701 -0.6648 -0.3139 -1.3113
 5620TIP3    H216814   1.322   5.176   4.742 -0.3041 -0.9176  1.0611
 5621TIP3   OH216815   2.036   6.023   0.059 -0.4765  0.3528  0.2488
 5621TIP3    H116816   1.996   5.949   0.015  0.8498 -0.2407  0.0030
 5621TIP3    H216817   2.077   5.985   0.137 -0.9302  1.0436  0.8301
 5622TIP3   OH216818   3.033   3.026   4.359 -0.0926  0.5318  0.5387
 5622TIP3    H116819   3.081   2.962   4.412  0.1987 -0.0784 -0.4573
 5622TIP3    H216820   2.967   3.061   4.419 -0.4000 -0.8619  1.0385
 5623TIP3   OH216821   1.801   3.683   4.202  0.2348 -0.1305  0.2052
 5623TIP3    H116822   1.781   3.748   4.270  2.1073 -0.7080  1.3429
 5623TIP3    H216823   1.870   3.629   4.240  0.5554 -1.1454 -1.7495
 5624TIP3   OH216824   3.829   4.063   5.419  0.0337  0.6724 -0.2431
 5624TIP3    H116825   3.807   4.105   5.336 -2.2259 -0.2169 -0.1269
 5624TIP3    H216826   3.763   3.995   5.430  0.8527  0.1745  1.8459
 5625TIP3   OH216827   7.463   1.592   5.592 -0.8214  0.3250  0.3084
 5625TIP3    H116828   7.530   1.537   5.632 -0.9760  0.7435  1.1495
 5625TIP3    H216829   7.462   1.672   5.645 -0.8466  0.9884 -0.6850
 5626TIP3   OH216830   2.084   0.866   4.547  0.2686  0.2526  0.1651
 5626TIP3    H116831   2.033   0.795   4.506  2.0315 -1.0391  0.1495
 5626TIP3    H216832   2.026   0.902   4.613 -1.4418  0.2005 -1.2708
 5627TIP3   OH216833   2.641   1.668   5.889 -0.4233 -0.1597 -0.0544
 5627TIP3    H116834   2.656   1.676   5.983 -0.0902 -1.7666  0.0375
 5627TIP3    H216835   2.725   1.695   5.850  0.0191 -1.1612  0.1805
 5628TIP3   OH216836   2.727   2.398   4.017  0.3091 -0.0495  0.1599
 5628TIP3    H116837   2.801   2.422   4.073 -0.4115 -2.4696  2.2016
 5628TIP3    H216838   2.655   2.454   4.046  0.0077 -1.1201  1.5356
 5629TIP3   OH216839   4.339   3.386   5.339  0.3059 -0.4746  0.2054
 5629TIP3    H116840   4.276   3.354   5.275  2.7881 -0.0088 -2.5765
 5629TIP3    H216841   4.288   3.401   5.418 -3.2120  0.7843 -2.2115
 5630TIP3   OH216842   0.036   0.811   5.111  0.4531  0.0233  0.1094
 5630TIP3    H116843   0.011   0.853   5.028 -2.2238 -0.1960  0.7341
 5630TIP3    H216844   0.098   0.871   5.150  0.7496  0.7827 -1.4663
 5631TIP3   OH216845   0.626   1.384   5.572  0.2383  0.4376  0.2507
 5631TIP3    H116846   0.684   1.328   5.521 -0.6330 -0.4480  0.2266
 5631TIP3    H216847   0.651   1.367   5.663 -0.2844 -0.3026  0.2666
 5632TIP3   OH216848   2.251   7.310   0.366  0.2127  0.6276  0.2677
 5632TIP3    H116849   2.241   7.214   0.369 -0.5287  0.6855 -0.1098
 5632TIP3    H216850   2.328   7.324   0.311  1.7082  0.1894  2.2174
 5633TIP3   OH216851   0.609   4.408   3.083  0.3415 -0.1806 -0.4294
 5633TIP3    H116852   0.610   4.478   3.148  1.7751  0.6221 -1.2666
 5633TIP3    H216853   0.568   4.447   3.006  0.3972 -0.5078 -0.6274
 5634TIP3   OH216854   1.620   1.691   5.548  0.0562 -0.0922 -0.4005
 5634TIP3    H116855   1.680   1.729   5.484 -0.4288 -0.0911 -0.8526
 5634TIP3    H216856   1.556   1.643   5.496  0.5585 -1.3818  0.1571
 5635TIP3   OH216857   2.747   1.677   4.988  0.2181  0.1805 -0.8447
 5635TIP3    H116858   2.783   1.744   4.929  0.0812  0.4370 -0.6406
 5635TIP3    H216859   2.674   1.721   5.031  0.8419  0.2639  0.1397
 5636TIP3   OH216860   3.248   1.760   5.248  0.1926 -0.1161  0.4077
 5636TIP3    H116861   3.157   1.758   5.216  0.0089  1.0385  0.8556
 5636TIP3    H216862   3.286   1.679   5.214 -0.7004 -0.0903 -0.6897
 5637TIP3   OH216863   0.707   1.826   4.525  0.5363 -0.6594  0.1381
 5637TIP3    H116864   0.734   1.764   4.593  0.2137 -0.4339  0.4767
 5637TIP3    H216865   0.712   1.776   4.444  1.0215 -0.9015  0.3176
 5638TIP3   OH216866   0.781   1.281   4.112 -0.3887  0.6847  0.0021
 5638TIP3    H116867   0.739   1.284   4.198 -0.1577  1.3103  0.0968
 5638TIP3    H216868   0.820   1.367   4.102  1.1811 -0.0111  0.0521
 5639TIP3   OH216869   0.480   0.913   5.572 -0.3436 -0.6332 -0.0605
 5639TIP3    H116870   0.409   0.857   5.603 -0.7225  0.3696  0.8973
 5639TIP3    H216871   0.440   0.964   5.501  0.3365 -2.4283 -1.7986
 5640TIP3   OH216872   7.659   1.748   5.132 -0.0954 -0.3343  0.2708
 5640TIP3    H116873   7.675   1.656   5.154 -1.1171 -0.0892  2.2026
 5640TIP3    H216874   7.738   1.794   5.161  0.0813 -0.5005  0.0516
 5641TIP3   OH216875   7.483   1.398   4.441 -0.0026  0.0912 -0.0161
 5641TIP3    H116876   7.460   1.305   4.443 -1.1506  0.3479 -0.8917
 5641TIP3    H216877   7.518   1.416   4.528  0.3195 -1.1864  0.1264
 5642TIP3   OH216878   6.063   6.648   5.541  0.2462  0.3117  0.3197
 5642TIP3    H116879   6.062   6.566   5.491 -0.4344  1.4383 -1.5865
 5642TIP3    H216880   6.149   6.686   5.522 -0.4578  1.2953 -0.9561
 5643TIP3   OH216881   0.288   1.870   4.603 -0.1244  0.1659  0.1236
 5643TIP3    H116882   0.277   1.956   4.562 -2.1529  0.8328  1.9628
 5643TIP3    H216883   0.336   1.887   4.684  1.9109 -0.8395 -0.8487
 5644TIP3   OH216884   2.575   2.276   5.718  0.1676 -0.1381  0.1837
 5644TIP3    H116885   2.541   2.260   5.630  0.5530 -0.9903  0.1898
 5644TIP3    H216886   2.591   2.189   5.755  0.6482  0.2215  0.8512
 5645TIP3   OH216887   3.067   1.855   6.086  0.2451  0.1297  0.2181
 5645TIP3    H116888   3.131   1.912   6.128  1.8823 -1.2639 -0.3249
 5645TIP3    H216889   3.106   1.833   6.001 -1.9149  0.9461 -1.0526
 5646TIP3   OH216890   1.022   3.628   4.929 -0.1590 -0.0467 -0.5378
 5646TIP3    H116891   1.085   3.565   4.966  1.7545  1.8562 -0.4734
 5646TIP3    H216892   1.016   3.604   4.837 -1.0508 -1.6280 -0.0825
 5647TIP3   OH216893   6.381   5.388   5.414 -0.3787  0.1148 -0.0349
 5647TIP3    H116894   6.418   5.423   5.495  0.1584  1.0440 -0.6642
 5647TIP3    H216895   6.304   5.338   5.441 -0.4944  0.8471  0.9966
 5648TIP3   OH216896   1.036   3.927   3.804 -0.3825  0.0561 -0.2350
 5648TIP3    H116897   1.085   3.845   3.804 -0.4729  0.0015  0.2608
 5648TIP3    H216898   1.089   3.987   3.856 -1.2958 -0.2806  1.1030
 5649TIP3   OH216899   2.002   4.250   4.627 -0.1778  0.3493 -0.3929
 5649TIP3    H116900   2.050   4.180   4.582  0.0124  1.0310 -1.2602
 5649TIP3    H216901   2.071   4.309   4.658 -0.4621  1.7099 -2.2632
 5650TIP3   OH216902   3.652   1.002   5.451  0.3023 -0.4050  0.0335
 5650TIP3    H116903   3.711   1.076   5.471  1.2060 -0.9370 -0.6568
 5650TIP3    H216904   3.640   0.959   5.536  0.4527  0.0427  0.2879
 5651TIP3   OH216905   6.279   7.392   3.937 -0.5131 -0.3174 -0.5890
 5651TIP3    H116906   6.240   7.311   3.969 -2.3994  0.2586 -1.3633
 5651TIP3    H216907   6.289   7.447   4.014 -2.8840  0.1878 -0.6285
 5652TIP3   OH216908   2.011   4.175   6.470  0.1813  0.2602 -0.4910
 5652TIP3    H116909   1.972   4.130   6.395  1.6076  0.4196 -1.3681
 5652TIP3    H216910   2.035   4.261   6.436 -2.2837  1.6243  1.1034
 5653TIP3   OH216911   1.056   1.200   4.713 -0.2374  0.3653  0.3209
 5653TIP3    H116912   1.115   1.128   4.735  0.8208  1.1637  0.1288
 5653TIP3    H216913   1.107   1.279   4.728 -1.1786  1.0675 -0.0798
 5654TIP3   OH216914   0.574   2.838   3.822 -0.1534  0.1588 -0.8181
 5654TIP3    H116915   0.600   2.930   3.818 -0.8723  0.2725 -3.2803
 5654TIP3    H216916   0.652   2.790   3.794 -0.3703  0.1263 -1.3699
 5655TIP3   OH216917   0.577   3.523   6.005 -0.0007 -0.6491  0.2237
 5655TIP3    H116918   0.511   3.462   5.973 -0.4583  0.4913 -1.0398
 5655TIP3    H216919   0.566   3.602   5.952  0.4035  0.6425  1.9851
 5656TIP3   OH216920   3.686   5.341   0.512 -0.2285 -0.2118  0.1230
 5656TIP3    H116921   3.624   5.372   0.578  0.5617 -0.1054  0.8277
 5656TIP3    H216922   3.665   5.248   0.502 -0.2916 -0.2488  0.5954
 5657TIP3   OH216923   7.681   2.749   5.217  0.3953 -0.4793 -0.1014
 5657TIP3    H116924   7.662   2.696   5.294 -0.2130 -0.8489 -0.5049
 5657TIP3    H216925   7.627   2.827   5.228  0.9034 -0.1684  0.2351
 5658TIP3   OH216926   5.553   5.995   0.193  0.4390 -0.4600  0.7959
 5658TIP3    H116927   5.494   6.047   0.247  1.5133  0.6091  0.9663
 5658TIP3    H216928   5.635   5.993   0.242  0.4742 -2.1571  0.6985
 5659TIP3   OH216929   2.200   2.285   4.666  0.4325  0.1002 -0.3548
 5659TIP3    H116930   2.156   2.366   4.693  0.7869  0.2267 -0.1632
 5659TIP3    H216931   2.190   2.283   4.571  0.3964  0.3503 -0.3564
 5660TIP3   OH216932   0.549   0.647   2.209  0.1729  0.3456  0.4249
 5660TIP3    H116933   0.484   0.588   2.172 -1.9013  2.5212  0.4805
 5660TIP3    H216934   0.501   0.698   2.274  1.8836  2.1136  0.3495
 5661TIP3   OH216935   1.802   2.056   5.506 -0.1392  0.0361  0.1731
 5661TIP3    H116936   1.832   2.027   5.420 -0.5517 -2.1330  0.7226
 5661TIP3    H216937   1.714   2.017   5.515 -0.4130  0.8828  1.2541
 5662TIP3   OH216938   7.024   3.949   4.818  0.1085 -0.4104  0.2346
 5662TIP3    H116939   7.039   3.874   4.874  0.0828  0.3141  1.2256
 5662TIP3    H216940   6.978   3.913   4.741  4.0198 -2.1284 -1.4065
 5663TIP3   OH216941   7.644   2.356   4.046 -0.2875  0.2163 -0.2044
 5663TIP3    H116942   7.588   2.352   4.123  0.3647  0.2752  0.2801
 5663TIP3    H216943   7.611   2.432   3.997 -1.1535 -0.2484 -0.3461
 5664TIP3   OH216944   6.988   1.961   5.953  0.3686  0.2781  0.5121
 5664TIP3    H116945   6.949   2.038   5.913  4.5239  2.8423  1.0987
 5664TIP3    H216946   7.021   1.910   5.880 -0.3643  0.1987  0.2324
 5665TIP3   OH216947   5.838   6.357   0.559 -0.1062 -0.0003 -0.6818
 5665TIP3    H116948   5.855   6.278   0.609  0.7492  0.0628 -0.8642
 5665TIP3    H216949   5.748   6.381   0.581 -0.0622 -0.5127  0.0690
 5666TIP3   OH216950   7.729   0.446   0.267 -0.0214  0.3783  0.4286
 5666TIP3    H116951   7.783   0.370   0.244 -1.6558 -0.8286  0.4800
 5666TIP3    H216952   7.763   0.475   0.351 -0.3114 -1.2129  1.1223
 5667TIP3   OH216953   1.387   0.505   4.526 -0.2294 -0.4091  0.3340
 5667TIP3    H116954   1.380   0.597   4.501  0.8296 -1.0749 -2.5152
 5667TIP3    H216955   1.309   0.464   4.489 -1.2285 -0.5395  2.4556
 5668TIP3   OH216956   1.175   2.006   6.016 -0.6092  0.3236  0.1784
 5668TIP3    H116957   1.214   2.038   5.935  1.1645 -1.1094  0.4202
 5668TIP3    H216958   1.138   1.921   5.992 -0.2636 -0.0083  0.7893
 5669TIP3   OH216959   2.338   2.695   6.166  0.6852 -0.3107  0.6726
 5669TIP3    H116960   2.324   2.757   6.238  0.0917  1.1236 -0.6390
 5669TIP3    H216961   2.380   2.748   6.098 -0.5990 -1.1336 -0.7860
 5670TIP3   OH216962   2.166   5.116   3.801  0.0302 -0.2024  0.0483
 5670TIP3    H116963   2.216   5.196   3.814  0.8780 -0.6812 -0.2336
 5670TIP3    H216964   2.224   5.059   3.751 -1.1793 -0.3858 -1.1723
 5671TIP3   OH216965   2.140   3.144   3.336 -0.2170  0.0929  0.5583
 5671TIP3    H116966   2.227   3.164   3.370  0.7236 -0.0633 -1.6463
 5671TIP3    H216967   2.085   3.216   3.367  1.7048  2.6779 -1.7782
 5672TIP3   OH216968   2.158   0.039   3.106 -0.0221 -0.3625 -0.3500
 5672TIP3    H116969   2.136   0.127   3.137 -0.3885 -0.1814 -1.1152
 5672TIP3    H216970   2.119  -0.019   3.170 -0.2838  0.0217 -0.1567
 5673TIP3   OH216971   2.333   2.333   2.256  0.5335 -0.1512  0.0263
 5673TIP3    H116972   2.397   2.380   2.309  1.0317  0.5423 -1.1675
 5673TIP3    H216973   2.256   2.390   2.255  0.0839 -0.7290  1.0020
 5674TIP3   OH216974   6.968   1.597   5.082  0.2044 -0.2712  0.5016
 5674TIP3    H116975   6.978   1.662   5.013 -0.1246 -1.2549 -0.4983
 5674TIP3    H216976   6.982   1.645   5.163  3.0707  0.3950 -0.3487
 5675TIP3   OH216977   0.060   3.780   2.325 -0.3995 -0.3415 -0.5225
 5675TIP3    H116978   0.021   3.841   2.387 -1.8372  2.0593 -3.6615
 5675TIP3    H216979  -0.015   3.735   2.286  0.3908 -0.7348 -1.6026
 5676TIP3   OH216980   2.254   0.396   3.825 -0.7465 -0.0773 -0.5055
 5676TIP3    H116981   2.282   0.484   3.850  1.4688 -0.8169 -0.2474
 5676TIP3    H216982   2.303   0.377   3.745 -1.2988 -1.0170 -0.6244
 5677TIP3   OH216983   3.626   0.244   4.933  0.6798  0.5398 -0.5504
 5677TIP3    H116984   3.555   0.189   4.902 -0.0949  0.0219  2.0157
 5677TIP3    H216985   3.583   0.320   4.973  1.4953  0.0222  1.4151
 5678TIP3   OH216986   7.141   2.469   4.473  0.1885  0.3461  0.0521
 5678TIP3    H116987   7.172   2.531   4.406  0.0545  0.4257  0.0646
 5678TIP3    H216988   7.089   2.522   4.533  1.2626  0.5054  0.8699
 5679TIP3   OH216989   1.994   2.771   4.487  0.1212 -0.2314 -0.1461
 5679TIP3    H116990   1.911   2.725   4.473  1.1769 -2.2063 -0.0385
 5679TIP3    H216991   2.055   2.703   4.515  1.8480  1.1604 -0.4395
 5680TIP3   OH216992   3.629   3.581   6.350  0.1255 -0.1857 -0.8315
 5680TIP3    H116993   3.599   3.519   6.283  0.7115 -1.8197  0.4013
 5680TIP3    H216994   3.705   3.538   6.391 -0.5456  0.5535  1.2449
 5681TIP3   OH216995   1.495   1.007   4.572  0.0635  0.2038  0.1542
 5681TIP3    H116996   1.583   0.997   4.607 -0.2024 -1.1351  0.4527
 5681TIP3    H216997   1.481   1.102   4.568  0.3926  0.4118  2.9344
 5682TIP3   OH216998   1.158   2.094   5.078  0.5198 -0.6864  0.2289
 5682TIP3    H116999   1.064   2.079   5.077  0.3242  0.4332  0.7123
 5682TIP3    H217000   1.178   2.130   4.991  0.3776 -0.2020  0.3975
 5683TIP3   OH217001   0.103   7.412   5.119 -0.2004  0.2735 -0.1376
 5683TIP3    H117002   0.109   7.422   5.214  1.6594  1.5201 -0.3694
 5683TIP3    H217003   0.148   7.330   5.101  0.0759  0.3950 -0.0103
 5684TIP3   OH217004   0.100   1.512   5.835  0.0261  0.1954 -0.0555
 5684TIP3    H117005   0.064   1.589   5.791  2.1405  0.9625 -0.4889
 5684TIP3    H217006   0.134   1.546   5.919 -0.1546 -0.4870  0.2949
 5685TIP3   OH217007   3.377   0.582   4.528  0.1693 -0.4731  0.4459
 5685TIP3    H117008   3.344   0.590   4.618  1.1681  3.1115  0.5666
 5685TIP3    H217009   3.385   0.488   4.514 -3.8015 -1.2448  2.6891
 5686TIP3   OH217010   1.027   0.632   3.527 -0.1383  0.1411 -0.3839
 5686TIP3    H117011   1.009   0.538   3.531  0.3312  0.0936  1.1786
 5686TIP3    H217012   1.092   0.641   3.458  0.2751 -0.7731 -0.1268
 5687TIP3   OH217013   1.000   1.986   4.607  0.5194 -0.5472 -0.2814
 5687TIP3    H117014   0.967   1.944   4.686 -1.5390  0.3230 -0.6543
 5687TIP3    H217015   1.033   1.913   4.554  2.2136 -1.1028  1.4859
 5688TIP3   OH217016   0.614   2.700   5.209 -0.0564  0.2919  0.0529
 5688TIP3    H117017   0.655   2.774   5.253  0.4152  0.5809 -0.8479
 5688TIP3    H217018   0.688   2.652   5.171 -0.5124  0.5335 -1.1456
 5689TIP3   OH217019   1.272   4.667   4.978  0.4788  0.2473  0.3135
 5689TIP3    H117020   1.308   4.583   5.007 -0.0343 -0.1431 -0.1677
 5689TIP3    H217021   1.194   4.680   5.033  0.4241  0.3002  0.2229
 5690TIP3   OH217022   6.311   1.437   5.900 -0.4236  0.0358  0.7561
 5690TIP3    H117023   6.294   1.469   5.812  0.9833 -0.2577  0.3672
 5690TIP3    H217024   6.245   1.480   5.955 -2.7973 -1.5780 -0.7782
 5691TIP3   OH217025   2.529   1.961   4.132 -0.0101 -0.3335 -0.0442
 5691TIP3    H117026   2.527   1.877   4.086 -1.8598 -1.1660  1.4753
 5691TIP3    H217027   2.565   1.939   4.218  1.7587  0.8880 -0.4547
 5692TIP3   OH217028   7.280   3.829   4.179 -0.3945 -0.0897 -0.2597
 5692TIP3    H117029   7.286   3.861   4.088  0.2332  0.9612  0.1454
 5692TIP3    H217030   7.296   3.735   4.172  1.4376  0.2519 -1.0380
 5693TIP3   OH217031   1.994   3.332   5.229  0.2854  0.2857  0.1529
 5693TIP3    H117032   2.046   3.297   5.157  0.6261  2.5180 -0.7360
 5693TIP3    H217033   1.915   3.278   5.229  0.3275  0.1599 -1.8325
 5694TIP3   OH217034   0.691   2.200   4.334 -0.0553  0.3288  0.4524
 5694TIP3    H117035   0.727   2.215   4.421  1.5050  0.3331 -0.1895
 5694TIP3    H217036   0.671   2.287   4.300  0.5210  0.4090  0.3129
 5695TIP3   OH217037   6.999   0.899   5.064 -0.1444  0.1346  0.6369
 5695TIP3    H117038   6.932   0.965   5.045 -0.8690 -0.5081  0.9737
 5695TIP3    H217039   6.971   0.859   5.146  0.6545 -0.1371  0.7797
 5696TIP3   OH217040   0.863   2.525   4.454 -0.0256 -0.4304  0.2715
 5696TIP3    H117041   0.828   2.611   4.476 -0.0947 -0.7543  1.4366
 5696TIP3    H217042   0.796   2.485   4.399  1.4882  1.5883 -3.2027
 5697TIP3   OH217043   7.637   4.071   5.087 -0.1081 -0.1366 -0.0939
 5697TIP3    H117044   7.603   4.059   4.998 -0.4780  2.8218 -0.4082
 5697TIP3    H217045   7.731   4.086   5.074 -0.3823  1.6570 -0.1457
 5698TIP3   OH217046   6.971   2.552   5.657  0.2713  0.1829  0.2288
 5698TIP3    H117047   7.005   2.538   5.568 -0.7576  0.6153 -0.2547
 5698TIP3    H217048   6.877   2.565   5.644  0.4789  2.9627  1.0710
 5699TIP3   OH217049   7.017   0.696   0.053  0.5209  0.1131  0.1644
 5699TIP3    H117050   6.978   0.712  -0.033 -1.5504  1.2138  1.2611
 5699TIP3    H217051   6.980   0.612   0.081 -0.9208  1.0452  1.1082
 5700TIP3   OH217052   1.575   6.390   0.330 -0.2030 -0.0719  0.6112
 5700TIP3    H117053   1.582   6.458   0.397  0.7584 -0.4415  0.8883
 5700TIP3    H217054   1.658   6.343   0.334  0.2139  0.4535 -1.4652
 5701TIP3   OH217055   2.245   1.571   5.658  0.3856  0.2864 -0.4610
 5701TIP3    H117056   2.228   1.576   5.564  0.8692  1.0637 -0.5119
 5701TIP3    H217057   2.304   1.644   5.675 -0.5652  0.8002  0.6501
 5702TIP3   OH217058   3.594   3.402   0.539  0.7261 -0.1747  0.0418
 5702TIP3    H117059   3.569   3.444   0.457  0.7989 -0.0770  0.0689
 5702TIP3    H217060   3.588   3.472   0.605 -1.8929 -0.8637  0.6048
 5703TIP3   OH217061   7.373   1.732   4.713  0.1551 -0.6747  0.0989
 5703TIP3    H117062   7.322   1.652   4.725  1.5121 -1.2999  1.8748
 5703TIP3    H217063   7.426   1.738   4.792  0.9716  1.3274 -0.5905
 5704TIP3   OH217064   0.269   0.488   5.164  0.0327 -0.2720  0.2149
 5704TIP3    H117065   0.329   0.556   5.195  0.1959  0.0896 -0.8858
 5704TIP3    H217066   0.316   0.406   5.177  0.0587 -0.1320  1.0150
 5705TIP3   OH217067   2.074   2.337   3.746 -0.7839 -0.1637 -0.2020
 5705TIP3    H117068   2.112   2.422   3.725  0.8934 -1.6185 -3.2450
 5705TIP3    H217069   1.979   2.353   3.747 -0.4722  1.8081 -0.2540
 5706TIP3   OH217070   0.841   1.620   4.668  0.3700 -0.4399 -0.1257
 5706TIP3    H117071   0.914   1.578   4.622  1.5055  0.2191  1.0239
 5706TIP3    H217072   0.878   1.701   4.702 -1.4682  0.9044 -1.2604
 5707TIP3   OH217073   2.590   1.089   3.698 -0.2726  0.2832 -0.2307
 5707TIP3    H117074   2.676   1.085   3.739 -0.3643  1.9874  0.1680
 5707TIP3    H217075   2.594   1.026   3.626  0.9972 -0.2928  0.3323
 5708TIP3   OH217076   2.885   1.900   4.876 -0.4087 -0.1873 -0.3669
 5708TIP3    H117077   2.866   1.892   4.783 -0.8846  1.1203 -0.3792
 5708TIP3    H217078   2.871   1.992   4.896 -0.2438 -0.4497  0.9868
 5709TIP3   OH217079   2.998   0.877   4.685  0.7588  0.4882 -0.2332
 5709TIP3    H117080   3.090   0.904   4.681  1.0898 -0.7951 -2.2655
 5709TIP3    H217081   2.997   0.803   4.744  1.4866 -1.0491 -2.0832
 5710TIP3   OH217082   0.767   1.754   3.488  0.9599  0.1401  0.2731
 5710TIP3    H117083   0.761   1.674   3.436 -2.2868  0.1192  0.5986
 5710TIP3    H217084   0.800   1.820   3.427 -1.3594 -0.2338 -1.4600
 5711TIP3   OH217085   1.845   2.403   4.427 -0.0216  0.6822  0.7726
 5711TIP3    H117086   1.907   2.383   4.356  1.3338  1.4860  1.7008
 5711TIP3    H217087   1.785   2.329   4.428  0.6608  0.0897 -0.4364
 5712TIP3   OH217088   1.508   1.951   4.642 -0.1282  0.3239  0.1051
 5712TIP3    H117089   1.427   2.001   4.641  0.5518  1.5369  1.9810
 5712TIP3    H217090   1.481   1.861   4.625 -1.7844  0.8143  0.0626
 5713TIP3   OH217091   2.367   3.216   1.155  0.3811 -0.2731 -0.5583
 5713TIP3    H117092   2.272   3.212   1.155  0.4107 -1.5281  1.2590
 5713TIP3    H217093   2.388   3.308   1.174 -0.4723 -0.2266  0.1658
 5714TIP3   OH217094   0.691   0.608   5.650 -0.0049 -0.4445 -1.0294
 5714TIP3    H117095   0.596   0.605   5.659 -0.1737 -0.0209 -2.5811
 5714TIP3    H217096   0.707   0.682   5.592  1.2828 -0.5200 -0.7745
 5715TIP3   OH217097   4.932   6.185   0.695 -0.5891 -0.3297  0.1426
 5715TIP3    H117098   4.966   6.191   0.785  0.4741  0.4793 -0.2992
 5715TIP3    H217099   4.942   6.093   0.672 -0.0636 -0.3787  0.5569
 5716TIP3   OH217100   2.105   0.679   6.416  0.0172  0.0077  0.7558
 5716TIP3    H117101   2.160   0.755   6.434  0.0957  0.3822 -0.9241
 5716TIP3    H217102   2.167   0.608   6.402  0.0902  0.3779 -0.9054
 5717TIP3   OH217103   1.161   0.551   5.706 -0.7735  0.4474 -0.4479
 5717TIP3    H117104   1.244   0.592   5.729 -0.6229  0.1698 -0.4962
 5717TIP3    H217105   1.137   0.499   5.783 -1.5525  1.5506  0.0739
 5718TIP3   OH217106   6.189   7.067   5.452  0.0753 -0.5785 -0.2046
 5718TIP3    H117107   6.176   7.161   5.467  1.8274 -0.4480  0.6924
 5718TIP3    H217108   6.205   7.059   5.358  0.3221  0.0749 -0.2204
 5719TIP3   OH217109   2.621   3.062   3.368  0.5949  0.0663 -0.8312
 5719TIP3    H117110   2.568   3.020   3.435  0.1315  0.9749 -0.6104
 5719TIP3    H217111   2.561   3.078   3.295  0.7638  0.3276 -0.9163
 5720TIP3   OH217112   7.056   3.104   5.586 -0.2981  0.3912 -0.0880
 5720TIP3    H117113   7.152   3.104   5.593 -0.2293  0.8825 -0.9277
 5720TIP3    H217114   7.037   3.172   5.521 -1.3288  1.5944  1.4392
 5721TIP3   OH217115   1.849   3.586   5.472 -0.1930  0.1855  1.0879
 5721TIP3    H117116   1.910   3.572   5.400  0.1152 -0.2002  1.4230
 5721TIP3    H217117   1.823   3.678   5.464  0.7637  0.4702  1.1940
 5722TIP3   OH217118   0.209   1.367   5.336  0.4511 -0.7046  0.0898
 5722TIP3    H117119   0.262   1.441   5.308 -1.2348  0.4685 -0.0743
 5722TIP3    H217120   0.165   1.338   5.255 -1.5231  0.2976  0.7828
 5723TIP3   OH217121   1.147   3.074   4.415  0.0703 -0.1362 -0.4412
 5723TIP3    H117122   1.067   3.040   4.373 -0.4058 -0.4976  0.7423
 5723TIP3    H217123   1.135   3.169   4.415  1.0387  0.0434 -3.0240
 5724TIP3   OH217124   2.106   4.657   5.789 -0.1676  0.0832  0.8263
 5724TIP3    H117125   2.014   4.634   5.788 -0.3898  0.9084 -1.5222
 5724TIP3    H217126   2.142   4.618   5.709  1.0620  1.5096  0.6582
 5725TIP3   OH217127   4.063   6.107   0.224 -0.1749 -0.1464  0.1655
 5725TIP3    H117128   3.970   6.095   0.204 -0.2486 -0.5795  0.7540
 5725TIP3    H217129   4.074   6.202   0.229 -0.9591 -0.1112  1.7518
 5726TIP3   OH217130   1.811   3.791   3.574  0.0928 -0.0050 -0.3739
 5726TIP3    H117131   1.750   3.749   3.635 -1.6081  1.2194 -1.1892
 5726TIP3    H217132   1.881   3.824   3.630  0.3018 -1.8579  0.5256
 5727TIP3   OH217133   1.957   1.295   3.424 -0.3441  0.1520  0.0854
 5727TIP3    H117134   2.025   1.353   3.390 -0.4584 -0.4417 -1.1867
 5727TIP3    H217135   1.999   1.210   3.431 -0.3791  0.2252  1.2653
 5728TIP3   OH217136   3.594   2.876   6.443 -0.0372  0.2643 -0.4678
 5728TIP3    H117137   3.593   2.956   6.390  0.4301  1.2448  0.9685
 5728TIP3    H217138   3.682   2.874   6.480 -0.4551 -0.2627  0.4949
 5729TIP3   OH217139   3.112   6.036   0.809  0.5231  0.1816  0.5369
 5729TIP3    H117140   3.075   6.112   0.766  1.4826  0.4275  0.1260
 5729TIP3    H217141   3.176   6.001   0.747  1.3787  0.0985  1.4368
 5730TIP3   OH217142   3.451   2.074   4.273  0.0985 -0.2192 -0.0607
 5730TIP3    H117143   3.420   2.161   4.299 -0.4566 -0.9446  1.7831
 5730TIP3    H217144   3.373   2.019   4.274  0.6904 -1.0687  0.2957
 5731TIP3   OH217145   3.967   4.264   1.236 -0.0868  0.0019  0.3853
 5731TIP3    H117146   3.895   4.282   1.296 -1.9279 -4.2683 -0.3895
 5731TIP3    H217147   4.038   4.233   1.293 -1.2316 -2.3200  0.6224
 5732TIP3   OH217148   2.433   6.448   1.378 -0.4516 -0.2042 -0.8008
 5732TIP3    H117149   2.409   6.539   1.361  0.1987  0.2064  0.3878
 5732TIP3    H217150   2.399   6.430   1.466  0.4805 -0.7273 -0.5378
 5733TIP3   OH217151   0.664   1.721   4.242  0.2713  0.3471  0.6452
 5733TIP3    H117152   0.743   1.671   4.223 -0.1006 -0.0696  0.1913
 5733TIP3    H217153   0.650   1.775   4.164 -0.4791 -0.3517  0.2849
 5734TIP3   OH217154   4.613   4.214   0.555 -0.4550 -0.3840 -0.4427
 5734TIP3    H117155   4.581   4.285   0.500 -0.3879  1.2761  1.6241
 5734TIP3    H217156   4.534   4.167   0.582 -0.6869  0.2948  0.0594
 5735TIP3   OH217157   4.867   7.392   2.678 -0.6309 -0.3810  0.1842
 5735TIP3    H117158   4.819   7.350   2.607  0.3043 -0.8923 -0.1558
 5735TIP3    H217159   4.937   7.330   2.700 -0.4808  0.0860  1.0742
 5736TIP3   OH217160   0.808   3.088   3.166  0.1816 -0.4151 -0.3331
 5736TIP3    H117161   0.717   3.058   3.159 -0.3747  1.1856 -0.2809
 5736TIP3    H217162   0.806   3.157   3.232  0.7849  1.9620 -2.6936
 5737TIP3   OH217163   2.678   2.718   4.401 -0.8324  0.0994 -0.1054
 5737TIP3    H117164   2.740   2.758   4.462  0.7315  0.0168 -1.5984
 5737TIP3    H217165   2.718   2.634   4.377 -1.0566  0.4471 -1.7822
 5738TIP3   OH217166   0.126   1.679   5.070 -0.4696  0.0769  0.1102
 5738TIP3    H117167   0.075   1.613   5.023 -2.0043  1.0321  0.4220
 5738TIP3    H217168   0.142   1.748   5.006  0.7353 -0.3569 -0.0803
 5739TIP3   OH217169   1.416   6.396   4.190  0.1433  0.2903  0.1389
 5739TIP3    H117170   1.399   6.338   4.264  1.9876 -0.6726 -0.1779
 5739TIP3    H217171   1.333   6.397   4.141 -0.1416 -1.4355  0.5666
 5740TIP3   OH217172   0.202   1.649   6.052 -1.0015 -0.2223  0.5347
 5740TIP3    H117173   0.149   1.709   6.104 -0.2975 -1.6881  3.0522
 5740TIP3    H217174   0.267   1.615   6.113  2.0168  0.4955 -2.1473
 5741TIP3   OH217175   2.356   1.341   4.476 -0.3829 -0.0309 -0.6124
 5741TIP3    H117176   2.277   1.337   4.530 -0.0578 -1.6399 -0.2545
 5741TIP3    H217177   2.416   1.397   4.526 -0.7603  0.0010 -0.1919
 5742TIP3   OH217178   2.568   2.551   2.865  0.3807 -0.2230 -0.2834
 5742TIP3    H117179   2.586   2.559   2.959 -0.7246 -0.8283 -0.0220
 5742TIP3    H217180   2.508   2.477   2.858 -0.8533  0.8577 -1.3131
 5743TIP3   OH217181   1.830   4.071   4.780  0.6916 -0.0179 -0.6399
 5743TIP3    H117182   1.870   4.117   4.706  0.5656 -0.9294 -1.2784
 5743TIP3    H217183   1.890   4.086   4.853  0.7282  1.0306 -0.8729
 5744TIP3   OH217184   7.219   4.592   4.794 -0.1411 -0.1622 -0.6781
 5744TIP3    H117185   7.217   4.608   4.700 -1.0076 -0.4217 -0.7063
 5744TIP3    H217186   7.232   4.497   4.802 -2.7219 -0.5381 -0.5668
 5745TIP3   OH217187   0.795   1.845   3.759  0.4131  0.2359 -0.6989
 5745TIP3    H117188   0.767   1.772   3.814  0.0962  0.2810 -0.8034
 5745TIP3    H217189   0.758   1.827   3.673  1.6396 -0.2890 -1.1355
 5746TIP3   OH217190   1.465   4.533   4.380  0.5581 -0.4293  0.2635
 5746TIP3    H117191   1.521   4.518   4.304  0.6331 -2.8931  0.7477
 5746TIP3    H217192   1.407   4.457   4.382  1.3977 -1.0809  3.3780
 5747TIP3   OH217193   2.980   1.581   4.199 -0.4011  0.2184 -0.4752
 5747TIP3    H117194   2.947   1.653   4.147  0.4212  0.3829 -0.7832
 5747TIP3    H217195   2.929   1.505   4.172 -1.3582  0.7105 -0.0466
 5748TIP3   OH217196   2.638   0.336   4.110  0.1926  0.2212 -0.3914
 5748TIP3    H117197   2.675   0.248   4.124 -0.1322  0.2960  1.0089
 5748TIP3    H217198   2.679   0.390   4.177 -1.0046  0.7368 -0.0625
 5749TIP3   OH217199   7.335   1.866   3.989 -0.4485 -0.0402 -0.3074
 5749TIP3    H117200   7.366   1.777   4.004 -1.0218  0.1143  2.0402
 5749TIP3    H217201   7.380   1.918   4.055 -1.4732  1.1107 -0.5077
 5750TIP3   OH217202   2.353   6.165   0.307  0.1785  0.4598 -0.1318
 5750TIP3    H117203   2.409   6.174   0.384  1.8643 -1.0988 -1.1391
 5750TIP3    H217204   2.355   6.251   0.265  0.4413  0.8888  0.7605
 5751TIP3   OH217205   0.408   2.496   4.180 -0.4494  0.2134  0.2402
 5751TIP3    H117206   0.382   2.588   4.179  0.4300  0.4736 -1.0021
 5751TIP3    H217207   0.417   2.473   4.087  1.8600 -0.3755  0.5790
 5752TIP3   OH217208   1.557   1.482   5.111 -0.1682  0.3863  0.0355
 5752TIP3    H117209   1.483   1.447   5.159 -0.8106  0.0461 -1.1693
 5752TIP3    H217210   1.531   1.571   5.087  0.4345  0.8047  0.9152
 5753TIP3   OH217211   2.037   3.618   4.324  0.3438  0.4294  0.0125
 5753TIP3    H117212   2.087   3.646   4.401  0.8166  0.5441 -0.3332
 5753TIP3    H217213   2.054   3.524   4.318  0.0127  0.3546  0.2642
 5754TIP3   OH217214   0.641   4.344   5.613  0.9761 -0.3839 -0.1293
 5754TIP3    H117215   0.577   4.282   5.580 -0.0828  1.1908 -1.0662
 5754TIP3    H217216   0.600   4.382   5.691  1.2172 -0.1287 -0.1263
 5755TIP3   OH217217   2.474   2.586   5.691 -0.2240  0.0591 -0.2508
 5755TIP3    H117218   2.546   2.638   5.656 -0.6644  1.2520  0.5765
 5755TIP3    H217219   2.426   2.557   5.613  0.3791  0.3730 -0.7469
 5756TIP3   OH217220   3.898   0.731   0.041  0.5231 -0.2510  0.3988
 5756TIP3    H117221   3.978   0.686   0.068  0.1223 -0.2008  1.6846
 5756TIP3    H217222   3.895   0.810   0.095  0.4453  0.5674 -0.7870
 5757TIP3   OH217223   1.488   5.034   0.396  0.0476  0.0694  0.5047
 5757TIP3    H117224   1.513   5.011   0.485 -0.1992 -1.8276  0.1128
 5757TIP3    H217225   1.569   5.023   0.345 -0.8386 -3.4631 -0.2928
 5758TIP3   OH217226   3.021   2.019   3.177 -0.1714 -0.3536  0.0116
 5758TIP3    H117227   2.972   2.097   3.202  0.5832 -0.3798  1.6263
 5758TIP3    H217228   3.055   1.984   3.259  1.6166 -0.9613 -0.9598
 5759TIP3   OH217229   1.391   1.690   3.387 -0.2628  0.1025  0.4798
 5759TIP3    H117230   1.359   1.779   3.373 -1.5154 -0.7772 -2.7588
 5759TIP3    H217231   1.438   1.694   3.470 -2.3167  3.2205  1.5727
 5760TIP3   OH217232   0.691   1.007   5.167 -0.0115  0.3662 -0.3293
 5760TIP3    H117233   0.769   0.975   5.123  1.0705  0.8186  1.2263
 5760TIP3    H217234   0.635   0.930   5.175  1.0534 -0.3573  0.1936
 5761TIP3   OH217235   2.589   1.965   4.560 -0.2997  0.1906 -0.2773
 5761TIP3    H117236   2.497   1.988   4.548  0.1795  1.4807 -1.7514
 5761TIP3    H217237   2.612   1.915   4.481  0.7465  1.5297 -0.8451
 5762TIP3   OH217238   2.241   1.645   3.727  0.1701  0.3674  0.1157
 5762TIP3    H117239   2.307   1.610   3.788  0.2749  0.2817 -0.0481
 5762TIP3    H217240   2.281   1.636   3.641  0.0553  0.5734  0.0425
 5763TIP3   OH217241   2.071   1.854   3.745  0.4162  0.0864 -0.7576
 5763TIP3    H117242   2.101   1.764   3.733  0.1157 -0.1298  0.0491
 5763TIP3    H217243   2.140   1.894   3.798  0.7637  0.4555 -1.4884
 5764TIP3   OH217244   6.453   6.580   5.978 -0.0332  0.1088 -0.2427
 5764TIP3    H117245   6.435   6.545   5.891  2.1155  1.1354 -1.1250
 5764TIP3    H217246   6.494   6.508   6.025 -1.3641 -0.5051  0.0069
 5765TIP3   OH217247   1.507   2.015   5.444  0.6956 -0.1557 -0.2139
 5765TIP3    H117248   1.531   2.066   5.367  0.7673  1.9577  1.1644
 5765TIP3    H217249   1.413   2.000   5.436  1.1959 -2.5052 -2.1671
 5766TIP3   OH217250   2.844   4.453   4.372  0.4077 -0.0347  0.2528
 5766TIP3    H117251   2.877   4.411   4.451  3.7908  1.3715 -0.3356
 5766TIP3    H217252   2.883   4.404   4.300  0.2983  0.9232 -0.4772
 5767TIP3   OH217253   0.844   1.896   3.271  0.8409 -0.5699 -0.0087
 5767TIP3    H117254   0.813   1.921   3.184  1.5381  0.2123 -0.0363
 5767TIP3    H217255   0.913   1.832   3.255 -0.4616 -1.9949  0.0395
 5768TIP3   OH217256   3.196   4.016   0.008  0.3859 -0.3428  0.1451
 5768TIP3    H117257   3.259   4.031  -0.062  0.7717  0.1069  0.5871
 5768TIP3    H217258   3.235   4.057   0.085 -0.9507  0.8842  0.1789
 5769TIP3   OH217259   6.814   3.668   5.178 -0.5185 -0.2105  0.0214
 5769TIP3    H117260   6.892   3.719   5.156  0.4549 -1.0035  1.5615
 5769TIP3    H217261   6.798   3.615   5.100  0.7777 -0.4105 -0.1265
 5770TIP3   OH217262   1.482   0.990   6.324  0.0259 -0.3413  0.2802
 5770TIP3    H117263   1.493   1.005   6.230  1.0677 -0.5892  0.3625
 5770TIP3    H217264   1.406   1.043   6.347  0.8050  1.0888 -0.3642
 5771TIP3   OH217265   1.294   1.411   5.216 -0.1319 -0.2639 -0.3750
 5771TIP3    H117266   1.219   1.426   5.157 -1.1733 -2.6278  0.2686
 5771TIP3    H217267   1.290   1.317   5.235  2.1087 -0.1194  0.9132
 5772TIP3   OH217268   2.098   3.359   4.216 -0.3898  0.1543 -0.1407
 5772TIP3    H117269   2.088   3.295   4.286  1.8700  1.0165  1.0259
 5772TIP3    H217270   2.167   3.322   4.160 -3.0462 -1.1561 -2.7033
 5773TIP3   OH217271   6.457   5.036   0.626 -0.8954  0.1099  0.0936
 5773TIP3    H117272   6.384   5.044   0.688 -0.1147  0.5280  0.9728
 5773TIP3    H217273   6.486   4.945   0.634 -0.5520  0.2628  0.6311
 5774TIP3   OH217274   1.591   1.051   4.895 -0.2151 -0.3955 -0.5665
 5774TIP3    H117275   1.594   1.050   4.991 -1.3089  0.8243 -0.5202
 5774TIP3    H217276   1.649   1.123   4.870 -1.3024  0.4050 -0.7726
 5775TIP3   OH217277   0.041   0.452  -0.017 -0.0098  0.1288  0.3850
 5775TIP3    H117278  -0.011   0.391   0.036 -1.3598  0.9101 -0.0270
 5775TIP3    H217279   0.131   0.418  -0.011 -0.7157 -1.7974  0.3081
 5776TIP3   OH217280   2.282   1.038   4.573 -0.0971 -0.0961 -0.1144
 5776TIP3    H117281   2.217   0.968   4.576  1.8587 -2.0127 -1.2678
 5776TIP3    H217282   2.271   1.077   4.486 -1.0951  0.9718  0.4765
 5777TIP3   OH217283   2.065   2.833   3.692 -0.5365  0.0332 -0.2541
 5777TIP3    H117284   1.998   2.839   3.760 -0.2225  0.9987 -0.0146
 5777TIP3    H217285   2.031   2.885   3.619  0.3928  1.4201  0.2675
 5778TIP3   OH217286   1.952   0.810   3.679 -0.5735  0.0496  0.3521
 5778TIP3    H117287   1.859   0.796   3.662 -0.7280  1.1637  0.2417
 5778TIP3    H217288   1.996   0.759   3.612 -1.0302 -3.0397  2.2993
 5779TIP3   OH217289   4.330   4.427   5.648  0.2533 -0.2183 -0.1783
 5779TIP3    H117290   4.421   4.448   5.670  1.0824 -0.4778 -3.1043
 5779TIP3    H217291   4.309   4.485   5.575 -1.7610 -0.5208  0.1478
 5780TIP3   OH217292   2.799   2.884   5.310  0.0898  0.2967  0.0095
 5780TIP3    H117293   2.877   2.939   5.304  0.2619  0.1370  0.7247
 5780TIP3    H217294   2.731   2.943   5.343 -0.3487  0.6849 -1.5884
 5781TIP3   OH217295   3.410   2.451   6.332 -0.5382 -0.3189  0.2202
 5781TIP3    H117296   3.476   2.503   6.379 -1.0025 -0.8187  1.4542
 5781TIP3    H217297   3.406   2.369   6.381 -0.8961 -0.9310 -0.8317
 5782TIP3   OH217298   5.984   6.689   0.085 -0.2228 -0.2604  0.8896
 5782TIP3    H117299   6.058   6.629   0.073 -0.1526 -0.3140  1.6165
 5782TIP3    H217300   5.943   6.694  -0.002  0.2054 -0.7895  0.6575
 5783TIP3   OH217301   3.082   1.963   3.837  0.0616  0.1299  0.5980
 5783TIP3    H117302   2.992   1.961   3.806  0.6892 -0.8694 -1.2303
 5783TIP3    H217303   3.106   2.056   3.834 -0.6804  0.3165  0.3938
 5784TIP3   OH217304   2.888   1.031   3.821 -0.2212  0.0057 -0.3359
 5784TIP3    H117305   2.971   1.004   3.781  0.3319 -1.0940  1.5053
 5784TIP3    H217306   2.901   1.123   3.843  0.9774 -0.4719  1.0470
 5785TIP3   OH217307   3.626   1.333   5.515  0.0549 -0.1976  0.7914
 5785TIP3    H117308   3.686   1.273   5.472 -0.4784 -0.4102  0.3364
 5785TIP3    H217309   3.616   1.298   5.604  0.5376 -0.2066  0.8407
 5786TIP3   OH217310   2.591   2.835   4.185  0.2175  0.1933  0.2995
 5786TIP3    H117311   2.559   2.768   4.124  0.3326  1.2971 -0.9964
 5786TIP3    H217312   2.627   2.785   4.258  0.1241 -1.1605 -0.5578
 5787TIP3   OH217313   3.158   0.394   5.325  0.2974  0.7826 -0.5700
 5787TIP3    H117314   3.136   0.311   5.282  0.2301  0.2141  0.5400
 5787TIP3    H217315   3.174   0.455   5.253  1.2130 -0.4225 -1.4117
 5788TIP3   OH217316   4.651   4.280   4.541  0.5177 -0.1550 -0.8573
 5788TIP3    H117317   4.639   4.229   4.621  0.7944  0.3683 -0.4785
 5788TIP3    H217318   4.719   4.233   4.493  1.0896  0.1015 -0.3026
 5789TIP3   OH217319   1.037   1.148   2.339 -0.7017 -0.2769 -0.0435
 5789TIP3    H117320   1.069   1.185   2.420  0.0199 -1.1148  0.0578
 5789TIP3    H217321   1.011   1.224   2.286  0.2853  0.3436  0.3495
 5790TIP3   OH217322   2.837   3.242   6.184  0.1386 -0.4912 -0.4159
 5790TIP3    H117323   2.768   3.196   6.135 -1.1555  0.7442  0.2072
 5790TIP3    H217324   2.851   3.323   6.136 -0.3990  0.2522  0.6551
 5791TIP3   OH217325   3.524   0.851   4.129  0.1279  0.4068 -0.0595
 5791TIP3    H117326   3.441   0.809   4.154 -0.3478  0.7855 -0.9520
 5791TIP3    H217327   3.558   0.888   4.210 -0.0348 -0.6874  0.5166
 5792TIP3   OH217328   5.355   4.963   0.057  0.6337 -0.4056  0.4838
 5792TIP3    H117329   5.290   4.895   0.072 -0.7608  0.3557 -1.7598
 5792TIP3    H217330   5.438   4.924   0.083 -0.1542 -2.9387 -0.6370
 5793TIP3   OH217331   1.786   3.800   6.418  0.1192  0.1569 -0.3035
 5793TIP3    H117332   1.745   3.884   6.440 -1.7891 -0.8543  0.1554
 5793TIP3    H217333   1.797   3.803   6.323  1.7195  1.6376 -0.0786
 5794TIP3   OH217334   4.215   2.204   5.592 -0.2402  0.1954 -0.0214
 5794TIP3    H117335   4.252   2.239   5.673  0.5319 -1.5801  0.4270
 5794TIP3    H217336   4.289   2.166   5.546 -1.2163 -2.0132  0.1475
 5795TIP3   OH217337   5.495   6.658   0.104 -0.1505  0.0207  0.6469
 5795TIP3    H117338   5.478   6.609   0.184  0.8224 -1.2467  0.0910
 5795TIP3    H217339   5.420   6.638   0.047 -0.2594 -0.0054  0.7994
 5796TIP3   OH217340   3.492   2.857   5.323 -0.5861 -0.3410 -0.0888
 5796TIP3    H117341   3.562   2.795   5.300  1.2081  1.9115 -0.8969
 5796TIP3    H217342   3.520   2.896   5.405  0.3740  2.3610 -1.6575
 5797TIP3   OH217343   1.928   0.754   5.077  0.3666  0.0429  0.2300
 5797TIP3    H117344   1.883   0.753   5.162 -0.8738  3.3459 -0.3094
 5797TIP3    H217345   2.018   0.782   5.098 -0.2409  1.9557  0.3695
 5798TIP3   OH217346   2.468   3.046   4.323 -0.0961  0.3319  0.3708
 5798TIP3    H117347   2.378   3.058   4.292  0.0478  1.7600  0.5011
 5798TIP3    H217348   2.504   2.980   4.264 -0.9140  0.4880 -0.3231
 5799TIP3   OH217349   3.471   2.223   5.860 -0.0420 -0.2779  0.5541
 5799TIP3    H117350   3.543   2.196   5.803  0.5436 -0.9539  1.5954
 5799TIP3    H217351   3.482   2.170   5.939 -0.2179  1.3792  1.7206
 5800TIP3   OH217352   3.136   2.998   5.052 -0.3618 -0.4371  0.3115
 5800TIP3    H117353   3.081   3.016   4.975 -0.6727  0.2743  0.6942
 5800TIP3    H217354   3.225   3.009   5.021 -0.3925 -2.7039 -0.5994
 5801TIP3   OH217355   3.313   2.113   4.004 -0.1958 -0.0830 -0.0002
 5801TIP3    H117356   3.285   2.108   4.095  1.5214  0.9260  0.5867
 5801TIP3    H217357   3.402   2.147   4.007  0.9174 -2.7275 -1.9009
 5802TIP3   OH217358   4.331   1.855   5.666  0.0227 -0.2790 -0.6760
 5802TIP3    H117359   4.336   1.924   5.732  0.1811 -1.0164  0.0941
 5802TIP3    H217360   4.421   1.841   5.639 -0.1270  0.5790 -1.6409
 5803TIP3   OH217361   1.461   3.799   5.023 -0.4778 -0.4333  0.1070
 5803TIP3    H117362   1.541   3.748   5.009 -0.7824 -0.2119 -2.8062
 5803TIP3    H217363   1.491   3.882   5.061  0.7101 -0.3231 -1.0373
 5804TIP3   OH217364   1.885   2.465   6.260 -0.6956  0.2737 -0.2362
 5804TIP3    H117365   1.845   2.424   6.337 -1.1282  1.0177 -0.0634
 5804TIP3    H217366   1.945   2.530   6.295 -0.2264 -0.0040 -0.5164
 5805TIP3   OH217367   2.170   2.670   5.770 -0.5033  0.1624  0.5426
 5805TIP3    H117368   2.113   2.595   5.754 -0.2603  0.2077 -0.6172
 5805TIP3    H217369   2.115   2.746   5.752  0.2052  0.1891 -1.6648
 5806TIP3   OH217370   1.472   4.181   2.600  0.0982 -0.3927  0.2261
 5806TIP3    H117371   1.383   4.187   2.635  0.4766 -1.8447  1.4733
 5806TIP3    H217372   1.490   4.269   2.566 -1.4724  0.1568  0.7679
 5807TIP3   OH217373   6.723   0.948   0.073 -0.1577 -0.0889  0.0255
 5807TIP3    H117374   6.801   0.959   0.128  0.8370  0.8436 -1.5106
 5807TIP3    H217375   6.663   0.895   0.125  1.6205 -1.0314  1.1455
 5808TIP3   OH217376   3.345   3.699   6.201  0.4813 -0.1177 -0.4300
 5808TIP3    H117377   3.293   3.709   6.121 -1.4412 -0.1654  0.7923
 5808TIP3    H217378   3.399   3.778   6.204  0.9124 -0.3312 -2.0075
 5809TIP3   OH217379   6.579   4.988   4.081 -0.7057  0.4467 -0.5742
 5809TIP3    H117380   6.490   4.969   4.051 -0.8681 -0.8424  0.6565
 5809TIP3    H217381   6.620   5.034   4.007 -1.9369 -0.2113 -1.6906
 5810TIP3   OH217382   3.471   2.910   6.035  0.2600  0.4724  0.3383
 5810TIP3    H117383   3.463   3.002   6.059 -1.0787  0.2438  0.7781
 5810TIP3    H217384   3.390   2.870   6.066  0.5419 -0.7220 -0.4567
 5811TIP3   OH217385   2.128   3.182   5.022  0.5709  0.0835 -0.4472
 5811TIP3    H117386   2.132   3.261   4.969 -0.0495  0.0138 -0.5973
 5811TIP3    H217387   2.130   3.110   4.958 -1.3167  0.0133 -0.4523
 5812TIP3   OH217388   7.198   0.633   0.786 -0.0981 -0.5954 -0.1669
 5812TIP3    H117389   7.204   0.622   0.691 -2.3164 -0.6236 -0.3461
 5812TIP3    H217390   7.235   0.720   0.803  0.9757 -0.8929 -0.9653
 5813TIP3   OH217391   1.574   3.959   2.747  0.4008 -0.6499  0.0125
 5813TIP3    H117392   1.580   4.034   2.688 -1.4665 -2.3912 -2.4791
 5813TIP3    H217393   1.482   3.958   2.775  0.7386 -1.1982  1.1471
 5814TIP3   OH217394   2.272   3.924   3.954 -0.3122  0.3952  0.0698
 5814TIP3    H117395   2.201   3.903   3.893 -0.7585  2.3125 -0.0922
 5814TIP3    H217396   2.311   3.839   3.974 -1.3389 -0.4710 -1.4393
 5815TIP3   OH217397   3.301   2.116   4.839 -0.0801  0.3665  0.0350
 5815TIP3    H117398   3.394   2.097   4.848 -0.3235 -0.4298  0.9665
 5815TIP3    H217399   3.260   2.031   4.826 -0.5300  0.8536 -1.8539
 5816TIP3   OH217400   3.026   3.406   4.405 -0.4355 -0.1507 -0.3774
 5816TIP3    H117401   2.944   3.392   4.357 -0.0505 -0.1569 -1.0308
 5816TIP3    H217402   3.061   3.318   4.420 -0.1550 -0.1075 -0.7794
 5817TIP3   OH217403   4.054   3.227   4.401 -0.7182  0.4686  0.4401
 5817TIP3    H117404   4.016   3.269   4.324 -2.4108  0.4979  1.2616
 5817TIP3    H217405   4.009   3.143   4.407 -0.3718  0.3343  1.2068
 5818TIP3   OH217406   7.455   2.989   5.756 -0.1526  0.4546  0.0245
 5818TIP3    H117407   7.408   2.914   5.792  0.1660  1.1385  1.9665
 5818TIP3    H217408   7.546   2.959   5.747 -0.5530 -0.2410 -1.8291
 5819TIP3   OH217409   1.579   1.746   3.584 -0.4112 -0.0283  0.2697
 5819TIP3    H117410   1.651   1.805   3.605 -0.3024  0.1649 -0.6421
 5819TIP3    H217411   1.535   1.731   3.668  1.2753 -0.9195  1.0126
 5820TIP3   OH217412   7.124   6.691   0.245 -0.0877 -0.0270  0.0713
 5820TIP3    H117413   7.175   6.629   0.296  1.0219  1.0525  0.3011
 5820TIP3    H217414   7.188   6.754   0.212 -1.1214  0.7168 -0.5581
 5821TIP3   OH217415   0.076   0.322   2.068 -0.3750  0.3772  0.2716
 5821TIP3    H117416   0.141   0.282   2.126  0.9694  1.7704 -0.2477
 5821TIP3    H217417   0.061   0.256   2.000  2.0302  0.8204 -0.7323
 5822TIP3   OH217418   2.691   3.148   5.353  0.1151 -0.4253 -0.0341
 5822TIP3    H117419   2.664   3.237   5.328 -0.8689 -0.6441  0.1959
 5822TIP3    H217420   2.670   3.143   5.446  1.6793 -0.3596  0.3269
 5823TIP3   OH217421   1.142   2.527   4.408 -0.7283  0.3110 -0.3450
 5823TIP3    H117422   1.047   2.517   4.414 -0.7812  0.3676 -1.0215
 5823TIP3    H217423   1.155   2.597   4.344 -0.2339  0.3485 -0.2053
 5824TIP3   OH217424   2.984   2.850   5.948 -0.2067 -0.1933  0.2300
 5824TIP3    H117425   2.991   2.899   6.031  1.7080 -0.0494  0.0213
 5824TIP3    H217426   2.956   2.763   5.974 -1.5914  0.4106  0.8218
 5825TIP3   OH217427   2.610   3.879   3.299 -0.1599  0.0989  0.0321
 5825TIP3    H117428   2.604   3.887   3.204  0.7302 -1.5780 -0.1940
 5825TIP3    H217429   2.554   3.949   3.333 -1.6247 -0.1684 -1.7353
 5826TIP3   OH217430   4.731   2.862   4.674  0.0677 -0.2716  0.5599
 5826TIP3    H117431   4.682   2.888   4.596  0.0711  0.1401  0.6932
 5826TIP3    H217432   4.769   2.943   4.706  3.8298 -1.0523 -1.5938
 5827TIP3   OH217433   5.305   5.333   1.108  0.1180 -0.0682 -0.1258
 5827TIP3    H117434   5.286   5.323   1.201 -0.4543 -1.7847 -0.4006
 5827TIP3    H217435   5.336   5.423   1.099 -0.5768  0.3655  1.5909
 5828TIP3   OH217436   1.890   1.267   6.183  0.4371 -0.9455 -0.1805
 5828TIP3    H117437   1.856   1.212   6.112  0.6396 -0.9131 -0.3036
 5828TIP3    H217438   1.814   1.284   6.238  0.3254 -1.1595 -0.2661
 5829TIP3   OH217439   5.799   3.957   0.009  0.2058 -0.1665 -0.6386
 5829TIP3    H117440   5.706   3.981   0.009  0.4616  0.8565 -0.6687
 5829TIP3    H217441   5.805   3.883   0.070 -0.3121  1.0496  0.9137
 5830TIP3   OH217442   0.781   2.351   5.242 -0.5160 -0.2453 -0.4004
 5830TIP3    H117443   0.689   2.329   5.259 -1.1153 -0.6719 -3.7764
 5830TIP3    H217444   0.821   2.269   5.214  0.4522  0.3065 -0.6562
 5831TIP3   OH217445   3.093   1.973   6.349 -0.1206 -0.1540  0.0963
 5831TIP3    H117446   3.138   2.051   6.382  0.9766 -1.6571  2.2852
 5831TIP3    H217447   3.003   1.982   6.379 -0.3600  0.9610 -0.9211
 5832TIP3   OH217448   1.497   1.853   6.078  0.7805  0.1721 -0.4156
 5832TIP3    H117449   1.579   1.901   6.067  0.9538 -0.1233 -0.4132
 5832TIP3    H217450   1.463   1.844   5.989 -0.5643  2.5653 -0.2168
 5833TIP3   OH217451   0.633   6.332   5.235 -0.3702 -0.1579 -0.5104
 5833TIP3    H117452   0.544   6.309   5.263 -0.5033  2.4887  1.4679
 5833TIP3    H217453   0.684   6.334   5.316  0.6460  1.8383 -1.1592
 5834TIP3   OH217454   2.514   1.358   3.695 -0.4253  0.0255 -0.0046
 5834TIP3    H117455   2.520   1.368   3.600 -0.8431 -0.5063 -0.0870
 5834TIP3    H217456   2.529   1.265   3.711 -2.0071 -0.1892  0.3074
 5835TIP3   OH217457   2.474   3.392   4.198  0.2307 -0.2242  0.3283
 5835TIP3    H117458   2.443   3.305   4.174  1.0620 -0.5320  0.3412
 5835TIP3    H217459   2.434   3.451   4.134  1.0067 -0.8196 -0.7109
 5836TIP3   OH217460   6.111   3.405   5.267 -0.2644 -0.3511  0.2429
 5836TIP3    H117461   6.186   3.372   5.217  1.5648  2.4514  1.0483
 5836TIP3    H217462   6.115   3.357   5.350  0.3469 -0.5552  0.0964
 5837TIP3   OH217463   5.705   5.998   1.073 -0.1147  0.1049 -0.2143
 5837TIP3    H117464   5.779   6.004   1.013 -0.8962  0.5475 -1.1425
 5837TIP3    H217465   5.631   5.974   1.018 -0.7736  0.1873  0.6266
 5838TIP3   OH217466   5.095   5.752   0.728 -0.1185  0.0030  0.4111
 5838TIP3    H117467   5.079   5.669   0.683 -0.3014  0.5528 -0.5436
 5838TIP3    H217468   5.040   5.815   0.682  1.4512  1.0298 -0.0785
 5839TIP3   OH217469   2.204   3.407   4.874  0.1248  0.6657  0.3603
 5839TIP3    H117470   2.181   3.492   4.912 -0.0515  0.4136  0.8294
 5839TIP3    H217471   2.190   3.418   4.780 -4.6283 -0.2391  0.8024
 5840TIP3   OH217472   3.941   4.312   0.578 -0.5751  0.2191 -0.2304
 5840TIP3    H117473   3.955   4.220   0.554 -2.2210 -0.3709  1.0054
 5840TIP3    H217474   4.016   4.334   0.633  0.1869 -0.1531 -1.0872
 5841TIP3   OH217475   4.733   2.591   5.763  0.3285  0.3512 -0.0839
 5841TIP3    H117476   4.703   2.655   5.699  2.4742 -0.0831 -1.5600
 5841TIP3    H217477   4.708   2.506   5.726 -2.5593  0.2736  1.8938
 5842TIP3   OH217478   7.128   6.624   0.630 -0.3137  0.3327 -0.2740
 5842TIP3    H117479   7.175   6.698   0.668  0.5944  0.1830 -1.0833
 5842TIP3    H217480   7.044   6.661   0.600 -0.8716  0.5241  1.4932
 5843TIP3   OH217481   3.130   1.646   4.903  0.3513 -0.6677 -0.2494
 5843TIP3    H117482   3.080   1.581   4.953  2.1857 -2.1589 -0.2907
 5843TIP3    H217483   3.092   1.730   4.928 -1.5129 -1.6881  0.4544
 5844TIP3   OH217484   0.459   0.705   0.577 -0.0287  0.0741 -0.4742
 5844TIP3    H117485   0.548   0.717   0.610 -0.3096  1.5720 -0.2299
 5844TIP3    H217486   0.468   0.637   0.510  1.0313 -0.8683  0.6045
 5845TIP3   OH217487   4.069   2.023   3.887 -0.4523  0.1481  0.4137
 5845TIP3    H117488   4.043   2.036   3.796  0.0865 -1.7507 -0.0344
 5845TIP3    H217489   4.004   2.072   3.938  0.0435  2.3704 -1.0208
 5846TIP3   OH217490   4.409   3.460   4.133 -0.4051 -0.4989 -0.6997
 5846TIP3    H117491   4.502   3.446   4.152 -0.1323  0.7131 -1.0901
 5846TIP3    H217492   4.392   3.406   4.057  0.6403  1.2403 -2.2130
 5847TIP3   OH217493   5.476   6.067   0.561 -0.0106  0.4434 -0.0547
 5847TIP3    H117494   5.477   5.975   0.535 -0.4625  0.0339  1.3348
 5847TIP3    H217495   5.429   6.112   0.491 -1.7621 -0.7233  0.3460
 5848TIP3   OH217496   1.709   4.645   4.703 -0.4391  0.8943  0.0614
 5848TIP3    H117497   1.736   4.639   4.612  0.2735 -1.7247  0.4138
 5848TIP3    H217498   1.706   4.739   4.721  0.1866  1.4149 -2.4186
 5849TIP3   OH217499   1.818   1.424   5.038 -0.0177 -0.2531  0.2773
 5849TIP3    H117500   1.728   1.457   5.040  0.3550  0.7331  1.1231
 5849TIP3    H217501   1.830   1.383   5.124  0.2380 -0.6712  0.0445
 5850TIP3   OH217502   4.265   3.042   3.546  0.1578 -0.3373  0.6078
 5850TIP3    H117503   4.272   2.947   3.557 -1.6038 -0.3310  1.7791
 5850TIP3    H217504   4.222   3.052   3.461  1.8862 -0.5354 -0.3259
 5851TIP3   OH217505   3.885   2.516   5.172  0.1230 -0.0120  0.2719
 5851TIP3    H117506   3.901   2.427   5.202 -0.5418 -0.4298 -0.6075
 5851TIP3    H217507   3.927   2.522   5.087 -0.2805  0.3525  0.0923
 5852TIP3   OH217508   2.578   3.130   5.076 -0.3507 -0.6573 -0.5004
 5852TIP3    H117509   2.596   3.211   5.029  1.7122 -0.0592  1.1999
 5852TIP3    H217510   2.644   3.128   5.146 -1.5822 -2.8475  0.6647
 5853TIP3   OH217511   3.058   4.057   5.645 -0.0004  0.0003 -0.4455
 5853TIP3    H117512   3.086   4.082   5.557  0.5144  1.5199  0.1257
 5853TIP3    H217513   2.997   3.985   5.632  2.6198 -2.0692 -1.8783
 5854TIP3   OH217514   2.352   0.165   2.223 -0.3279 -0.0267  0.4292
 5854TIP3    H117515   2.257   0.171   2.229 -0.3456 -1.2372  1.3831
 5854TIP3    H217516   2.384   0.244   2.267 -0.8920  0.5555 -0.1979
 5855TIP3   OH217517   1.920   1.323   4.416  0.0465 -0.0326  0.2221
 5855TIP3    H117518   1.962   1.408   4.425  0.9575 -0.7155  2.7495
 5855TIP3    H217519   1.980   1.262   4.458 -2.0459 -1.4787  1.1800
 5856TIP3   OH217520   3.862   2.824   4.846  0.5572 -0.4205  0.0402
 5856TIP3    H117521   3.799   2.752   4.841  0.1295  0.0331 -1.2128
 5856TIP3    H217522   3.947   2.781   4.852  0.3103 -1.0305 -0.7797
 5857TIP3   OH217523   3.068   2.414   5.134 -0.0048  0.4767 -0.1843
 5857TIP3    H117524   3.072   2.425   5.229  0.7553  0.5091 -0.2162
 5857TIP3    H217525   3.075   2.504   5.100  1.6359  0.3138 -0.3198
 5858TIP3   OH217526   1.770   1.772   5.315 -0.1370 -0.2857  0.2725
 5858TIP3    H117527   1.786   1.683   5.285 -0.9121 -0.3703  0.0901
 5858TIP3    H217528   1.792   1.827   5.240 -0.6533 -0.3950  0.0419
 5859TIP3   OH217529   2.181   0.979   6.222  0.2412 -0.0866 -0.5077
 5859TIP3    H117530   2.275   0.990   6.239  0.6802 -2.1164 -1.4659
 5859TIP3    H217531   2.144   1.066   6.234  2.1425  0.6018  0.5743
 5860TIP3   OH217532   5.052   2.744   3.214  0.2528  0.5424  0.2915
 5860TIP3    H117533   4.998   2.668   3.233  0.8573  0.0647  0.1199
 5860TIP3    H217534   5.082   2.775   3.300 -1.5902  1.7870  0.5176
 5861TIP3   OH217535   5.168   6.051   1.579  0.2975 -0.3755  0.0428
 5861TIP3    H117536   5.254   6.090   1.594  0.4828 -0.1531 -1.5280
 5861TIP3    H217537   5.168   6.027   1.486 -0.9479 -1.3296  0.2711
 5862TIP3   OH217538   2.774   1.614   2.908 -0.2449 -0.0268 -0.0125
 5862TIP3    H117539   2.808   1.654   2.988 -1.0641 -0.7334  0.7051
 5862TIP3    H217540   2.700   1.669   2.883 -0.5750 -0.3481  0.2516
 5863TIP3   OH217541   3.216   2.162   5.760 -0.3938  0.2190 -0.2688
 5863TIP3    H117542   3.223   2.224   5.687 -2.1383  1.4222  0.5569
 5863TIP3    H217543   3.297   2.175   5.810 -0.1920  0.9732 -0.7793
 5864TIP3   OH217544   2.311   3.511   3.974  0.2057  0.1362  0.0544
 5864TIP3    H117545   2.216   3.505   3.971  0.3360 -1.9914 -0.2182
 5864TIP3    H217546   2.336   3.537   3.885 -0.1565  1.5944  0.3621
 5865TIP3   OH217547   6.181   7.126   0.490  0.3131  0.2583 -0.8085
 5865TIP3    H117548   6.238   7.061   0.449  0.3790  0.4518 -1.0185
 5865TIP3    H217549   6.111   7.074   0.530  0.3185  0.0636 -1.0525
 5866TIP3   OH217550   2.734   3.064   4.440  0.0719  0.0728 -0.6756
 5866TIP3    H117551   2.739   2.984   4.492 -0.9775 -0.1806 -0.9595
 5866TIP3    H217552   2.646   3.064   4.404 -0.2390  1.8280  0.0467
 5867TIP3   OH217553   0.820   1.560   2.793  0.6935 -0.1686 -0.3445
 5867TIP3    H117554   0.875   1.507   2.734 -0.3604 -1.0180 -0.5752
 5867TIP3    H217555   0.873   1.637   2.811  1.7576 -0.7283 -0.9951
 5868TIP3   OH217556   2.822   1.711   4.019  0.7384  0.4547  0.0923
 5868TIP3    H117557   2.773   1.776   3.969 -1.7948 -0.0068  1.8675
 5868TIP3    H217558   2.805   1.628   3.973 -0.6937  0.1977  1.0696
 5869TIP3   OH217559   3.316   2.501   5.351  0.0676 -0.1638 -0.1330
 5869TIP3    H117560   3.378   2.515   5.424  0.9321  2.4715 -1.3025
 5869TIP3    H217561   3.350   2.424   5.306  2.3772  1.0632 -0.5715
 5870TIP3   OH217562   7.791   2.368   4.528 -0.4019 -1.0528  0.0488
 5870TIP3    H117563   7.819   2.367   4.436 -2.0590 -0.3628 -0.4834
 5870TIP3    H217564   7.733   2.444   4.535 -1.8247 -2.2050  1.1808
 5871TIP3   OH217565   4.002   1.699   5.897  0.0188 -0.5308 -0.2982
 5871TIP3    H117566   4.033   1.694   5.987 -2.0733 -3.3445  0.3298
 5871TIP3    H217567   4.071   1.657   5.845  0.8967  0.4469  0.0770
 5872TIP3   OH217568   5.667   0.216   1.931 -0.0749  0.3958  0.0228
 5872TIP3    H117569   5.689   0.195   1.840 -0.0403  2.8307 -0.5821
 5872TIP3    H217570   5.581   0.257   1.926  0.3654  1.4582  0.9469
 5873TIP3   OH217571   5.452   5.822   0.467  0.1613 -0.5419 -0.1366
 5873TIP3    H117572   5.529   5.800   0.415  0.4617  0.7277 -0.2273
 5873TIP3    H217573   5.408   5.738   0.481  0.5962 -1.0208 -1.6076
 5874TIP3   OH217574   2.494   2.742   5.343  0.2838  0.0850 -0.1086
 5874TIP3    H117575   2.580   2.753   5.386 -0.5646  1.5898  1.2686
 5874TIP3    H217576   2.434   2.721   5.415 -0.4915 -1.1816 -1.0934
 5875TIP3   OH217577   1.447   2.682   4.351 -0.1220  0.8789  0.1605
 5875TIP3    H117578   1.366   2.689   4.300 -1.2314 -1.8953  1.4339
 5875TIP3    H217579   1.480   2.594   4.332  2.2128  1.7023  0.2525
 5876TIP3   OH217580   2.534   0.173   2.013  0.5369  0.5808  0.2449
 5876TIP3    H117581   2.461   0.189   2.072  0.8397  0.8634  0.5426
 5876TIP3    H217582   2.580   0.256   2.008 -0.4317  1.0438 -1.6966
 5877TIP3   OH217583   3.690   5.208   4.458 -0.2177 -0.2002  0.1672
 5877TIP3    H117584   3.769   5.248   4.495  0.2474 -0.5112 -0.4820
 5877TIP3    H217585   3.629   5.281   4.446  0.5976  0.3102 -0.9281
 5878TIP3   OH217586   5.654   4.622   0.272 -0.1931 -0.0813  0.2959
 5878TIP3    H117587   5.671   4.654   0.361  2.0049  1.1864 -0.5277
 5878TIP3    H217588   5.620   4.698   0.225 -1.7568 -0.8609  0.1363
 5879TIP3   OH217589   0.549   4.028   2.774 -0.1359  0.1782 -0.1830
 5879TIP3    H117590   0.500   3.964   2.722 -0.1392  1.5729 -1.9270
 5879TIP3    H217591   0.487   4.099   2.789 -0.6897 -0.9082  3.2123
 5880TIP3   OH217592   1.443   1.192   3.265  0.2491 -0.1077 -0.2659
 5880TIP3    H117593   1.479   1.184   3.354 -1.1505  1.1323  0.4303
 5880TIP3    H217594   1.461   1.282   3.240  1.4753 -0.7186 -1.6370
 5881TIP3   OH217595   1.284   1.603   4.392  0.1612 -0.0083  0.7919
 5881TIP3    H117596   1.362   1.655   4.369 -1.5215  1.4990 -1.7382
 5881TIP3    H217597   1.312   1.512   4.380  1.7132  0.4834  0.5502
 5882TIP3   OH217598   2.904   3.394   3.551  0.8223  0.2326  0.2032
 5882TIP3    H117599   2.963   3.324   3.576  0.2995  0.1067  1.1182
 5882TIP3    H217600   2.859   3.418   3.632 -0.1244  0.5573 -0.4014
 5883TIP3   OH217601   2.045   0.316   3.620 -0.2937 -0.3402  0.1371
 5883TIP3    H117602   2.139   0.297   3.621 -0.3201 -0.5893 -1.0619
 5883TIP3    H217603   2.019   0.315   3.712  0.8402 -0.4531  0.4633
 5884TIP3   OH217604   2.780   2.226   4.522  0.2775 -0.2175  0.0472
 5884TIP3    H117605   2.731   2.146   4.543  0.0498 -0.1267 -0.1435
 5884TIP3    H217606   2.738   2.295   4.574  0.8278 -0.3244  0.6421
 5885TIP3   OH217607   1.445   3.886   4.029 -0.0781  0.0616  0.0197
 5885TIP3    H117608   1.389   3.954   3.991 -1.5651 -0.4495  1.2201
 5885TIP3    H217609   1.423   3.885   4.122 -0.4970 -2.3876 -0.0544
 5886TIP3   OH217610   2.851   2.361   5.865 -0.1121  0.2194 -0.6417
 5886TIP3    H117611   2.891   2.274   5.876  0.1765  0.4094 -0.1927
 5886TIP3    H217612   2.768   2.343   5.821 -0.1220 -0.2990 -0.4160
 5887TIP3   OH217613   1.277   2.095   4.568 -0.1957  0.0533  0.1174
 5887TIP3    H117614   1.212   2.046   4.517 -1.5455  0.9027  0.9881
 5887TIP3    H217615   1.228   2.129   4.643  1.1728  1.0561  0.5799
 5888TIP3   OH217616   3.157   1.892   4.737  0.6065 -0.1331  0.6081
 5888TIP3    H117617   3.071   1.931   4.748  0.7879  0.1510  1.0479
 5888TIP3    H217618   3.144   1.819   4.677 -0.1771 -0.9201  1.7200
 5889TIP3   OH217619   3.683   1.977   5.036  0.2615  0.0670  0.3110
 5889TIP3    H117620   3.665   1.903   5.094 -0.9415 -0.1948 -0.3845
 5889TIP3    H217621   3.778   1.989   5.041  0.3978 -1.1694  0.8543
 5890TIP3   OH217622   5.381   5.250   4.022 -0.3420 -0.1634 -0.8486
 5890TIP3    H117623   5.474   5.264   4.006  0.0611 -1.2900  0.4172
 5890TIP3    H217624   5.376   5.221   4.113 -2.1054  1.6862 -0.3077
 5891TIP3   OH217625   3.437   4.460   4.030 -0.6978  0.3976  0.2464
 5891TIP3    H117626   3.344   4.470   4.011 -0.3996 -0.1033 -1.5250
 5891TIP3    H217627   3.482   4.485   3.949  0.7337  1.0212  1.1983
 5892TIP3   OH217628   3.525   1.423   5.105  0.7035 -0.0126 -1.2314
 5892TIP3    H117629   3.534   1.516   5.121  0.7063  0.1350 -2.0695
 5892TIP3    H217630   3.535   1.413   5.010  1.8571 -1.0019 -1.0278
 5893TIP3   OH217631   3.001   4.644   5.001 -0.3170  0.1307 -0.3778
 5893TIP3    H117632   3.079   4.657   4.947 -0.2022  0.6799 -0.0780
 5893TIP3    H217633   2.939   4.710   4.970 -0.8924 -0.7078 -1.0411
 5894TIP3   OH217634   7.827   6.191   3.954  0.0071 -0.2005  0.0881
 5894TIP3    H117635   7.900   6.205   4.014  1.0253  1.5843 -1.5106
 5894TIP3    H217636   7.841   6.102   3.919  1.0783 -0.0989  0.2447
 5895TIP3   OH217637   1.975   0.697   5.562 -0.2033  0.1206  0.4149
 5895TIP3    H117638   2.036   0.703   5.635  1.2167 -0.3862 -0.6981
 5895TIP3    H217639   1.978   0.605   5.536 -0.0275  0.4635 -0.8153
 5896TIP3   OH217640   0.979   2.953   4.216  0.2815 -0.0722  0.1099
 5896TIP3    H117641   0.886   2.943   4.197  0.3189 -0.2408  0.0132
 5896TIP3    H217642   1.006   3.028   4.163  0.2646 -0.2018 -0.0801
 5897TIP3   OH217643   4.041   6.402   0.201  0.2420  0.4891  0.2843
 5897TIP3    H117644   3.974   6.407   0.269  0.2008  0.3298  0.2550
 5897TIP3    H217645   3.992   6.417   0.119 -0.3520 -3.1160 -0.0742
 5898TIP3   OH217646   4.405   3.744   5.580 -0.5047 -0.0549 -0.4817
 5898TIP3    H117647   4.499   3.731   5.591 -0.5087 -1.4410 -1.9459
 5898TIP3    H217648   4.389   3.832   5.616  1.3903  0.3046 -0.4598
 5899TIP3   OH217649   3.079   3.495   5.576 -0.5291  0.4819  0.1618
 5899TIP3    H117650   3.024   3.532   5.645 -0.8891 -0.4454  0.3780
 5899TIP3    H217651   3.022   3.491   5.499 -0.0365  1.8046 -0.2773
 5900TIP3   OH217652   4.287   2.754   3.544 -0.7808  0.4474  0.6350
 5900TIP3    H117653   4.232   2.721   3.616 -0.0598 -0.2904  0.8640
 5900TIP3    H217654   4.306   2.676   3.492 -0.3820  0.7965  0.2602
 5901TIP3   OH217655   3.228   1.828   5.838  0.5871 -0.5136  0.1816
 5901TIP3    H117656   3.314   1.871   5.843 -1.6314  4.3934 -1.2247
 5901TIP3    H217657   3.243   1.753   5.781  3.8772  0.5344 -0.4717
 5902TIP3   OH217658   3.399   1.993   2.444 -0.2409  0.3162  0.1543
 5902TIP3    H117659   3.396   2.032   2.531  0.2506 -0.6040  0.5892
 5902TIP3    H217660   3.324   1.934   2.442  0.3344 -0.4396  0.3411
 5903TIP3   OH217661   2.122   3.452   5.430  0.1911  0.5410 -0.2391
 5903TIP3    H117662   2.091   3.404   5.353  1.8238 -1.2821  0.1838
 5903TIP3    H217663   2.050   3.448   5.492 -0.2576 -0.0404 -0.7904
 5904TIP3   OH217664   2.848   2.832   4.582 -0.0987  0.4412 -0.1220
 5904TIP3    H117665   2.942   2.835   4.596  0.0491  0.6160 -1.1141
 5904TIP3    H217666   2.812   2.889   4.651  0.5246  0.5020  0.1592
 5905TIP3   OH217667   4.338   2.957   5.344  0.1408 -0.6925 -0.4244
 5905TIP3    H117668   4.251   2.974   5.307 -0.2547 -0.2507  0.6897
 5905TIP3    H217669   4.320   2.914   5.428  0.9351  1.1498  0.7187
 5906TIP3   OH217670   1.681   2.118   5.839  0.2930  0.7487 -0.3191
 5906TIP3    H117671   1.760   2.108   5.786 -0.1555 -1.2897 -0.6647
 5906TIP3    H217672   1.640   2.032   5.837 -1.4339  1.5155  0.6737
 5907TIP3   OH217673   2.642   3.635   3.602  0.1406  0.0622  0.0424
 5907TIP3    H117674   2.714   3.689   3.567  1.5768  1.2663  4.5476
 5907TIP3    H217675   2.682   3.583   3.671 -2.4770 -2.6238 -0.3596
 5908TIP3   OH217676   6.268   5.634   0.660 -0.3846 -0.1900 -0.2593
 5908TIP3    H117677   6.349   5.589   0.635 -0.7216 -0.8961 -0.0956
 5908TIP3    H217678   6.274   5.643   0.755 -0.9885 -1.2255 -0.1134
 5909TIP3   OH217679   3.657   0.696   2.276  0.5479  0.2301  0.1770
 5909TIP3    H117680   3.582   0.707   2.333  0.7044  1.1076  0.2196
 5909TIP3    H217681   3.634   0.744   2.196  0.5357 -0.5655 -0.3046
 5910TIP3   OH217682   2.086   3.358   6.364 -0.7185 -0.0138  0.2009
 5910TIP3    H117683   2.121   3.447   6.354 -1.6187  0.3787  0.4922
 5910TIP3    H217684   2.122   3.328   6.447  1.6478 -0.8988 -1.0834
 5911TIP3   OH217685   4.542   3.107   5.197 -0.2757 -0.1901 -0.3529
 5911TIP3    H117686   4.503   3.191   5.174  2.1950  1.2998  0.7783
 5911TIP3    H217687   4.474   3.063   5.248 -2.2072  0.3952 -2.3300
 5912TIP3   OH217688   2.561   3.372   6.320 -0.5589 -0.4160  0.3945
 5912TIP3    H117689   2.646   3.387   6.361 -0.1825 -0.7443 -0.2547
 5912TIP3    H217690   2.541   3.455   6.276 -0.1596 -0.6263 -0.1902
 5913TIP3   OH217691   0.457   7.351   4.585  0.6626 -0.6875 -0.0640
 5913TIP3    H117692   0.491   7.439   4.572  0.0215 -0.3683  0.3830
 5913TIP3    H217693   0.534   7.295   4.581  1.1067 -0.0799 -0.0996
 5914TIP3   OH217694   2.458   0.761   6.141  0.5961 -0.1825 -0.1840
 5914TIP3    H117695   2.413   0.679   6.120 -1.0539  0.0961  2.0911
 5914TIP3    H217696   2.466   0.806   6.057 -1.9091 -0.9773 -0.9045
 5915TIP3   OH217697   5.673   5.936   1.703 -0.2267 -0.6965  0.3468
 5915TIP3    H117698   5.693   5.981   1.785 -1.8120  0.9457 -0.1463
 5915TIP3    H217699   5.652   5.847   1.729  2.5019 -1.0944  1.3837
 5916TIP3   OH217700   3.266   1.541   4.661  0.1050  0.1606  0.4404
 5916TIP3    H117701   3.232   1.564   4.747 -1.0079  0.8859 -0.1907
 5916TIP3    H217702   3.361   1.555   4.669 -0.0397  0.6307  1.4154
 5917TIP3   OH217703   3.051   3.520   6.382 -0.1634  0.1856 -0.4292
 5917TIP3    H117704   2.962   3.551   6.367 -0.2010  0.4132  0.2701
 5917TIP3    H217705   3.044   3.424   6.380 -0.7486  0.1714  1.4688
 5918TIP3   OH217706   1.945   1.187   4.155 -0.2768 -0.0702  0.3985
 5918TIP3    H117707   2.018   1.247   4.142  0.8425 -1.4198  0.3077
 5918TIP3    H217708   1.911   1.208   4.243  0.7651 -0.0031  0.7892
 5919TIP3   OH217709   3.614   3.491   5.196  0.4149  0.3951 -0.3503
 5919TIP3    H117710   3.655   3.449   5.120 -0.2443  1.1140 -1.1068
 5919TIP3    H217711   3.625   3.428   5.267 -0.0592 -0.8042 -1.3351
 5920TIP3   OH217712   3.658   2.474   3.269  0.7518  0.5585 -0.5807
 5920TIP3    H117713   3.700   2.388   3.268 -0.5842 -0.1213  0.3000
 5920TIP3    H217714   3.694   2.517   3.346 -0.0838 -0.0056  0.1454
 5921TIP3   OH217715   3.818   2.389   4.604 -0.1230 -0.2435  0.2860
 5921TIP3    H117716   3.897   2.334   4.606 -0.0563 -0.1473  2.9012
 5921TIP3    H217717   3.748   2.328   4.580  0.1881 -1.2067  1.6882
 5922TIP3   OH217718   2.592   0.992   4.226  0.2673  0.4740  0.2193
 5922TIP3    H117719   2.564   1.062   4.286  0.2287 -1.3389  2.3982
 5922TIP3    H217720   2.671   1.026   4.184 -0.3114  2.2114  0.5116
 5923TIP3   OH217721   0.460   1.658   5.591  0.5248 -0.3501 -0.0361
 5923TIP3    H117722   0.405   1.733   5.570 -0.1081 -0.4996  1.0363
 5923TIP3    H217723   0.416   1.584   5.550  2.2531  0.1186 -2.8844
 5924TIP3   OH217724   2.483   2.293   3.715  0.2448  0.0857 -0.3512
 5924TIP3    H117725   2.510   2.208   3.679  0.2301 -0.4708  0.9247
 5924TIP3    H217726   2.435   2.271   3.795 -0.1167  1.2833 -0.2233
 5925TIP3   OH217727   2.859   2.790   3.178  0.4396  0.1545 -0.3735
 5925TIP3    H117728   2.939   2.793   3.127  0.7900 -0.1660  0.1583
 5925TIP3    H217729   2.875   2.848   3.253  1.2615 -2.1367  1.2868
 5926TIP3   OH217730   1.419   4.216   5.337  0.1917 -0.0226  0.5252
 5926TIP3    H117731   1.331   4.178   5.338 -0.4766  1.5068 -0.1960
 5926TIP3    H217732   1.476   4.142   5.360 -1.0885 -1.4878 -0.8864
 5927TIP3   OH217733   0.582   4.127   2.386 -0.3553  0.4899  0.3658
 5927TIP3    H117734   0.596   4.084   2.302 -1.3747  0.1011  0.3858
 5927TIP3    H217735   0.487   4.125   2.399 -0.1482 -0.3890  1.9958
 5928TIP3   OH217736   3.594   2.493   4.077 -0.1317  0.0731 -0.6387
 5928TIP3    H117737   3.645   2.573   4.091 -0.7258  0.2448  0.5691
 5928TIP3    H217738   3.636   2.428   4.133 -0.7543  0.0196 -0.2231
 5929TIP3   OH217739   3.037   3.073   6.114 -0.2296  0.2645 -0.2006
 5929TIP3    H117740   3.071   3.119   6.037 -0.3675  0.3009 -0.2399
 5929TIP3    H217741   2.968   3.130   6.148 -0.4209  0.0746 -0.2661
 5930TIP3   OH217742   1.950   2.298   5.372 -0.3775  0.0444 -0.0455
 5930TIP3    H117743   1.952   2.263   5.283  0.5993  0.8202 -0.3344
 5930TIP3    H217744   1.897   2.235   5.421 -1.6585  0.0744 -1.3637
 5931TIP3   OH217745   1.826   0.513   0.415 -0.1319  0.3197 -0.0580
 5931TIP3    H117746   1.764   0.474   0.478  0.2337 -0.8314 -0.3895
 5931TIP3    H217747   1.908   0.466   0.431  0.2913  0.8914 -0.5475
 5932TIP3   OH217748   3.530   2.269   3.883 -0.5418 -0.2829  0.7057
 5932TIP3    H117749   3.542   2.337   3.948 -0.6396  1.4666 -1.0639
 5932TIP3    H217750   3.574   2.302   3.805 -0.3113 -2.3918 -0.0897
 5933TIP3   OH217751   3.400   4.384   4.648  0.3402  0.5003 -0.0891
 5933TIP3    H117752   3.475   4.348   4.694  0.1906  1.2486  0.7622
 5933TIP3    H217753   3.436   4.455   4.595  0.3581  0.3192 -0.3193
 5934TIP3   OH217754   2.079   3.667   4.931 -0.2147  0.0920  0.2139
 5934TIP3    H117755   2.023   3.711   4.867 -0.1808 -0.6703 -0.3453
 5934TIP3    H217756   2.041   3.689   5.016 -0.9084  0.2067 -0.1290
 5935TIP3   OH217757   3.186   2.363   4.875  0.3125  0.2105 -0.0985
 5935TIP3    H117758   3.208   2.270   4.871 -1.7153 -0.1898 -2.5886
 5935TIP3    H217759   3.145   2.373   4.961 -0.2047 -1.3567 -0.1428
 5936TIP3   OH217760   2.348   1.195   5.929  0.6252  0.1152  0.1254
 5936TIP3    H117761   2.299   1.113   5.924 -0.2421  0.6370  0.1259
 5936TIP3    H217762   2.296   1.258   5.880  2.1398  0.2657 -1.3089
 5937TIP3   OH217763   2.018   0.931   4.202 -0.5456  0.2699 -0.5091
 5937TIP3    H117764   1.999   1.022   4.176 -0.2015 -0.0216 -1.8362
 5937TIP3    H217765   2.052   0.891   4.122  3.5044  0.1551  1.1319
 5938TIP3   OH217766   3.191   4.008   6.325 -0.3901  0.1929 -0.1619
 5938TIP3    H117767   3.253   3.997   6.254  2.6329  0.0701  2.3778
 5938TIP3    H217768   3.234   4.069   6.386 -3.2331  0.9832  1.1688
 5939TIP3   OH217769   3.621   1.413   6.357 -0.0642  0.5089  0.6045
 5939TIP3    H117770   3.534   1.435   6.324 -0.8560 -1.4159  1.3183
 5939TIP3    H217771   3.682   1.454   6.296 -1.4988 -0.5262 -1.5774
 5940TIP3   OH217772   0.224   7.109   4.225 -0.3513  0.3848  0.0783
 5940TIP3    H117773   0.309   7.080   4.258 -0.0846  0.4934 -0.4888
 5940TIP3    H217774   0.195   7.038   4.168 -0.8775  0.1304  0.6599
 5941TIP3   OH217775   5.289   4.384   3.430 -0.2145 -0.1175 -0.5374
 5941TIP3    H117776   5.367   4.347   3.390  0.0006 -0.0320 -0.1968
 5941TIP3    H217777   5.255   4.314   3.486 -0.3761 -0.1497 -0.6732
 5942TIP3   OH217778   3.248   1.731   6.379  0.3828 -0.6039 -0.2633
 5942TIP3    H117779   3.312   1.783   6.331  1.1393 -1.2932 -0.0080
 5942TIP3    H217780   3.205   1.794   6.437  0.9170 -0.1605 -0.3477
 5943TIP3   OH217781   4.127   1.791   5.121  0.4306 -0.5802  0.3763
 5943TIP3    H117782   4.124   1.731   5.195  1.0749  0.0332  0.9091
 5943TIP3    H217783   4.214   1.779   5.084 -0.2765 -1.6828 -0.9641
 5944TIP3   OH217784   2.123   2.551   3.581 -0.6861  0.7756 -0.5603
 5944TIP3    H117785   2.094   2.641   3.596 -0.0648  1.1343 -1.5064
 5944TIP3    H217786   2.145   2.547   3.488  1.4054  0.2547 -0.0724
 5945TIP3   OH217787   3.985   1.256   4.120 -0.1073 -0.4058  0.1596
 5945TIP3    H117788   4.076   1.260   4.092 -0.1802 -0.8274 -0.1499
 5945TIP3    H217789   3.989   1.262   4.215  0.1181  1.3747  0.0460
 5946TIP3   OH217790   4.695   0.218   4.118 -0.3824 -0.0521 -0.2642
 5946TIP3    H117791   4.632   0.192   4.186  1.0386 -2.0496  0.3435
 5946TIP3    H217792   4.781   0.202   4.157  0.4920  0.9595 -1.7221
 5947TIP3   OH217793   3.080   2.679   5.032 -0.2970 -0.2500  0.2090
 5947TIP3    H117794   3.161   2.673   5.082 -0.1228  2.3125  0.2616
 5947TIP3    H217795   3.042   2.763   5.056 -1.8121 -0.3722 -1.6048
 5948TIP3   OH217796   6.315   6.908   0.712  0.3190  0.2478 -0.1538
 5948TIP3    H117797   6.220   6.897   0.709  0.2094  1.0178  0.4756
 5948TIP3    H217798   6.329   7.003   0.714  1.1141  0.1510 -0.6431
 5949TIP3   OH217799   3.781   3.706   5.069  0.2174 -0.0001  0.3229
 5949TIP3    H117800   3.719   3.652   5.118 -0.8354  1.1827  0.2962
 5949TIP3    H217801   3.866   3.685   5.108 -0.5555  0.6996  2.4583
 5950TIP3   OH217802   1.835   3.183   4.277  0.6857 -0.2593 -0.2193
 5950TIP3    H117803   1.784   3.110   4.241  0.8609  0.2234 -1.4611
 5950TIP3    H217804   1.921   3.145   4.296  0.4550 -0.6214  0.1042
 5951TIP3   OH217805   2.331   0.655   3.872  0.4544  0.8328  0.2641
 5951TIP3    H117806   2.361   0.729   3.925  1.0864  1.4422 -0.9253
 5951TIP3    H217807   2.326   0.690   3.783  0.4091 -0.4690 -0.2509
 5952TIP3   OH217808   2.801   3.604   6.291 -0.4047 -0.4556 -0.0595
 5952TIP3    H117809   2.758   3.686   6.317  0.2114 -0.5428  1.3145
 5952TIP3    H217810   2.797   3.604   6.196 -0.0307  1.3904 -0.0957
 5953TIP3   OH217811   6.303   7.455   5.023  0.0027 -0.5206 -0.3486
 5953TIP3    H117812   6.378   7.400   5.003  0.2782 -1.0258  1.9282
 5953TIP3    H217813   6.248   7.450   4.945  0.8924 -2.5674 -0.8674
 5954TIP3   OH217814   1.818   2.815   4.190 -0.4408 -0.3866  0.5741
 5954TIP3    H117815   1.758   2.777   4.255  0.9062  0.2121  2.2186
 5954TIP3    H217816   1.774   2.894   4.159 -0.1780  0.4996  2.3817
 5955TIP3   OH217817   3.928   4.222   4.899  0.0191  0.1185  0.3114
 5955TIP3    H117818   3.985   4.290   4.935 -0.8166 -0.0238  1.9552
 5955TIP3    H217819   3.988   4.161   4.855  0.8777  1.2687 -0.1276
 5956TIP3   OH217820   2.832   3.632   5.027 -0.4665 -0.0233 -0.0245
 5956TIP3    H117821   2.924   3.605   5.027 -0.7877 -1.1981  1.5907
 5956TIP3    H217822   2.826   3.697   5.096 -0.9747 -0.4275  0.3160
 5957TIP3   OH217823   3.163   5.447   6.024 -0.3334 -0.1940 -0.5230
 5957TIP3    H117824   3.213   5.518   5.985 -0.9983  0.7501  0.3348
 5957TIP3    H217825   3.136   5.393   5.950  1.4389 -0.3976 -1.0580
 5958TIP3   OH217826   1.069   1.707   2.900  0.2723  0.3724  0.5711
 5958TIP3    H117827   1.131   1.775   2.926 -1.1365  1.5009  1.0309
 5958TIP3    H217828   1.093   1.631   2.954  0.5730  1.1370  1.5391
 5959TIP3   OH217829   1.844   4.441   6.194  0.0519  0.3251 -0.4582
 5959TIP3    H117830   1.926   4.453   6.146 -0.0019  0.8647 -0.4144
 5959TIP3    H217831   1.788   4.513   6.165  0.2299  1.0024  0.8637
 5960TIP3   OH217832   2.390   4.276   5.579 -0.1733 -0.1669 -0.0455
 5960TIP3    H117833   2.482   4.251   5.584 -0.1448 -0.4337 -1.5462
 5960TIP3    H217834   2.375   4.327   5.658  1.1742 -0.4085  0.3884
 5961TIP3   OH217835   2.956   3.257   6.438 -0.2764 -0.1839 -0.4829
 5961TIP3    H117836   2.911   3.221   6.361  0.3250  0.6747 -1.2463
 5961TIP3    H217837   2.896   3.322   6.473 -0.3713 -0.2684 -0.4887
 5962TIP3   OH217838   2.348   4.194   3.970  0.0794 -0.2329  0.2907
 5962TIP3    H117839   2.385   4.201   4.058 -0.7967 -0.7302  0.7063
 5962TIP3    H217840   2.311   4.105   3.966  2.2367 -1.0853 -1.4182
 5963TIP3   OH217841   1.877   1.389   5.298  0.0065  0.1988  0.1866
 5963TIP3    H117842   1.789   1.355   5.285  0.5270 -0.0149 -3.3293
 5963TIP3    H217843   1.907   1.348   5.379 -1.9087 -2.3130 -0.3123
 5964TIP3   OH217844   2.919   1.915   5.532 -0.1383  0.1444  0.1256
 5964TIP3    H117845   3.011   1.937   5.515  0.3866 -1.8494  0.2815
 5964TIP3    H217846   2.885   1.887   5.447 -0.3691  0.0718  0.2412
 5965TIP3   OH217847   1.717   3.368   3.444 -0.6688 -0.6591  0.4178
 5965TIP3    H117848   1.732   3.294   3.503 -0.1040  0.3750  1.5969
 5965TIP3    H217849   1.622   3.370   3.431 -0.8647 -0.4593  1.8634
 5966TIP3   OH217850   3.828   1.158   3.928 -0.1049  0.3279 -0.3421
 5966TIP3    H117851   3.902   1.121   3.881  1.1251  0.7599  1.2086
 5966TIP3    H217852   3.867   1.203   4.002 -2.0109 -0.8672  1.4552
 5967TIP3   OH217853   3.355   1.074   6.155  0.0081  0.2297 -0.6631
 5967TIP3    H117854   3.343   1.110   6.242 -0.4619  0.0064 -0.6328
 5967TIP3    H217855   3.447   1.091   6.134 -0.0274  0.8020 -0.3645
 5968TIP3   OH217856   4.170   1.537   4.218  1.0406 -0.3006 -0.9170
 5968TIP3    H117857   4.102   1.603   4.229  0.0465 -1.3110 -0.9411
 5968TIP3    H217858   4.140   1.483   4.144 -0.4801 -3.6124  1.9786
 5969TIP3   OH217859   5.185   3.637   0.727 -0.0161  0.0776 -0.2070
 5969TIP3    H117860   5.123   3.707   0.708  0.2690  0.6303  0.9025
 5969TIP3    H217861   5.147   3.590   0.802  1.2241  0.8237  0.9063
 5970TIP3   OH217862   4.160   0.685   3.297  0.4937  0.3574 -0.3088
 5970TIP3    H117863   4.114   0.717   3.375  1.8367 -0.4587  0.8356
 5970TIP3    H217864   4.094   0.635   3.249  0.2481 -1.1133  1.4993
 5971TIP3   OH217865   2.677   1.845   4.325 -0.1700 -0.2212  0.7270
 5971TIP3    H117866   2.756   1.877   4.281  1.1230 -0.3466  2.8861
 5971TIP3    H217867   2.682   1.749   4.318  0.0462 -0.2422  1.1232
 5972TIP3   OH217868   5.107   5.632   0.206  0.7643 -0.1583  0.0456
 5972TIP3    H117869   5.032   5.576   0.230  1.7263 -2.3069 -1.7760
 5972TIP3    H217870   5.068   5.717   0.187 -1.0193 -0.7898  0.7478
 5973TIP3   OH217871   4.769   3.129   4.755 -0.5784 -0.2287  0.3211
 5973TIP3    H117872   4.697   3.117   4.816 -1.0718  1.2125  0.0359
 5973TIP3    H217873   4.731   3.174   4.680  0.6064  0.5700  0.1741
 5974TIP3   OH217874   2.808   2.474   4.341  0.2215  0.2158 -0.0883
 5974TIP3    H117875   2.903   2.482   4.354  0.4211 -0.3762 -1.1364
 5974TIP3    H217876   2.785   2.391   4.384  0.0567  0.6976  0.7681
 5975TIP3   OH217877   2.873   2.213   3.308 -0.1874 -0.1858  0.0198
 5975TIP3    H117878   2.783   2.179   3.309  0.5475 -2.1670  1.8439
 5975TIP3    H217879   2.889   2.241   3.398  0.5615  1.5101 -0.6162
 5976TIP3   OH217880   3.767   0.193   4.298  0.0203  0.2138 -0.0667
 5976TIP3    H117881   3.862   0.183   4.311 -0.1422 -0.0851  0.8952
 5976TIP3    H217882   3.744   0.121   4.240  0.5732  0.9528 -1.2267
 5977TIP3   OH217883   3.499   3.450   4.445 -0.4697  0.2040 -0.5625
 5977TIP3    H117884   3.555   3.488   4.377  1.0249  2.0833  1.6428
 5977TIP3    H217885   3.417   3.498   4.438 -1.0330 -0.9353 -2.2556
 5978TIP3   OH217886   3.758   4.055   4.543 -0.5559  0.0961  0.0740
 5978TIP3    H117887   3.791   3.967   4.562  0.2561  0.5246  0.6958
 5978TIP3    H217888   3.837   4.109   4.533 -1.0183  0.4897 -1.6258
 5979TIP3   OH217889   2.136   1.321   4.637 -0.1559 -0.8026  0.3768
 5979TIP3    H117890   2.126   1.413   4.661 -1.3279 -0.8163 -0.0025
 5979TIP3    H217891   2.107   1.273   4.714  2.1160 -0.8727  1.2126
 5980TIP3   OH217892   5.719   5.102   0.489 -0.5950 -0.1584 -0.2193
 5980TIP3    H117893   5.696   5.195   0.490  1.7350  0.4556 -1.2669
 5980TIP3    H217894   5.640   5.059   0.455 -1.5343  1.4713 -0.1720
 5981TIP3   OH217895   2.188   4.945   4.264  0.0256  0.2510 -0.1299
 5981TIP3    H117896   2.248   4.880   4.227 -0.0703 -0.6133  1.2205
 5981TIP3    H217897   2.128   4.895   4.318 -0.1278  1.4547  0.8342
 5982TIP3   OH217898   6.927   4.594   0.220  0.0772  0.2894  0.5080
 5982TIP3    H117899   6.871   4.613   0.145 -1.0713 -2.2247  0.6751
 5982TIP3    H217900   6.867   4.594   0.295  1.1446  2.3910  1.4049
 5983TIP3   OH217901   2.408   5.623   3.842 -0.0437  0.0340 -0.3767
 5983TIP3    H117902   2.327   5.612   3.892  0.4855 -0.3013  0.4202
 5983TIP3    H217903   2.390   5.581   3.757 -1.2469  1.3843 -0.8094
 5984TIP3   OH217904   5.901   5.482   3.143 -0.4997 -0.8111  0.3812
 5984TIP3    H117905   5.810   5.486   3.115 -1.0372 -0.3828  2.1035
 5984TIP3    H217906   5.916   5.567   3.185  0.5421 -1.0701  0.5390
 5985TIP3   OH217907   3.994   3.519   5.169  0.0911 -0.3089 -0.0236
 5985TIP3    H117908   4.079   3.535   5.129  0.1080  0.1954  0.2025
 5985TIP3    H217909   4.004   3.438   5.218 -0.3156 -1.6564 -2.1225
 5986TIP3   OH217910   5.077   2.753   4.805  0.1464 -0.4501 -0.1086
 5986TIP3    H117911   4.997   2.702   4.818 -0.0490  0.3330  1.9276
 5986TIP3    H217912   5.122   2.708   4.733 -1.9652 -1.0753 -1.0875
 5987TIP3   OH217913   4.563   2.255   6.028 -0.7118  0.1863  0.0034
 5987TIP3    H117914   4.593   2.344   6.010 -1.7471  0.3936 -0.7637
 5987TIP3    H217915   4.513   2.261   6.109 -1.1522  0.3926 -0.2815
 5988TIP3   OH217916   4.619   3.781   3.339  0.0428 -0.6218  0.1789
 5988TIP3    H117917   4.563   3.785   3.417 -1.5543 -0.3139 -0.9612
 5988TIP3    H217918   4.586   3.850   3.282  0.5818 -1.4792 -1.1797
 5989TIP3   OH217919   2.146   2.550   6.023  0.1193  0.4499 -0.0594
 5989TIP3    H117920   2.173   2.592   5.941 -1.7996  1.4998 -0.1884
 5989TIP3    H217921   2.214   2.575   6.086  0.3237  1.6663 -0.7420
 5990TIP3   OH217922   5.583   4.106   5.666 -0.3551  0.3514 -0.0667
 5990TIP3    H117923   5.669   4.095   5.708 -1.1122  1.3280  1.7751
 5990TIP3    H217924   5.576   4.030   5.608  0.4523 -1.4610  2.0845
 5991TIP3   OH217925   5.441   4.371   4.899  0.2310  0.1765 -0.0402
 5991TIP3    H117926   5.411   4.381   4.809  0.7219  1.2479 -0.0907
 5991TIP3    H217927   5.371   4.409   4.952  0.3609  0.4007 -0.0267
 5992TIP3   OH217928   4.894   3.305   6.084  0.0910  0.0509  0.5785
 5992TIP3    H117929   4.956   3.344   6.022  0.0149  0.6286  0.8690
 5992TIP3    H217930   4.872   3.220   6.045 -2.2030  1.6121 -1.6574
 5993TIP3   OH217931   5.414   2.289   5.622 -0.0179 -0.4484  0.2510
 5993TIP3    H117932   5.506   2.301   5.596  0.0598  1.2176  1.1969
 5993TIP3    H217933   5.407   2.335   5.706 -1.4459 -1.5548  0.7481
 5994TIP3   OH217934   3.664   2.092   6.386  0.1374  0.3761 -0.4080
 5994TIP3    H117935   3.692   2.176   6.349 -0.6225  1.1373  0.6766
 5994TIP3    H217936   3.695   2.026   6.324  1.8819  1.3666 -0.6075
 5995TIP3   OH217937   5.084   2.400   4.061 -0.4476 -0.3880 -0.2439
 5995TIP3    H117938   5.177   2.385   4.047  0.2136  0.3102  3.1177
 5995TIP3    H217939   5.046   2.312   4.070  0.4639 -0.5887  1.7702
 5996TIP3   OH217940   4.256   3.012   4.203  0.0053 -0.5306  0.3273
 5996TIP3    H117941   4.259   2.949   4.131  0.6168 -0.4060  0.2386
 5996TIP3    H217942   4.168   3.050   4.199 -0.0656 -0.7489 -0.1579
 5997TIP3   OH217943   4.104   2.455   5.523 -0.1105  0.1680 -0.2827
 5997TIP3    H117944   4.111   2.492   5.435  1.2699  1.5233  0.3812
 5997TIP3    H217945   4.102   2.361   5.509 -1.7244  0.4005 -1.8727
 5998TIP3   OH217946   3.615   2.222   5.185  0.0297  0.4750  0.0265
 5998TIP3    H117947   3.697   2.227   5.234  0.0721  2.1177 -0.1904
 5998TIP3    H217948   3.628   2.147   5.126  1.1413  0.3559  0.4040
 5999TIP3   OH217949   0.202   3.016   5.353  0.1276 -0.8816 -0.0661
 5999TIP3    H117950   0.253   2.954   5.405  1.7579 -1.0545 -1.8087
 5999TIP3    H217951   0.267   3.076   5.317 -1.4164  1.8379  1.5187
 6000TIP3   OH217952   4.500   3.224   4.660  0.5024  0.4867  0.2432
 6000TIP3    H117953   4.413   3.191   4.684  0.8598 -0.6404  0.0292
 6000TIP3    H217954   4.526   3.171   4.585  1.6313  0.3832  0.6940
 6001TIP3   OH217955   5.720   6.835   0.154  0.0030 -0.7555  1.0660
 6001TIP3    H117956   5.672   6.891   0.093  0.2444 -1.0986  0.5583
 6001TIP3    H217957   5.667   6.756   0.160 -1.0277  0.0468  2.8158
 6002TIP3   OH217958   2.246   1.822   5.402 -0.3050 -0.4096  0.3322
 6002TIP3    H117959   2.256   1.912   5.434 -1.9260  0.6059 -1.9307
 6002TIP3    H217960   2.162   1.793   5.438 -0.0046 -0.8838  0.6676
 6003TIP3   OH217961   5.265   2.710   4.202  0.5430 -0.1137  0.2288
 6003TIP3    H117962   5.357   2.688   4.220  1.0554  1.3888 -0.4358
 6003TIP3    H217963   5.255   2.800   4.235 -0.2437  0.3088 -1.1057
 6004TIP3   OH217964   4.733   3.871   4.691 -0.3522 -0.1377  0.0885
 6004TIP3    H117965   4.797   3.868   4.620  1.6712  0.5937  1.8535
 6004TIP3    H217966   4.781   3.904   4.766 -1.9332 -2.8498  2.3923
 6005TIP3   OH217967   6.089   3.225   4.233 -0.3865 -0.4225  0.3193
 6005TIP3    H117968   6.163   3.173   4.264  0.5166 -0.6926 -2.1557
 6005TIP3    H217969   6.122   3.314   4.226 -0.6203 -0.3402  0.2455
 6006TIP3   OH217970   3.315   2.544   4.099  0.0703  0.2334  0.0450
 6006TIP3    H117971   3.247   2.595   4.054 -0.6858 -0.7113  0.0890
 6006TIP3    H217972   3.381   2.528   4.032 -1.1423 -1.3371 -0.8388
 6007TIP3   OH217973   4.830   2.458   4.642  0.6874 -0.5945 -0.2569
 6007TIP3    H117974   4.770   2.525   4.609 -0.2236 -1.0700  0.4487
 6007TIP3    H217975   4.863   2.494   4.725  1.3633 -0.3503 -0.6223
 6008TIP3   OH217976   6.457   1.697   3.584 -0.1090  0.1718  0.4807
 6008TIP3    H117977   6.426   1.608   3.602  1.9643 -0.9725 -1.2909
 6008TIP3    H217978   6.548   1.697   3.615 -0.1251  1.7221  0.5584
 6009TIP3   OH217979   4.261   1.977   4.876  0.2232 -0.1780 -0.2836
 6009TIP3    H117980   4.314   2.051   4.905  0.8726 -0.5235 -0.5856
 6009TIP3    H217981   4.308   1.940   4.802 -1.4775  0.7545 -1.8773
 6010TIP3   OH217982   4.678   4.284   5.312  0.2702  0.0213  0.7462
 6010TIP3    H117983   4.686   4.232   5.392  0.4313  0.9945  1.3726
 6010TIP3    H217984   4.655   4.372   5.343  3.5493  1.2554 -0.0201
 6011TIP3   OH217985   3.583   3.336   2.289  0.6644 -0.2797  0.0787
 6011TIP3    H117986   3.625   3.283   2.357  2.0050  0.7116  0.0308
 6011TIP3    H217987   3.605   3.292   2.207 -0.9258 -1.4570  0.2517
 6012TIP3   OH217988   4.400   3.413   4.415  0.5755 -0.0210  0.2806
 6012TIP3    H117989   4.438   3.463   4.343  3.1890  1.2091  2.4016
 6012TIP3    H217990   4.390   3.324   4.380 -1.4218  1.2806 -2.6275
 6013TIP3   OH217991   4.386   4.479   4.808  0.2512  0.2931 -0.1812
 6013TIP3    H117992   4.411   4.400   4.857 -0.1436 -0.0007 -0.4449
 6013TIP3    H217993   4.465   4.502   4.758  0.9931  1.2143  1.4071
 6014TIP3   OH217994   4.919   3.846   5.276  0.3761 -0.5911 -0.0765
 6014TIP3    H117995   4.919   3.782   5.347  2.0317  0.5527  0.9967
 6014TIP3    H217996   4.840   3.898   5.291  0.2443 -0.9322  0.4274
 6015TIP3   OH217997   5.180   2.554   4.625  0.3028 -0.0829 -0.1154
 6015TIP3    H117998   5.251   2.491   4.614  0.7101  0.3754 -0.1004
 6015TIP3    H217999   5.130   2.548   4.543  1.0493  0.4546 -0.6243
 6016TIP3   OH218000   6.388   3.147   4.914  0.6847 -0.0301  0.2187
 6016TIP3    H118001   6.403   3.159   4.820 -1.2727 -0.0905 -0.1362
 6016TIP3    H218002   6.444   3.212   4.956  1.7221 -0.1297 -0.9698
 6017TIP3   OH218003   0.948   1.020   0.671 -0.5925  0.6524 -1.1303
 6017TIP3    H118004   0.870   1.075   0.669 -0.9778  0.2528  1.4468
 6017TIP3    H218005   0.915   0.932   0.690  0.3761  0.2797 -1.1216
 6018TIP3   OH218006   3.081   4.237   3.260 -0.1896  0.7032  0.3143
 6018TIP3    H118007   3.051   4.154   3.224  1.1373 -0.3142  1.4924
 6018TIP3    H218008   3.163   4.255   3.214  0.3185  0.5652  1.1435
 6019TIP3   OH218009   4.644   5.133   4.847  0.3965 -0.5115  0.1685
 6019TIP3    H118010   4.640   5.209   4.789  1.1106 -1.0716 -0.6334
 6019TIP3    H218011   4.565   5.138   4.900 -1.2855 -1.0526 -2.1977
 6020TIP3   OH218012   6.085   5.486   0.487  0.0046 -0.2813 -0.3600
 6020TIP3    H118013   5.996   5.518   0.471  0.1324 -0.9534 -2.7045
 6020TIP3    H218014   6.135   5.565   0.508 -0.8759  0.2740 -0.3039
 6021TIP3   OH218015   5.132   3.325   3.497 -0.1594  0.4917 -0.0818
 6021TIP3    H118016   5.063   3.260   3.491 -1.3634  1.6827  0.5439
 6021TIP3    H218017   5.176   3.322   3.412 -0.6861 -0.5910 -0.3151
 6022TIP3   OH218018   3.462   2.699   4.304 -0.2862  0.6844 -0.0903
 6022TIP3    H118019   3.440   2.642   4.377 -1.5216  1.3794  0.0899
 6022TIP3    H218020   3.420   2.659   4.228  0.0685  0.5679 -0.2293
 6023TIP3   OH218021   5.341   6.123   0.332  0.5355 -0.3300  0.1380
 6023TIP3    H118022   5.259   6.073   0.330  0.0192  0.4430  1.5004
 6023TIP3    H218023   5.314   6.215   0.332  1.3787 -0.0669  1.2927
 6024TIP3   OH218024   4.113   3.796   5.015  0.4584  0.0497  0.6821
 6024TIP3    H118025   4.107   3.779   5.109  0.3863 -1.9115  0.3389
 6024TIP3    H218026   4.064   3.878   5.003  0.2018  0.1536  2.3043
 6025TIP3   OH218027   4.506   3.221   3.542  0.2791  0.0648  0.5261
 6025TIP3    H118028   4.591   3.177   3.550 -0.4447 -2.2695 -3.0579
 6025TIP3    H218029   4.442   3.152   3.554 -1.0245  1.0511 -0.6085
 6026TIP3   OH218030   4.135   5.710   6.148  0.2436  0.5687 -0.0765
 6026TIP3    H118031   4.100   5.783   6.198 -0.0670 -0.8082  1.7788
 6026TIP3    H218032   4.058   5.671   6.105  0.2016  0.4665  0.0908
 6027TIP3   OH218033   1.183   5.691   4.446 -0.4359  0.5188 -0.1036
 6027TIP3    H118034   1.159   5.749   4.518  0.5985  2.8764 -1.5857
 6027TIP3    H218035   1.261   5.731   4.408  0.3658 -1.9263 -1.1387
 6028TIP3   OH218036   5.589   2.757   3.379 -0.1316 -0.3353  0.1904
 6028TIP3    H118037   5.579   2.675   3.427  2.2010 -1.3258 -0.9088
 6028TIP3    H218038   5.614   2.731   3.291  1.3599  1.5477  0.0066
 6029TIP3   OH218039   6.612   3.055   3.955  0.5919  0.9153  0.2820
 6029TIP3    H118040   6.594   3.123   3.890  0.1113  0.4973 -0.0254
 6029TIP3    H218041   6.692   3.084   3.999  0.5589  1.5232 -0.0579
 6030TIP3   OH218042   3.941   2.005   5.065 -0.1970  0.5636  0.0179
 6030TIP3    H118043   3.986   2.087   5.085  0.5568  0.2115 -0.2077
 6030TIP3    H218044   4.007   1.938   5.079 -1.0608 -0.0943  1.0787
 6031TIP3   OH218045   3.849   3.521   4.500 -0.2708  0.2593  0.6337
 6031TIP3    H118046   3.880   3.438   4.537  0.0016 -0.7260 -1.7232
 6031TIP3    H218047   3.912   3.542   4.431 -0.8860  1.9383  0.5546
 6032TIP3   OH218048   3.539   2.804   1.288  0.2162 -0.2545  0.4388
 6032TIP3    H118049   3.556   2.710   1.286 -2.1393 -0.7001  0.4715
 6032TIP3    H218050   3.625   2.844   1.274  1.1151 -2.4065 -0.3540
 6033TIP3   OH218051   6.574   6.856   0.651 -0.3421 -0.7396  0.0197
 6033TIP3    H118052   6.545   6.905   0.574  0.3676  0.2251  0.3605
 6033TIP3    H218053   6.496   6.849   0.706  0.3100  3.0031  1.5534
 6034TIP3   OH218054   4.123   3.819   4.192  0.0680  0.6924  0.6369
 6034TIP3    H118055   4.156   3.899   4.233 -0.4702  1.1726  0.1475
 6034TIP3    H218056   4.083   3.849   4.110 -0.4500 -0.0380  0.6166
 6035TIP3   OH218057   3.622   2.145   5.622 -0.1022 -0.3235 -0.5297
 6035TIP3    H118058   3.648   2.071   5.567 -0.1884  0.0553 -1.0796
 6035TIP3    H218059   3.640   2.222   5.568 -2.5005 -0.0531 -0.9727
 6036TIP3   OH218060   3.637   3.992   5.928 -0.1456 -0.8805 -0.3427
 6036TIP3    H118061   3.691   3.977   6.006 -1.2305  0.3971  0.6666
 6036TIP3    H218062   3.701   4.015   5.859  0.6275  0.7101  0.8567
 6037TIP3   OH218063   3.287   3.370   6.188  0.3289  0.4778  0.6380
 6037TIP3    H118064   3.252   3.459   6.183  2.2017  1.2167  0.3007
 6037TIP3    H218065   3.250   3.325   6.112 -2.8170  0.1469  2.3132
 6038TIP3   OH218066   1.123   5.837   1.607  0.0056  0.4066  0.3415
 6038TIP3    H118067   1.145   5.819   1.698  2.6160  0.5068 -0.2331
 6038TIP3    H218068   1.139   5.931   1.596  0.4924  0.2430 -0.4017
 6039TIP3   OH218069   2.792   2.606   5.272 -0.4715  0.3045  0.3066
 6039TIP3    H118070   2.884   2.581   5.265 -0.7074 -0.3317 -0.5038
 6039TIP3    H218071   2.793   2.702   5.269 -0.1223  0.2581 -3.4943
 6040TIP3   OH218072   4.654   2.419   5.024  0.1184  0.0322  0.0369
 6040TIP3    H118073   4.727   2.358   5.018  0.4449  0.1437  2.2488
 6040TIP3    H218074   4.626   2.434   4.934  0.6749 -2.5856 -0.5910
 6041TIP3   OH218075   3.943   5.832   4.352  0.0680 -0.0514  0.0402
 6041TIP3    H118076   3.896   5.903   4.395  2.0155 -0.7829  3.6047
 6041TIP3    H218077   3.910   5.753   4.394 -0.2329 -1.0872 -2.0868
 6042TIP3   OH218078   5.472   3.298   5.369  0.2017  0.5365 -0.5092
 6042TIP3    H118079   5.384   3.336   5.359  0.5354  1.5301  0.2114
 6042TIP3    H218080   5.511   3.305   5.281 -0.3044  0.4376 -0.7422
 6043TIP3   OH218081   6.482   4.604   2.409  1.0720  0.2902 -0.0444
 6043TIP3    H118082   6.408   4.648   2.368  2.3930  1.7750 -0.9177
 6043TIP3    H218083   6.448   4.571   2.492 -0.8027  0.1058 -0.8738
 6044TIP3   OH218084   3.971   3.069   5.808 -0.1095 -0.1745  0.3069
 6044TIP3    H118085   3.983   3.164   5.807  1.6449 -0.3807  0.2359
 6044TIP3    H218086   3.921   3.052   5.888  1.0303  0.6482  1.2074
 6045TIP3   OH218087   3.806   2.526   4.842 -0.4982 -0.1670 -0.0008
 6045TIP3    H118088   3.812   2.491   4.753  0.0333 -2.7036  0.9952
 6045TIP3    H218089   3.730   2.482   4.880 -0.4866  0.6113  0.9298
 6046TIP3   OH218090   5.046   1.308   5.109  0.5847 -0.3239 -0.1243
 6046TIP3    H118091   5.085   1.251   5.042  0.3696 -2.1302  1.2459
 6046TIP3    H218092   4.966   1.340   5.069 -0.0424 -2.1601 -0.4220
 6047TIP3   OH218093   5.108   6.119   0.142 -0.2130  0.1276 -0.2152
 6047TIP3    H118094   5.083   6.036   0.100 -0.5446  0.1242 -0.0073
 6047TIP3    H218095   5.059   6.186   0.094 -0.4462  0.1419  0.0418
 6048TIP3   OH218096   5.076   2.339   5.799 -0.2884 -0.5089 -0.3263
 6048TIP3    H118097   5.076   2.344   5.703  1.5442  0.9269 -0.2939
 6048TIP3    H218098   5.110   2.252   5.818  0.0631 -0.5199 -0.9917
 6049TIP3   OH218099   6.839   3.802   4.653  0.7337  0.1231  0.0990
 6049TIP3    H118100   6.854   3.710   4.629  2.5604  0.7093 -1.1308
 6049TIP3    H218101   6.767   3.799   4.716  0.9092 -2.1736  0.2323
 6050TIP3   OH218102   0.967   1.076   0.017 -0.0297  0.1818 -0.0159
 6050TIP3    H118103   0.993   0.992   0.056 -0.0409 -0.8324 -2.1000
 6050TIP3    H218104   0.952   1.134   0.091  2.2651 -0.9854  1.3927
 6051TIP3   OH218105   5.319   4.656   3.509  0.1644 -0.2519 -0.2495
 6051TIP3    H118106   5.415   4.650   3.517  0.0787 -0.8584  0.3928
 6051TIP3    H218107   5.291   4.566   3.492 -0.4493 -0.3879  1.3780
 6052TIP3   OH218108   4.075   3.645   3.474  0.7014 -0.1671  0.1058
 6052TIP3    H118109   4.129   3.580   3.427 -0.4940 -1.2792  0.2472
 6052TIP3    H218110   4.083   3.620   3.566  0.6090  0.1766  0.2054
 6053TIP3   OH218111   4.260   0.445   3.687  0.0367 -0.3735 -0.4178
 6053TIP3    H118112   4.250   0.535   3.658 -1.5822 -0.2950  0.3220
 6053TIP3    H218113   4.354   0.429   3.686  0.3272  1.3109 -0.5722
 6054TIP3   OH218114   3.532   4.557   4.458  0.7366  0.0514  0.2398
 6054TIP3    H118115   3.585   4.615   4.404 -0.4862  0.7148 -0.2664
 6054TIP3    H218116   3.528   4.476   4.409  1.7299 -0.1942  0.5423
 6055TIP3   OH218117   2.758   1.376   4.928  0.2966  0.0146  0.3049
 6055TIP3    H118118   2.749   1.469   4.951 -0.5990 -0.0643  0.2959
 6055TIP3    H218119   2.821   1.342   4.991 -1.8951 -0.1247  2.4862
 6056TIP3   OH218120   4.145   4.202   5.635 -0.2112  0.1030  0.4103
 6056TIP3    H118121   4.055   4.233   5.640 -0.7048 -1.3797  0.9510
 6056TIP3    H218122   4.198   4.281   5.644 -1.4482  1.0234 -0.2407
 6057TIP3   OH218123   2.981   2.675   5.617  0.8060 -0.6159 -0.5013
 6057TIP3    H118124   2.968   2.689   5.711  2.3272 -1.1808 -0.1994
 6057TIP3    H218125   2.958   2.583   5.604  0.9937 -0.6451 -0.6158
 6058TIP3   OH218126   1.705   0.436   1.045 -0.1090 -0.4936  0.1294
 6058TIP3    H118127   1.610   0.431   1.053 -0.3592  2.0116 -0.9199
 6058TIP3    H218128   1.737   0.407   1.130 -1.8153 -1.0393  0.6162
 6059TIP3   OH218129   3.738   3.320   3.877 -0.3134 -0.5348 -0.5907
 6059TIP3    H118130   3.780   3.405   3.863  1.1375 -1.2586 -0.6846
 6059TIP3    H218131   3.654   3.341   3.918  0.0347  0.9416 -0.6242
 6060TIP3   OH218132   6.392   3.705   4.967 -0.6109  0.2929 -0.2533
 6060TIP3    H118133   6.300   3.704   4.939 -0.7482 -2.4417  0.1108
 6060TIP3    H218134   6.387   3.709   5.062 -0.4100 -0.9475 -0.1789
 6061TIP3   OH218135   7.354   7.395   0.585  0.2287  0.2550  0.0589
 6061TIP3    H118136   7.286   7.354   0.639  0.2497 -0.1181 -0.1950
 6061TIP3    H218137   7.384   7.469   0.637  0.3997 -0.2275  0.6588
 6062TIP3   OH218138   6.860   6.704   0.174 -0.1545  0.5600 -0.4482
 6062TIP3    H118139   6.839   6.786   0.130  0.0889  0.5197 -0.6411
 6062TIP3    H218140   6.949   6.717   0.208  0.1154  0.1641 -0.9899
 6063TIP3   OH218141   2.273   6.574   3.778  0.4089 -0.4127 -0.2906
 6063TIP3    H118142   2.351   6.534   3.816  1.1854  0.5328 -0.8688
 6063TIP3    H218143   2.298   6.664   3.761 -1.5346  0.5425  1.6315
 6064TIP3   OH218144   3.438   1.830   6.228  0.0281 -0.8920 -0.1947
 6064TIP3    H118145   3.525   1.820   6.266 -0.2973 -2.1809  0.2065
 6064TIP3    H218146   3.437   1.921   6.197  1.3280 -0.7084  0.2472
 6065TIP3   OH218147   3.050   1.681   0.625 -0.2049  0.6454 -0.1132
 6065TIP3    H118148   2.962   1.694   0.659 -0.7647  0.7604 -1.5645
 6065TIP3    H218149   3.054   1.735   0.546 -0.0496 -2.0498 -2.0180
 6066TIP3   OH218150   6.068   3.872   5.408 -0.7199 -0.8241 -0.1449
 6066TIP3    H118151   6.100   3.937   5.470 -1.5166 -1.0338  0.4916
 6066TIP3    H218152   6.044   3.797   5.462  0.5165 -1.7844 -0.9015
 6067TIP3   OH218153   6.039   2.848   4.169  0.4143 -0.0585  0.0421
 6067TIP3    H118154   6.105   2.913   4.195 -0.2192  1.1146 -1.2063
 6067TIP3    H218155   5.970   2.856   4.234  0.1674  0.8010 -0.3177
 6068TIP3   OH218156   6.320   5.373   0.902  0.6729 -0.1268 -0.2113
 6068TIP3    H118157   6.317   5.317   0.980 -1.8447  1.7442  1.1562
 6068TIP3    H218158   6.273   5.324   0.835  2.4018 -1.5363 -0.4088
 6069TIP3   OH218159   4.713   3.293   2.636 -0.3609 -0.7088  0.2306
 6069TIP3    H118160   4.782   3.356   2.612 -2.0312  0.9727 -0.3554
 6069TIP3    H218161   4.718   3.226   2.568 -1.0731  0.8559 -1.4392
 6070TIP3   OH218162   3.595   5.150   5.189  0.4767  0.2050 -0.5650
 6070TIP3    H118163   3.542   5.218   5.231 -0.8395 -0.0070 -1.8454
 6070TIP3    H218164   3.635   5.194   5.114  2.6688  0.5323  0.7715
 6071TIP3   OH218165   3.871   4.291   5.604 -0.0807 -0.1391 -0.4075
 6071TIP3    H118166   3.803   4.351   5.574 -2.7564 -2.0683  1.6533
 6071TIP3    H218167   3.850   4.207   5.564  0.1056 -1.1478  1.5254
 6072TIP3   OH218168   2.452   3.108   6.252  0.2461 -0.5000 -0.3145
 6072TIP3    H118169   2.412   3.112   6.165 -0.0650 -0.2971 -0.1625
 6072TIP3    H218170   2.504   3.188   6.258 -0.5338 -0.0223  0.0767
 6073TIP3   OH218171   4.921   3.694   5.545 -0.9146 -0.0902  0.0892
 6073TIP3    H118172   5.011   3.719   5.526 -1.1731  0.1057 -0.8743
 6073TIP3    H218173   4.899   3.742   5.625 -0.1995 -0.0556  0.2631
 6074TIP3   OH218174   5.611   3.831   3.708 -0.6360  0.0151 -0.6414
 6074TIP3    H118175   5.682   3.773   3.683 -1.4758 -0.9650 -0.7734
 6074TIP3    H218176   5.615   3.835   3.803 -0.3023  0.0945 -0.6587
 6075TIP3   OH218177   7.010   3.843   5.070  0.1250  0.0621 -0.1294
 6075TIP3    H118178   7.105   3.855   5.074  0.0784  0.2810  0.4106
 6075TIP3    H218179   6.974   3.932   5.072 -0.0658  0.0238 -1.3132
 6076TIP3   OH218180   6.469   3.503   3.633  0.1895  0.2521  0.3715
 6076TIP3    H118181   6.494   3.470   3.720 -1.2007 -1.0476  0.2976
 6076TIP3    H218182   6.433   3.427   3.588  0.0330  1.1358 -1.0272
 6077TIP3   OH218183   5.955   3.918   2.355 -0.5040  0.0649  0.0491
 6077TIP3    H118184   5.961   3.975   2.278  2.3022  0.1913  0.2983
 6077TIP3    H218185   5.946   3.830   2.318 -0.2416  0.2354 -0.4327
 6078TIP3   OH218186   4.244   1.160   2.781  0.5361 -0.3360  0.5918
 6078TIP3    H118187   4.216   1.252   2.783  1.0463 -0.1948  1.3764
 6078TIP3    H218188   4.214   1.123   2.863 -1.2633 -1.3681 -0.4990
 6079TIP3   OH218189   4.562   4.780   4.377 -0.3858 -0.5041 -0.0211
 6079TIP3    H118190   4.599   4.713   4.435  0.5967  0.0738  0.0225
 6079TIP3    H218191   4.605   4.766   4.293  0.3539  0.5341  0.1845
 6080TIP3   OH218192   3.826   2.574   4.408 -0.0787  0.0136  0.3186
 6080TIP3    H118193   3.810   2.522   4.486  1.9730 -0.2789  0.5702
 6080TIP3    H218194   3.877   2.517   4.350 -0.1491  0.8022 -0.5377
 6081TIP3   OH218195   3.845   3.173   3.007  0.1232 -0.1428  0.4781
 6081TIP3    H118196   3.819   3.143   2.920 -0.4802  0.9076  0.2880
 6081TIP3    H218197   3.798   3.256   3.019 -0.7251 -0.8572  2.2748
 6082TIP3   OH218198   4.264   3.429   5.039 -0.0128 -0.5050  0.3311
 6082TIP3    H118199   4.351   3.388   5.041  0.7833  0.9659 -2.5592
 6082TIP3    H218200   4.277   3.511   4.992 -2.3137  1.4267  2.8826
 6083TIP3   OH218201   3.945   5.822   6.447  0.1814 -0.0968 -0.3265
 6083TIP3    H118202   3.851   5.808   6.463  0.0058 -0.0993 -1.3328
 6083TIP3    H218203   3.948   5.863   6.361  1.1565 -0.8347 -0.6493
 6084TIP3   OH218204   6.151   2.940   4.517 -0.4310  0.2478 -0.3834
 6084TIP3    H118205   6.076   2.996   4.534 -0.8234 -0.5716  0.5909
 6084TIP3    H218206   6.194   2.980   4.441 -1.6422  0.9165 -0.7263
 6085TIP3   OH218207   3.893   2.374   1.687 -0.7587  0.8904  0.5705
 6085TIP3    H118208   3.931   2.292   1.718  0.9293  1.8134  1.0379
 6085TIP3    H218209   3.862   2.355   1.599 -1.3466 -0.5212  1.0717
 6086TIP3   OH218210   4.421   3.600   6.123 -0.9489 -0.0520  0.4599
 6086TIP3    H118211   4.442   3.650   6.044 -0.3246  0.0332  0.6748
 6086TIP3    H218212   4.431   3.662   6.194 -0.2235 -0.4661  0.7223
 6087TIP3   OH218213   6.445   4.240   2.243  0.1553 -0.5801  0.0620
 6087TIP3    H118214   6.461   4.175   2.311 -1.2162  0.3807  1.3372
 6087TIP3    H218215   6.412   4.189   2.169  1.6954 -1.6417  0.0883
 6088TIP3   OH218216   3.413   3.011   5.073  0.5036  0.2554 -0.4425
 6088TIP3    H118217   3.480   2.992   5.007  1.4244 -1.5006  0.9539
 6088TIP3    H218218   3.441   2.962   5.150  0.8829  4.3849  2.1840
 6089TIP3   OH218219   2.668   3.329   2.091  0.4894 -0.5069 -0.3632
 6089TIP3    H118220   2.701   3.331   2.000 -0.7467 -1.3243 -0.8355
 6089TIP3    H218221   2.652   3.237   2.108  0.3856 -0.3135  0.5837
 6090TIP3   OH218222   4.094   3.928   5.809  0.1270  0.0102  0.0093
 6090TIP3    H118223   4.102   4.022   5.800 -0.8779  0.0996 -0.0591
 6090TIP3    H218224   4.088   3.895   5.719 -1.5005  0.0837  0.0740
 6091TIP3   OH218225   4.322   3.183   3.983  0.3634 -0.2318 -0.2500
 6091TIP3    H118226   4.244   3.210   3.935  0.8405  0.4597 -0.6544
 6091TIP3    H218227   4.307   3.091   4.004 -0.8890  0.0993  0.3436
 6092TIP3   OH218228   2.133   1.460   2.968 -0.1577 -0.0943 -0.0957
 6092TIP3    H118229   2.205   1.420   3.016 -0.4963 -0.3007  0.2476
 6092TIP3    H218230   2.114   1.541   3.016 -0.5153 -0.3154  0.1461
 6093TIP3   OH218231   4.838   3.438   3.698  0.0719  0.0309 -0.2549
 6093TIP3    H118232   4.891   3.380   3.751  1.0061 -0.6036 -1.8496
 6093TIP3    H218233   4.808   3.384   3.625 -1.9772  0.6343  0.1047
 6094TIP3   OH218234   4.548   3.086   4.912 -0.2086  0.4606 -0.2936
 6094TIP3    H118235   4.575   3.076   5.004 -0.9949  1.0565  0.0157
 6094TIP3    H218236   4.502   3.005   4.892  0.4952  0.0797 -0.3412
 6095TIP3   OH218237   5.822   0.925   2.209  0.3498  0.2005  0.3563
 6095TIP3    H118238   5.755   0.923   2.277 -0.9215  0.4367 -0.8464
 6095TIP3    H218239   5.826   1.017   2.182 -0.2007 -0.1108 -0.8540
 6096TIP3   OH218240   5.439   2.365   5.877  0.5870  0.0826 -0.1003
 6096TIP3    H118241   5.393   2.320   5.948  0.8283 -1.2937 -0.7989
 6096TIP3    H218242   5.410   2.456   5.884  0.3009 -0.1168  1.5070
 6097TIP3   OH218243   4.177   1.587   5.702 -0.4953 -0.0578 -0.4323
 6097TIP3    H118244   4.228   1.656   5.659  0.2467  0.7925  1.7549
 6097TIP3    H218245   4.173   1.517   5.638 -1.5744  2.1363 -2.8701
 6098TIP3   OH218246   5.302   5.234   0.130 -0.5677  0.1017 -0.1680
 6098TIP3    H118247   5.318   5.143   0.104 -1.3640  0.5566 -2.4177
 6098TIP3    H218248   5.254   5.227   0.213  2.4320 -1.4288  1.5076
 6099TIP3   OH218249   4.588   1.704   4.577 -0.2810 -0.0991  0.3340
 6099TIP3    H118250   4.656   1.687   4.642  0.4157  1.3278 -0.0098
 6099TIP3    H218251   4.635   1.706   4.494 -1.4072 -3.7253 -0.4885
 6100TIP3   OH218252   3.729   2.912   5.476  0.7165 -0.2043 -0.1918
 6100TIP3    H118253   3.681   2.832   5.497 -0.4144 -0.5901 -3.8250
 6100TIP3    H218254   3.808   2.882   5.432 -0.0065  0.6426 -2.1363
 6101TIP3   OH218255   4.029   2.634   3.182  0.7127 -0.1745  0.0514
 6101TIP3    H118256   4.079   2.651   3.102  0.6290  1.7989  0.4026
 6101TIP3    H218257   3.939   2.653   3.158  0.8052  1.3403  0.8695
 6102TIP3   OH218258   7.557   7.053   1.251 -0.5112 -0.2635 -0.2745
 6102TIP3    H118259   7.483   7.107   1.221  0.1977  1.3127  0.8051
 6102TIP3    H218260   7.634   7.092   1.210 -0.1168 -1.1545 -0.3990
 6103TIP3   OH218261   6.028   0.756   4.614  0.0650 -0.2519  0.0250
 6103TIP3    H118262   5.959   0.704   4.573  0.3703 -1.5357  1.1048
 6103TIP3    H218263   6.109   0.723   4.576  0.3321 -1.2587  1.4084
 6104TIP3   OH218264   3.858   1.922   3.043  0.0989  0.4243  0.3965
 6104TIP3    H118265   3.861   1.937   3.138 -1.0817  0.9776  0.3611
 6104TIP3    H218266   3.854   1.827   3.034  0.6938  0.3466  0.8828
 6105TIP3   OH218267   4.592   1.913   3.709  0.0343  0.0845 -0.2626
 6105TIP3    H118268   4.612   1.904   3.616  0.4560 -1.0606 -0.0614
 6105TIP3    H218269   4.496   1.906   3.714  0.2545 -3.5362 -0.2195
 6106TIP3   OH218270   5.880   3.202   4.964  0.3200  0.0627 -0.0626
 6106TIP3    H118271   5.938   3.126   4.964 -1.9162 -1.7166  0.9176
 6106TIP3    H218272   5.822   3.187   4.889  1.3048  2.0202 -1.2719
 6107TIP3   OH218273   4.279   0.687   5.109 -0.3290 -0.2982 -0.3134
 6107TIP3    H118274   4.286   0.720   5.199 -0.7424 -0.6498 -0.1521
 6107TIP3    H218275   4.188   0.701   5.086 -0.2569 -0.3559 -0.6236
 6108TIP3   OH218276   3.325   2.718   5.144 -0.1115 -0.2288  0.2100
 6108TIP3    H118277   3.320   2.788   5.208  1.5253  0.6568 -0.6062
 6108TIP3    H218278   3.380   2.651   5.185  1.1522  0.4501 -0.3441
 6109TIP3   OH218279   0.834   0.475   0.849  0.4308  0.5975 -0.1481
 6109TIP3    H118280   0.922   0.453   0.816  0.4238  0.3312  0.0094
 6109TIP3    H218281   0.834   0.445   0.940  0.8304  2.3612  0.4564
 6110TIP3   OH218282   5.250   4.324   5.148 -0.2770  0.1033 -0.2196
 6110TIP3    H118283   5.325   4.349   5.202 -0.3585 -1.4996  0.6609
 6110TIP3    H218284   5.233   4.402   5.094  0.8574  1.1343  0.8599
 6111TIP3   OH218285   4.909   2.917   3.068  0.0608  0.2489 -0.2118
 6111TIP3    H118286   4.961   2.865   3.130  0.6614  0.7751 -0.2748
 6111TIP3    H218287   4.891   2.999   3.113 -1.7170 -0.3667  0.2612
 6112TIP3   OH218288   4.511   5.963   5.807 -0.1654  0.2162 -0.3549
 6112TIP3    H118289   4.539   5.879   5.773 -0.6268  1.2179 -3.3439
 6112TIP3    H218290   4.417   5.953   5.823  0.0530 -0.2559  0.6700
 6113TIP3   OH218291   3.784   3.383   3.571 -0.0817  0.5140  0.0572
 6113TIP3    H118292   3.829   3.461   3.604 -1.0320  1.3502 -0.5974
 6113TIP3    H218293   3.845   3.347   3.506  0.6397  0.3370  0.8168
 6114TIP3   OH218294   3.178   4.642   6.398  0.1337  0.2290  0.2705
 6114TIP3    H118295   3.243   4.712   6.408  0.3371  0.3151 -1.4868
 6114TIP3    H218296   3.193   4.585   6.473  1.8722  0.5574  0.2042
 6115TIP3   OH218297   5.317   2.565   3.487 -0.2078 -0.3876 -0.3704
 6115TIP3    H118298   5.310   2.536   3.396  0.6657 -0.9617 -0.2575
 6115TIP3    H218299   5.410   2.577   3.502 -0.2844 -0.9891  0.6611
 6116TIP3   OH218300   1.490   5.839   0.859  0.0822  0.2839  0.3733
 6116TIP3    H118301   1.486   5.934   0.858 -1.0438  0.2380  0.1232
 6116TIP3    H218302   1.454   5.812   0.775  0.1086 -0.3642  0.5653
 6117TIP3   OH218303   4.485   1.750   2.543  0.6107 -0.2303 -0.1726
 6117TIP3    H118304   4.407   1.720   2.495  0.7264  0.0767 -0.5475
 6117TIP3    H218305   4.468   1.842   2.562  0.3819 -0.4456  0.7386
 6118TIP3   OH218306   4.240   2.640   2.983  0.5320  0.0605  0.4012
 6118TIP3    H118307   4.334   2.652   2.971  0.5863  0.1120  0.8922
 6118TIP3    H218308   4.225   2.547   2.967  0.4558  0.3061 -1.0776
 6119TIP3   OH218309   6.491   4.653   1.111 -0.1429  0.8095 -0.8774
 6119TIP3    H118310   6.463   4.576   1.061  0.7841  0.3647 -0.7321
 6119TIP3    H218311   6.420   4.668   1.173 -0.3378  0.0761 -0.9177
 6120TIP3   OH218312   2.737   0.649   4.135  0.1694 -0.3989  0.5312
 6120TIP3    H118313   2.662   0.594   4.158 -0.9728  1.4089  1.2249
 6120TIP3    H218314   2.701   0.714   4.074  1.6604 -0.8619 -0.8741
 6121TIP3   OH218315   6.128   4.726   5.901 -0.2087  0.0710 -0.4337
 6121TIP3    H118316   6.081   4.802   5.935  1.4260  2.0300 -2.3963
 6121TIP3    H218317   6.175   4.691   5.976  0.6278  2.2341  0.0650
 6122TIP3   OH218318   5.166   1.294   1.919 -0.0152  0.4738  0.0909
 6122TIP3    H118319   5.184   1.291   2.013  1.1866  3.8745  0.0462
 6122TIP3    H218320   5.217   1.222   1.883  1.9436  0.9903  1.7062
 6123TIP3   OH218321   4.527   4.460   5.084  0.2265 -0.6518  0.0113
 6123TIP3    H118322   4.518   4.376   5.040 -1.2623 -1.1044  1.1252
 6123TIP3    H218323   4.568   4.438   5.168 -0.7084 -0.3405  0.5479
 6124TIP3   OH218324   6.244   2.484   1.967 -0.0369 -0.0673 -0.2345
 6124TIP3    H118325   6.209   2.571   1.986 -0.3514 -0.2072 -0.1643
 6124TIP3    H218326   6.220   2.431   2.043  1.6753  0.2108  0.5093
 6125TIP3   OH218327   0.301   1.143   0.929  0.6482  0.4923 -0.1048
 6125TIP3    H118328   0.240   1.117   0.860  0.9080  0.8632 -0.4792
 6125TIP3    H218329   0.320   1.062   0.976 -0.0335  0.3502 -0.0629
 6126TIP3   OH218330   4.942   3.803   5.817 -0.2825 -0.1880 -0.0893
 6126TIP3    H118331   5.021   3.854   5.803  1.3245 -2.6698 -0.3624
 6126TIP3    H218332   4.939   3.788   5.912 -0.4398 -0.0601 -0.0739
 6127TIP3   OH218333   0.229   5.571   1.490  0.4147  0.0669  0.0209
 6127TIP3    H118334   0.198   5.661   1.482  0.0695 -0.1363 -1.0336
 6127TIP3    H218335   0.303   5.576   1.550 -0.8974  0.7348  1.6248
 6128TIP3   OH218336   4.306   1.673   5.949 -0.1599  0.1585  0.6605
 6128TIP3    H118337   4.259   1.635   5.875 -1.7271 -1.4338  2.3987
 6128TIP3    H218338   4.387   1.623   5.954  0.1258  0.5262 -0.2035
 6129TIP3   OH218339   4.222   2.582   5.740 -0.0519  0.4499 -0.1383
 6129TIP3    H118340   4.277   2.513   5.778  0.7237  1.7884  1.2419
 6129TIP3    H218341   4.177   2.539   5.667  0.3444 -1.5255  0.7385
 6130TIP3   OH218342   5.370   5.674   0.101 -0.0182 -0.1473 -0.2079
 6130TIP3    H118343   5.286   5.629   0.091 -0.7695  0.7901  1.6750
 6130TIP3    H218344   5.353   5.764   0.075  0.2187  0.2053  0.8422
 6131TIP3   OH218345   7.184   6.127   0.790  0.9187 -0.6366 -0.1325
 6131TIP3    H118346   7.130   6.061   0.833 -0.4938  0.3930 -0.2842
 6131TIP3    H218347   7.178   6.204   0.847 -0.4973  0.5566 -1.8396
 6132TIP3   OH218348   4.418   2.811   3.283 -0.0618  0.4322  0.1345
 6132TIP3    H118349   4.343   2.855   3.243 -1.4298 -1.5899  0.3611
 6132TIP3    H218350   4.401   2.816   3.377 -1.5517 -2.6786  0.0995
 6133TIP3   OH218351   3.380   5.022   6.101  0.3541 -0.0135 -0.3161
 6133TIP3    H118352   3.329   5.101   6.117  0.4206  0.1316 -0.8249
 6133TIP3    H218353   3.453   5.050   6.047 -0.7645 -0.7861 -2.2738
 6134TIP3   OH218354   6.082   2.957   5.038 -0.2403 -0.2529 -0.3096
 6134TIP3    H118355   5.997   2.913   5.040 -0.6036  0.4920  1.0837
 6134TIP3    H218356   6.142   2.894   5.078 -0.5139 -0.0408  0.4629
 6135TIP3   OH218357   4.625   3.461   4.669  0.2428  0.2927  0.2941
 6135TIP3    H118358   4.586   3.374   4.681  1.6036 -0.2740  0.7197
 6135TIP3    H218359   4.607   3.507   4.751 -1.7351  0.9366 -0.4671
 6136TIP3   OH218360   3.906   3.268   4.678 -0.0206 -0.3425 -0.6356
 6136TIP3    H118361   3.819   3.271   4.718  1.0611 -1.3635  1.9598
 6136TIP3    H218362   3.898   3.203   4.608 -1.5473  0.2388 -1.0277
 6137TIP3   OH218363   3.000   5.557   2.470 -0.0452  0.5871  0.0550
 6137TIP3    H118364   3.053   5.605   2.535  0.4615  0.9571 -0.6305
 6137TIP3    H218365   2.946   5.625   2.429 -2.5466 -0.0572  2.1437
 6138TIP3   OH218366   4.923   3.793   4.487  0.1119  0.0996 -0.5603
 6138TIP3    H118367   4.999   3.831   4.443  1.8802 -2.1796  0.4341
 6138TIP3    H218368   4.883   3.737   4.421  0.9431 -0.8961 -0.2182
 6139TIP3   OH218369   2.438   5.528   5.861 -0.5917  0.2363  0.1335
 6139TIP3    H118370   2.460   5.563   5.947  0.1498  0.2197 -0.0476
 6139TIP3    H218371   2.429   5.605   5.805  1.8225  0.1237 -0.4487
 6140TIP3   OH218372   5.253   4.058   4.811  0.1306  0.4444  0.0976
 6140TIP3    H118373   5.318   3.990   4.830  0.2157  0.3348 -0.5589
 6140TIP3    H218374   5.249   4.110   4.891  0.0846 -0.3189  0.5986
 6141TIP3   OH218375   4.085   0.033   0.490 -0.4647 -0.3782  0.7574
 6141TIP3    H118376   4.006   0.074   0.523 -0.2234 -1.7119  3.1336
 6141TIP3    H218377   4.156   0.071   0.542  0.2918 -0.3425 -0.2743
 6142TIP3   OH218378   5.034   5.686   5.756 -0.1014  0.0263  0.3909
 6142TIP3    H118379   5.001   5.775   5.758 -1.8951 -0.6356  0.6081
 6142TIP3    H218380   5.049   5.663   5.848 -2.9512 -1.0955  0.6041
 6143TIP3   OH218381   3.171   0.164   4.528 -0.3825 -0.0185 -0.0251
 6143TIP3    H118382   3.221   0.186   4.607 -0.0862  0.9103 -0.4573
 6143TIP3    H218383   3.215   0.212   4.458 -0.1540 -1.4861 -0.8942
 6144TIP3   OH218384   6.634   3.823   3.932 -0.1267  0.5664  0.0891
 6144TIP3    H118385   6.689   3.746   3.944 -0.0294  0.2636 -2.1122
 6144TIP3    H218386   6.663   3.860   3.849 -1.0671  2.2453  0.4904
 6145TIP3   OH218387   0.573   2.023   2.654  0.3201 -0.3236  0.0202
 6145TIP3    H118388   0.490   1.978   2.639 -1.0719  1.5485  1.6847
 6145TIP3    H218389   0.586   2.018   2.749  2.1999 -0.7259 -0.2376
 6146TIP3   OH218390   4.171   6.274   4.404  0.1747 -1.0170  0.0559
 6146TIP3    H118391   4.148   6.202   4.346  0.4335 -0.3426 -0.8924
 6146TIP3    H218392   4.087   6.305   4.439 -0.0157 -1.1576 -0.2813
 6147TIP3   OH218393   6.458   4.432   3.950  0.7171 -0.6409 -0.0793
 6147TIP3    H118394   6.369   4.418   3.982 -0.2593  2.5964 -1.2272
 6147TIP3    H218395   6.477   4.354   3.898 -1.6872 -1.0816 -0.3427
 6148TIP3   OH218396   3.843   2.172   3.990 -0.3019 -0.4869 -0.6841
 6148TIP3    H118397   3.848   2.266   3.970  2.0489 -0.7572 -1.4721
 6148TIP3    H218398   3.862   2.166   4.083  0.4135 -0.2625 -0.8168
 6149TIP3   OH218399   3.016   3.038   5.289  0.2458  0.1007  0.0175
 6149TIP3    H118400   2.969   3.110   5.249  1.4669  1.6482  1.3120
 6149TIP3    H218401   3.076   3.007   5.220 -0.6624 -0.0657 -0.7113
 6150TIP3   OH218402   5.386   3.559   4.371  0.2708 -0.6296 -0.2309
 6150TIP3    H118403   5.315   3.505   4.337 -1.1706  0.7156  0.5584
 6150TIP3    H218404   5.389   3.634   4.312  0.0982 -0.0041  0.5451
 6151TIP3   OH218405   4.140   4.567   6.070 -0.5600 -0.0357 -1.1739
 6151TIP3    H118406   4.063   4.569   6.013 -1.3918 -3.5486 -0.3114
 6151TIP3    H218407   4.145   4.655   6.107 -3.7912  0.4413 -1.6987
 6152TIP3   OH218408   6.231   1.902   1.745 -0.5670 -0.3411 -0.2474
 6152TIP3    H118409   6.191   1.980   1.783 -0.5674 -0.1689 -0.5932
 6152TIP3    H218410   6.223   1.915   1.650  0.5405 -0.1770 -0.3292
 6153TIP3   OH218411   5.654   2.086   5.291 -0.0654 -0.2867 -0.0509
 6153TIP3    H118412   5.719   2.081   5.221  0.0011 -0.6089  0.0364
 6153TIP3    H218413   5.579   2.129   5.250  0.2616  0.2347 -0.1075
 6154TIP3   OH218414   7.680   2.596   4.251 -0.5311 -0.0303 -0.1533
 6154TIP3    H118415   7.638   2.663   4.305  0.4794 -0.4876  1.2225
 6154TIP3    H218416   7.632   2.516   4.272  0.0051 -0.2506  0.2437
 6155TIP3   OH218417   5.518   4.853   5.936  0.1771 -0.2368 -0.1259
 6155TIP3    H118418   5.590   4.830   5.878  0.1789 -1.1164  0.2175
 6155TIP3    H218419   5.440   4.821   5.891  0.0545  0.2127 -0.2351
 6156TIP3   OH218420   5.466   1.180   4.124  0.4309 -0.1462  0.0162
 6156TIP3    H118421   5.521   1.105   4.098 -0.4812 -0.7989 -0.0695
 6156TIP3    H218422   5.388   1.140   4.163 -0.4704  0.7416 -0.8436
 6157TIP3   OH218423   4.658   3.802   5.710 -0.0940  0.5510  0.2031
 6157TIP3    H118424   4.661   3.893   5.680 -0.2783  0.2975 -0.6233
 6157TIP3    H218425   4.733   3.793   5.768 -0.3539  1.3592  0.6760
 6158TIP3   OH218426   1.003   6.512   1.040 -0.2408  0.2205 -0.2901
 6158TIP3    H118427   0.982   6.588   1.095 -1.0878 -0.7928  0.8023
 6158TIP3    H218428   1.062   6.459   1.093  0.4467  0.1592 -1.0980
 6159TIP3   OH218429   0.360   3.538   3.419 -0.3159 -0.4504 -0.8366
 6159TIP3    H118430   0.397   3.620   3.452  0.3474 -0.6003 -1.1803
 6159TIP3    H218431   0.266   3.551   3.419 -0.1755  0.6024 -1.6476
 6160TIP3   OH218432   3.814   1.407   4.441  0.0957 -0.2855  0.4618
 6160TIP3    H118433   3.827   1.488   4.490 -0.8478  0.5939 -0.7117
 6160TIP3    H218434   3.878   1.346   4.478  1.0252  1.0893  1.1518
 6161TIP3   OH218435   1.866   6.993   4.574 -0.7049  0.0279  0.1272
 6161TIP3    H118436   1.914   7.076   4.566 -0.3744 -0.2889 -1.3503
 6161TIP3    H218437   1.838   6.990   4.666 -0.6938  1.7590  0.2074
 6162TIP3   OH218438   6.469   1.941   3.429  0.4022 -0.4335  0.2201
 6162TIP3    H118439   6.506   1.918   3.343  1.2333 -3.0379  1.2364
 6162TIP3    H218440   6.415   1.866   3.453  0.0426  0.3479  1.8971
 6163TIP3   OH218441   5.590   2.341   2.318  0.0085  0.3975 -0.6532
 6163TIP3    H118442   5.495   2.334   2.306 -0.2134  1.5403  0.3074
 6163TIP3    H218443   5.601   2.413   2.380  1.1900 -2.9806  3.3760
 6164TIP3   OH218444   6.390   3.631   2.821 -0.2393 -0.1449 -0.4084
 6164TIP3    H118445   6.363   3.703   2.878  0.0186  1.3249 -2.0672
 6164TIP3    H218446   6.345   3.554   2.855 -1.7092  1.0991  0.5082
 6165TIP3   OH218447   3.624   2.975   4.878 -0.2408  1.0394 -0.3342
 6165TIP3    H118448   3.709   2.950   4.915 -1.6055  0.3829  2.4938
 6165TIP3    H218449   3.597   2.899   4.826  1.1815  1.5183 -1.8116
 6166TIP3   OH218450   4.877   2.529   4.892 -0.4433  1.0006 -0.0134
 6166TIP3    H118451   4.843   2.446   4.925  0.8352  0.5145  0.1333
 6166TIP3    H218452   4.898   2.580   4.971 -3.5935  2.5067 -0.0774
 6167TIP3   OH218453   0.116   0.860   1.021 -0.4798  0.0851  0.0162
 6167TIP3    H118454   0.173   0.806   1.076 -2.3223 -1.0036  0.9067
 6167TIP3    H218455   0.165   0.870   0.939  1.3915 -0.0188  1.1054
 6168TIP3   OH218456   2.419   1.862   6.143 -0.1426  0.2111  0.4643
 6168TIP3    H118457   2.407   1.844   6.237 -2.7573 -0.5309  0.0469
 6168TIP3    H218458   2.411   1.776   6.102 -0.4176  0.7163 -0.5409
 6169TIP3   OH218459   4.105   4.611   4.414 -0.6273 -0.7051  0.4157
 6169TIP3    H118460   4.174   4.618   4.348  0.7986 -3.7758  1.4987
 6169TIP3    H218461   4.115   4.691   4.467  1.7557 -0.8348  0.2116
 6170TIP3   OH218462   3.783   3.211   5.484 -0.0118 -0.0741 -0.3659
 6170TIP3    H118463   3.698   3.229   5.443 -0.2480 -1.3468 -0.4404
 6170TIP3    H218464   3.789   3.116   5.487 -0.6262 -0.0599  3.8266
 6171TIP3   OH218465   3.260   5.929   6.025  0.4306  0.5849  0.4692
 6171TIP3    H118466   3.225   5.878   5.952 -1.4280  0.3597  1.4771
 6171TIP3    H218467   3.232   5.881   6.103 -0.8809  2.8313  1.4288
 6172TIP3   OH218468   2.025   2.630   4.137  0.0357  0.0263  0.0076
 6172TIP3    H118469   2.097   2.692   4.131 -0.0409  0.0907 -0.2471
 6172TIP3    H218470   1.954   2.680   4.178  0.4424 -0.3120  1.1627
 6173TIP3   OH218471   5.917   5.528   0.845  0.4684  0.1496  0.5063
 6173TIP3    H118472   5.845   5.495   0.792  0.9905 -1.3075  0.6890
 6173TIP3    H218473   5.988   5.465   0.831  0.9708  0.3400  2.0948
 6174TIP3   OH218474   4.639   3.968   5.322 -0.4190 -0.4198 -0.0452
 6174TIP3    H118475   4.596   4.053   5.313  1.8568  0.7190 -0.6422
 6174TIP3    H218476   4.643   3.933   5.233 -2.3142 -1.6737  0.3403
 6175TIP3   OH218477   6.145   2.744   5.538  0.0356  0.4003  0.1773
 6175TIP3    H118478   6.186   2.693   5.608 -0.7490  0.2590  0.5385
 6175TIP3    H218479   6.214   2.804   5.509  1.0893 -1.0820 -0.4813
 6176TIP3   OH218480   3.880   6.360   4.494  0.0987  0.5046 -0.6530
 6176TIP3    H118481   3.837   6.357   4.408 -0.9393  0.1326 -0.1333
 6176TIP3    H218482   3.860   6.447   4.528 -0.3308  0.3014 -0.3749
 6177TIP3   OH218483   2.889   3.796   5.580 -0.1233  0.3166  0.2050
 6177TIP3    H118484   2.971   3.767   5.619  1.0949  2.1257 -0.9248
 6177TIP3    H218485   2.862   3.724   5.524  1.0364 -0.0458  0.1018
 6178TIP3   OH218486   2.700   2.755   5.845 -0.7557  0.3794 -0.2297
 6178TIP3    H118487   2.744   2.836   5.869  0.0114 -0.0560 -0.1504
 6178TIP3    H218488   2.701   2.703   5.925 -2.4494  0.8287  0.0902
 6179TIP3   OH218489   3.752   3.944   4.943  0.2995 -0.2509 -0.1500
 6179TIP3    H118490   3.741   3.863   4.992  2.8353 -0.2372  0.5335
 6179TIP3    H218491   3.787   3.916   4.858 -0.0442  0.0296 -0.3844
 6180TIP3   OH218492   3.144   3.166   1.746 -0.7929  0.0596  0.3839
 6180TIP3    H118493   3.123   3.099   1.811  1.4653  1.8109  3.0022
 6180TIP3    H218494   3.167   3.116   1.668 -3.2451 -2.0930  0.9445
 6181TIP3   OH218495   6.925   2.863   2.631 -0.0460  0.1378 -0.4841
 6181TIP3    H118496   6.969   2.947   2.615 -0.4979  0.2938 -0.9357
 6181TIP3    H218497   6.995   2.804   2.658  0.3836  0.4779 -0.8375
 6182TIP3   OH218498   3.896   1.857   5.347  0.1818 -0.2815  0.2752
 6182TIP3    H118499   3.808   1.889   5.366  0.4246  1.8411 -2.0236
 6182TIP3    H218500   3.949   1.936   5.337  1.7841 -1.4786 -0.9885
 6183TIP3   OH218501   6.526   3.715   3.195  0.1569 -0.0075 -0.6536
 6183TIP3    H118502   6.487   3.637   3.235 -1.5976  1.7751  1.2418
 6183TIP3    H218503   6.597   3.739   3.255 -0.3422  0.7680 -0.3665
 6184TIP3   OH218504   5.665   2.609   4.632  0.6304  0.3904  0.7404
 6184TIP3    H118505   5.613   2.657   4.696  1.9061  0.4830  1.7285
 6184TIP3    H218506   5.718   2.549   4.684  2.2472  0.9950 -0.1738
 6185TIP3   OH218507   7.415   3.042   5.433  0.0816  0.2125  0.1547
 6185TIP3    H118508   7.405   3.095   5.512  1.2107  0.2234  0.2970
 6185TIP3    H218509   7.383   2.955   5.458 -2.0545  0.8806 -0.1692
 6186TIP3   OH218510   6.771   3.296   2.430 -0.9028 -0.2232  0.6409
 6186TIP3    H118511   6.678   3.312   2.450 -0.6504  2.2458 -0.1128
 6186TIP3    H218512   6.775   3.294   2.335  0.0193  1.0003  0.6435
 6187TIP3   OH218513   5.002   4.197   2.726 -0.4581 -0.2011  0.3028
 6187TIP3    H118514   5.053   4.251   2.787 -0.2562  2.0658 -1.7710
 6187TIP3    H218515   4.915   4.237   2.725 -0.3953 -0.0715 -1.0447
 6188TIP3   OH218516   5.173   3.052   4.729  0.3566 -0.0033 -0.2256
 6188TIP3    H118517   5.155   2.964   4.761 -0.3767  0.4866  0.7561
 6188TIP3    H218518   5.268   3.054   4.714  0.3288 -1.0419 -0.5379
 6189TIP3   OH218519   5.319   1.786   3.352 -0.5782  0.0076  0.3281
 6189TIP3    H118520   5.347   1.780   3.444  0.4394  0.6001  0.0760
 6189TIP3    H218521   5.286   1.875   3.344 -0.2243  0.1115  0.0097
 6190TIP3   OH218522   6.693   2.808   3.819 -0.0539 -0.5292  0.0843
 6190TIP3    H118523   6.786   2.831   3.814  0.1432 -1.1411  1.0043
 6190TIP3    H218524   6.655   2.876   3.874 -0.2991  0.1340 -0.8746
 6191TIP3   OH218525   5.755   3.115   4.731 -0.6053 -0.2003 -0.4827
 6191TIP3    H118526   5.799   3.034   4.707  2.4434  1.5492 -1.0413
 6191TIP3    H218527   5.711   3.143   4.651  0.0124 -0.2590 -0.8420
 6192TIP3   OH218528   4.579   2.959   4.469  0.0386  0.0746 -0.2542
 6192TIP3    H118529   4.511   2.916   4.417  0.5097 -0.5672 -0.3400
 6192TIP3    H218530   4.639   2.995   4.403 -0.4371  1.0290 -0.1911
 6193TIP3   OH218531   2.246   3.707   5.348 -0.9053  0.1164  0.1421
 6193TIP3    H118532   2.210   3.619   5.361  0.9028 -0.4372  1.5330
 6193TIP3    H218533   2.298   3.699   5.268  0.4635 -0.4792  1.0779
 6194TIP3   OH218534   7.052   0.519   3.301 -0.7163 -0.3634  0.5565
 6194TIP3    H118535   7.105   0.503   3.379  1.6989  0.2371 -0.9214
 6194TIP3    H218536   7.019   0.432   3.276  1.0982 -1.0428  0.4437
 6195TIP3   OH218537   5.551   3.503   3.028 -0.2519 -0.1339 -0.4873
 6195TIP3    H118538   5.497   3.424   3.019 -0.4082 -0.2901  1.6556
 6195TIP3    H218539   5.488   3.575   3.031 -0.2398 -0.1517  0.1551
 6196TIP3   OH218540   5.710   1.563   2.306  0.1271 -0.3113  0.1548
 6196TIP3    H118541   5.757   1.513   2.373  0.4360  0.0043  0.1719
 6196TIP3    H218542   5.778   1.605   2.255 -0.1319  0.0015  0.0686
 6197TIP3   OH218543   6.605   4.585   6.251  0.1786  0.2103 -0.0423
 6197TIP3    H118544   6.570   4.562   6.337 -2.1102 -0.4691 -1.1080
 6197TIP3    H218545   6.619   4.502   6.207  0.5954  0.5710 -0.5963
 6198TIP3   OH218546   3.658   2.810   4.451  0.7568 -0.1911  0.0945
 6198TIP3    H118547   3.696   2.722   4.460  1.8539  0.0638 -1.7635
 6198TIP3    H218548   3.594   2.801   4.381  0.0329  0.2238  0.7067
 6199TIP3   OH218549   6.963   4.000   4.506 -0.6430 -0.2012  0.3985
 6199TIP3    H118550   6.901   4.005   4.433 -0.2164  1.3634  0.1409
 6199TIP3    H218551   6.920   3.941   4.569 -1.9333  0.0594 -0.2122
 6200TIP3   OH218552   6.122   2.302   5.102 -0.3401  0.3349 -0.4107
 6200TIP3    H118553   6.107   2.289   5.008 -1.9827 -1.4541  0.0542
 6200TIP3    H218554   6.191   2.239   5.123 -1.7393 -1.0656  0.0486
 6201TIP3   OH218555   5.762   2.058   4.384 -0.0817 -0.2200 -0.4787
 6201TIP3    H118556   5.772   2.063   4.289  3.3163  1.8073 -0.1049
 6201TIP3    H218557   5.810   2.134   4.417 -0.1095 -1.5965  2.9402
 6202TIP3   OH218558   6.596   6.170   3.902  0.4923 -0.5381  0.1246
 6202TIP3    H118559   6.592   6.218   3.985  0.8330 -0.5365  0.1413
 6202TIP3    H218560   6.668   6.211   3.854  1.0061 -1.2369  0.2779
 6203TIP3   OH218561   7.611   2.779   4.454 -0.4400  0.2022  0.1839
 6203TIP3    H118562   7.633   2.794   4.546  0.8540  2.6002 -0.4920
 6203TIP3    H218563   7.528   2.824   4.441 -1.8052 -2.0543  0.6952
 6204TIP3   OH218564   7.645   4.332   0.826 -0.2455 -0.1818 -0.6978
 6204TIP3    H118565   7.642   4.377   0.911 -0.5412 -1.7294  0.1255
 6204TIP3    H218566   7.688   4.395   0.768 -1.9327  1.7459  0.0604
 6205TIP3   OH218567   2.373   3.591   3.324 -0.1695  0.2581  0.5300
 6205TIP3    H118568   2.461   3.555   3.319 -0.5869 -0.9066  1.3402
 6205TIP3    H218569   2.382   3.670   3.377  0.9876  2.1681 -2.3709
 6206TIP3   OH218570   7.634   1.610   3.032 -0.0124 -0.3176  0.4301
 6206TIP3    H118571   7.609   1.572   3.116 -0.0743  0.3318  0.7138
 6206TIP3    H218572   7.562   1.671   3.012  0.1889 -0.1913  0.0944
 6207TIP3   OH218573   4.631   2.639   4.827  0.0134  0.9795 -0.5301
 6207TIP3    H118574   4.700   2.698   4.800 -0.0502  1.1326 -0.3621
 6207TIP3    H218575   4.602   2.597   4.746 -1.0706  2.3837 -0.8965
 6208TIP3   OH218576   7.760   2.957   3.193 -0.6145 -0.6122 -0.3122
 6208TIP3    H118577   7.680   3.008   3.207 -0.0826  0.4027 -0.9446
 6208TIP3    H218578   7.734   2.867   3.215 -1.8228 -0.2381 -0.1341
 6209TIP3   OH218579   5.732   3.084   5.388  0.1287  0.2463 -0.3183
 6209TIP3    H118580   5.735   3.134   5.306  0.6061 -0.0705 -0.4974
 6209TIP3    H218581   5.669   3.014   5.371  1.5960 -0.9146 -1.0470
 6210TIP3   OH218582   4.492   2.377   3.755 -0.3703  0.2440  0.0990
 6210TIP3    H118583   4.429   2.444   3.728  0.5854  1.1141 -0.0206
 6210TIP3    H218584   4.443   2.322   3.816 -1.0520  1.3385  0.5736
 6211TIP3   OH218585   7.217   3.041   4.590  0.4273  0.6331 -0.4120
 6211TIP3    H118586   7.162   2.967   4.615  0.3261  0.7814 -0.1901
 6211TIP3    H218587   7.244   3.022   4.500 -1.7058  1.5774 -1.2825
 6212TIP3   OH218588   4.879   5.944   4.904 -0.0144  0.0603 -0.1229
 6212TIP3    H118589   4.864   5.857   4.940  1.8328 -0.6385 -0.9765
 6212TIP3    H218590   4.805   5.960   4.845 -1.0300 -0.3798  1.0317
 6213TIP3   OH218591   5.943   3.336   2.672 -0.2086  0.4501  0.3576
 6213TIP3    H118592   6.019   3.344   2.730 -0.5540 -0.3281  0.9170
 6213TIP3    H218593   5.868   3.338   2.731 -0.6116  0.7490 -0.1607
 6214TIP3   OH218594   5.420   5.342   4.946 -0.0274  0.2709  0.5291
 6214TIP3    H118595   5.488   5.408   4.931  0.7389 -0.7997 -0.8188
 6214TIP3    H218596   5.438   5.310   5.034  1.2395 -0.0160  0.1761
 6215TIP3   OH218597   7.739   1.829   4.424  0.4841 -0.2604  0.1917
 6215TIP3    H118598   7.657   1.879   4.430  0.3389 -0.4921  0.1370
 6215TIP3    H218599   7.807   1.896   4.423  0.2197 -0.0061 -1.3667
 6216TIP3   OH218600   5.585   2.048   2.789 -0.3834  0.7543  0.0166
 6216TIP3    H118601   5.505   1.997   2.772  1.1636 -1.5905 -0.5432
 6216TIP3    H218602   5.631   2.050   2.705  1.6489 -0.7143  1.0386
 6217TIP3   OH218603   4.457   3.736   5.893  1.0743  0.2575 -0.2268
 6217TIP3    H118604   4.390   3.760   5.830  0.6137 -0.9988 -0.2223
 6217TIP3    H218605   4.539   3.760   5.851  0.7382 -0.0688 -1.0710
 6218TIP3   OH218606   5.949   3.139   5.567  0.5816  1.1337  0.2746
 6218TIP3    H118607   5.864   3.110   5.535  1.1819  0.7717 -1.0144
 6218TIP3    H218608   5.961   3.091   5.649  0.6559 -0.7305 -0.8041
 6219TIP3   OH218609   6.299   4.933   2.877 -0.0565 -0.2767  0.0530
 6219TIP3    H118610   6.224   4.991   2.863  1.5756  1.5942 -1.1938
 6219TIP3    H218611   6.371   4.992   2.897  1.1663 -2.0391  0.9309
 6220TIP3   OH218612   1.214   3.878   4.418  0.6324  0.0175  0.1105
 6220TIP3    H118613   1.123   3.900   4.399  0.0795 -2.0084  0.3931
 6220TIP3    H218614   1.251   3.959   4.454 -0.1264  1.8917 -3.1149
 6221TIP3   OH218615   6.731   3.944   3.687 -0.4803  0.2938  0.7640
 6221TIP3    H118616   6.778   3.897   3.618 -0.2949 -0.4210  1.3734
 6221TIP3    H218617   6.640   3.945   3.657 -0.4403 -0.2219  0.6175
 6222TIP3   OH218618   0.325   4.068   4.296  0.0544  0.4651  0.2388
 6222TIP3    H118619   0.254   4.081   4.359 -0.3111  2.4388 -0.5258
 6222TIP3    H218620   0.350   4.157   4.270  0.9768 -0.2832 -1.5216
 6223TIP3   OH218621   6.318   2.693   4.514 -0.2544  0.2067  0.5618
 6223TIP3    H118622   6.253   2.762   4.525 -1.3189 -0.8758  1.1514
 6223TIP3    H218623   6.374   2.699   4.592  0.4979  1.2774 -0.0529
 6224TIP3   OH218624   1.570   4.246   4.180  0.4652  0.3846 -0.4671
 6224TIP3    H118625   1.572   4.342   4.179  0.0707  0.4148  0.5071
 6224TIP3    H218626   1.636   4.221   4.244  2.6995 -0.1146 -2.8752
 6225TIP3   OH218627   5.697   1.685   2.635  0.2415 -0.0245 -0.0882
 6225TIP3    H118628   5.791   1.672   2.621 -0.2070 -1.5627 -1.7203
 6225TIP3    H218629   5.664   1.712   2.550 -1.1444 -1.4997 -0.0269
 6226TIP3   OH218630   7.698   2.680   3.588  0.1554 -0.0756 -0.5449
 6226TIP3    H118631   7.742   2.611   3.636 -1.1108 -0.3116  0.3129
 6226TIP3    H218632   7.651   2.635   3.518 -1.8480 -0.2923  0.8821
 6227TIP3   OH218633   1.713   3.161   5.069  0.4614 -0.0121 -0.6969
 6227TIP3    H118634   1.752   3.080   5.101  0.4175 -1.0020 -3.0991
 6227TIP3    H218635   1.619   3.145   5.071  0.4564 -0.0562 -1.2539
 6228TIP3   OH218636   0.164   3.890   4.145  0.1489 -0.4557  0.0981
 6228TIP3    H118637   0.183   3.821   4.208  2.5897 -0.5632 -0.7101
 6228TIP3    H218638   0.199   3.970   4.186  0.0093 -0.1921 -0.2937
 6229TIP3   OH218639   0.684   3.671   4.035  0.3401  0.4050 -0.0005
 6229TIP3    H118640   0.622   3.740   4.058 -1.5264 -0.6275 -1.7406
 6229TIP3    H218641   0.764   3.717   4.010 -0.7523  1.9358 -0.7407
 6230TIP3   OH218642   7.360   2.883   4.408 -0.1936 -0.0528  0.2605
 6230TIP3    H118643   7.374   2.896   4.314  0.9951 -0.2242  0.4127
 6230TIP3    H218644   7.310   2.801   4.413 -1.2049  0.5180 -0.2719
 6231TIP3   OH218645   4.385   2.813   4.340  0.0115 -0.0730 -0.0384
 6231TIP3    H118646   4.313   2.871   4.313  1.1835  0.2988 -2.4943
 6231TIP3    H218647   4.342   2.731   4.365 -1.5869  1.4426  2.4438
 6232TIP3   OH218648   5.804   3.477   5.117  0.1944 -0.8306 -0.0652
 6232TIP3    H118649   5.832   3.560   5.155 -1.0217 -0.2998 -0.3012
 6232TIP3    H218650   5.886   3.431   5.097  0.8869  0.5799 -0.5443
 6233TIP3   OH218651   0.476   5.005   3.811 -0.3830  0.0400  0.3424
 6233TIP3    H118652   0.508   5.066   3.877 -0.0406  0.7678 -0.4832
 6233TIP3    H218653   0.551   4.991   3.753 -0.1242 -2.0468  1.1575
 6234TIP3   OH218654   1.113   6.767   0.651  0.1839  0.5543  0.1943
 6234TIP3    H118655   1.081   6.851   0.683 -1.4582  0.6571 -1.6341
 6234TIP3    H218656   1.102   6.771   0.556  0.1689 -1.6833  0.0612
 6235TIP3   OH218657   6.695   3.217   0.922 -0.6385 -0.4683  0.8262
 6235TIP3    H118658   6.641   3.292   0.947 -0.5574 -0.2348  0.3120
 6235TIP3    H218659   6.777   3.229   0.971 -0.1108  0.5027 -0.2815
 6236TIP3   OH218660   4.844   5.307   5.528  0.0259  0.4079 -0.2624
 6236TIP3    H118661   4.939   5.313   5.541  0.3929 -0.0390 -2.5811
 6236TIP3    H218662   4.809   5.381   5.578  1.3846 -0.6515  2.3669
 6237TIP3   OH218663   3.018   5.027   0.793  0.0543 -0.3301 -0.3208
 6237TIP3    H118664   3.047   5.024   0.884  2.6865 -0.4124 -1.1219
 6237TIP3    H218665   2.968   4.946   0.781 -0.8055 -0.0485  1.1664
 6238TIP3   OH218666   5.404   4.322   2.902  0.0904  0.0182 -0.1951
 6238TIP3    H118667   5.466   4.387   2.936 -0.0737  0.5142 -0.8302
 6238TIP3    H218668   5.367   4.363   2.824  0.8958 -1.3386 -1.3173
 6239TIP3   OH218669   0.610   1.152   1.376 -0.1668  0.2586  0.0414
 6239TIP3    H118670   0.620   1.231   1.322 -0.6063 -0.0930 -0.5549
 6239TIP3    H218671   0.680   1.094   1.346 -0.2924  0.1386 -0.0206
 6240TIP3   OH218672   6.557   3.771   4.568 -0.9065  0.3388  0.5131
 6240TIP3    H118673   6.627   3.737   4.623 -0.4115  0.7852  0.1686
 6240TIP3    H218674   6.554   3.711   4.494  0.8592  1.7533 -0.7562
 6241TIP3   OH218675   7.046   2.869   3.402 -0.6023  0.7853  0.5752
 6241TIP3    H118676   6.973   2.824   3.359  0.6314  0.3140 -1.0425
 6241TIP3    H218677   7.072   2.809   3.473  0.8525 -0.9737 -1.3870
 6242TIP3   OH218678   4.205   2.291   3.629 -0.4186  0.0991  0.6829
 6242TIP3    H118679   4.191   2.382   3.655 -0.2769  0.9711 -2.1332
 6242TIP3    H218680   4.117   2.259   3.611 -0.4476 -0.2732  1.4717
 6243TIP3   OH218681   5.876   3.927   3.955  0.0060  0.0013 -0.0109
 6243TIP3    H118682   5.886   3.836   3.925  1.5723  0.1188  0.0980
 6243TIP3    H218683   5.794   3.927   4.004 -0.5094 -1.1273 -0.8382
 6244TIP3   OH218684   6.754   4.236   3.740 -0.1292  0.3322  0.0247
 6244TIP3    H118685   6.816   4.261   3.809  0.6551 -1.0772 -0.1605
 6244TIP3    H218686   6.763   4.141   3.732 -0.6144  0.3995 -1.6227
 6245TIP3   OH218687   6.266   3.679   3.600 -0.3167  0.8664  0.2941
 6245TIP3    H118688   6.341   3.631   3.635 -0.3424  0.9824  0.5120
 6245TIP3    H218689   6.297   3.770   3.594 -0.0131  0.6901 -0.8490
 6246TIP3   OH218690   7.414   4.159   2.844  0.2275  0.1072 -0.3541
 6246TIP3    H118691   7.367   4.148   2.762 -0.0622  0.0539 -0.1823
 6246TIP3    H218692   7.359   4.116   2.910 -1.1011  2.7876  0.3780
 6247TIP3   OH218693   5.107   4.170   3.905 -0.2629 -0.4126  0.1304
 6247TIP3    H118694   5.038   4.115   3.869 -0.6951  0.0396  0.2628
 6247TIP3    H218695   5.134   4.226   3.833 -0.8287  0.1956  0.3870
 6248TIP3   OH218696   5.398   4.487   2.673  0.1701 -0.1732  0.2695
 6248TIP3    H118697   5.436   4.456   2.591  1.2055  2.9369 -0.4899
 6248TIP3    H218698   5.438   4.573   2.688 -2.2351  0.6493  2.4714
 6249TIP3   OH218699   7.374   2.647   1.067  0.1261  0.1347  0.0313
 6249TIP3    H118700   7.406   2.710   1.002  1.9397 -1.8935 -1.1224
 6249TIP3    H218701   7.411   2.563   1.038 -1.0664 -1.2112  2.3273
 6250TIP3   OH218702   0.833   6.460  -0.009 -0.2262 -0.0824  0.7258
 6250TIP3    H118703   0.833   6.453   0.086 -2.0342 -0.8129  0.7080
 6250TIP3    H218704   0.778   6.386  -0.038 -0.0445  0.3788 -0.8520
 6251TIP3   OH218705   5.658   4.202   6.046  0.3329  0.3100  0.1555
 6251TIP3    H118706   5.588   4.267   6.050 -0.2902 -0.2959 -0.6834
 6251TIP3    H218707   5.615   4.120   6.070  0.5471 -0.2281 -1.2548
 6252TIP3   OH218708   5.093   3.744   3.236 -0.2136 -0.7092  0.2547
 6252TIP3    H118709   5.052   3.703   3.160  1.1540  0.0210 -0.9131
 6252TIP3    H218710   5.184   3.714   3.233  0.6615  1.8202 -0.2593
 6253TIP3   OH218711   5.460   4.083   5.285  0.9282  0.1638  0.0845
 6253TIP3    H118712   5.365   4.083   5.272  1.1487  2.5410 -1.8574
 6253TIP3    H218713   5.475   4.017   5.353 -1.8154 -2.2545 -1.5336
 6254TIP3   OH218714   0.174   3.497   4.764 -0.3494  0.5207 -0.0479
 6254TIP3    H118715   0.223   3.569   4.804  1.8910 -0.8181 -0.3355
 6254TIP3    H218716   0.132   3.453   4.838 -1.5545  1.9668  0.1521
 6255TIP3   OH218717   7.673   3.803   5.170 -0.1323 -0.6391  0.1399
 6255TIP3    H118718   7.656   3.891   5.138 -1.2927 -1.0030 -0.2844
 6255TIP3    H218719   7.638   3.801   5.259 -2.3264 -1.3595 -0.6990
 6256TIP3   OH218720   5.886   4.085   5.858 -0.2395  0.1136  0.9897
 6256TIP3    H118721   5.872   4.146   5.931 -0.8644  0.9189  0.2054
 6256TIP3    H218722   5.932   4.137   5.792  0.1276 -0.5568  0.7096
 6257TIP3   OH218723   4.252   7.414   1.933  0.2830  0.2961  0.6679
 6257TIP3    H118724   4.347   7.422   1.938  0.1603  0.9081  2.3094
 6257TIP3    H218725   4.224   7.495   1.890  0.6612 -0.9814 -2.1069
 6258TIP3   OH218726   5.230   5.353   3.002  0.0017  0.1986 -0.3291
 6258TIP3    H118727   5.143   5.333   3.036 -0.1773  0.1756 -0.8049
 6258TIP3    H218728   5.269   5.410   3.069 -0.9382  1.4353 -0.8318
 6259TIP3   OH218729   1.129   4.889   0.321 -0.2536 -0.2017 -0.1042
 6259TIP3    H118730   1.103   4.917   0.409 -0.1108 -0.4229  0.0095
 6259TIP3    H218731   1.072   4.938   0.262 -0.5256 -0.2462  0.1224
 6260TIP3   OH218732   7.037   1.596   3.603 -0.2551 -0.6456 -0.5586
 6260TIP3    H118733   7.059   1.530   3.669 -0.7961 -1.2688 -1.0003
 6260TIP3    H218734   7.021   1.675   3.654  1.3160 -0.6105 -0.1046
 6261TIP3   OH218735   0.302   5.444   0.784 -0.1372  0.1054  0.0615
 6261TIP3    H118736   0.329   5.414   0.871  0.8121 -1.2361 -0.6823
 6261TIP3    H218737   0.215   5.480   0.798  0.5500  1.1621  1.8254
 6262TIP3   OH218738   6.385   4.219   2.649 -0.0428 -0.0942  0.2313
 6262TIP3    H118739   6.433   4.184   2.573 -0.5308 -0.3582  0.0436
 6262TIP3    H218740   6.424   4.175   2.724 -1.3677 -1.8608 -0.0872
 6263TIP3   OH218741   5.776   3.912   5.041 -0.0803 -0.0232 -0.8661
 6263TIP3    H118742   5.781   3.945   4.951  1.4317 -0.1818 -0.8623
 6263TIP3    H218743   5.822   3.978   5.093  2.0781 -1.5655 -0.7124
 6264TIP3   OH218744   5.833   3.208   4.087 -0.5026  0.2727  0.0697
 6264TIP3    H118745   5.920   3.221   4.126 -0.4328 -1.4551  0.5463
 6264TIP3    H218746   5.774   3.257   4.144  0.1197  1.2514 -0.1112
 6265TIP3   OH218747   0.218   3.303   5.381  0.1614  0.4494  0.1138
 6265TIP3    H118748   0.174   3.374   5.427 -0.6928 -0.3717  0.6006
 6265TIP3    H218749   0.149   3.240   5.363 -0.0372  1.9386 -4.7990
 6266TIP3   OH218750   6.803   3.251   4.947 -0.5027  0.1417 -0.6178
 6266TIP3    H118751   6.863   3.231   4.875  0.6109 -0.0599  0.3455
 6266TIP3    H218752   6.757   3.169   4.964  0.7932 -0.4149  0.3146
 6267TIP3   OH218753   0.494   1.061   3.565 -0.5669 -0.2253 -0.1654
 6267TIP3    H118754   0.526   1.149   3.543 -0.1103 -0.6186 -1.1080
 6267TIP3    H218755   0.557   1.002   3.523 -1.1777 -1.0028  0.0069
 6268TIP3   OH218756   7.128   2.358   3.728 -0.1291  0.4753 -0.1746
 6268TIP3    H118757   7.110   2.269   3.759 -0.5689  0.2051 -1.2004
 6268TIP3    H218758   7.191   2.393   3.791  0.3703 -0.7140 -0.0096
 6269TIP3   OH218759   6.664   0.419   3.398 -0.2392  0.1196 -0.3184
 6269TIP3    H118760   6.598   0.474   3.356  1.3103  0.9688 -1.6827
 6269TIP3    H218761   6.741   0.475   3.404 -0.1929 -0.1820  3.1051
 6270TIP3   OH218762   5.102   3.522   3.717 -0.1285 -0.3109  0.1985
 6270TIP3    H118763   5.138   3.485   3.636 -0.8381 -0.7800  0.0900
 6270TIP3    H218764   5.008   3.532   3.698  0.1076  1.8396  0.1155
 6271TIP3   OH218765   6.465   4.899   4.666  0.6271 -0.0783  0.1072
 6271TIP3    H118766   6.403   4.899   4.593 -0.5079  1.6686  1.0320
 6271TIP3    H218767   6.418   4.857   4.738  0.2077  1.9757  1.0514
 6272TIP3   OH218768   6.031   2.221   6.084 -0.1608 -0.0818  0.0297
 6272TIP3    H118769   5.994   2.157   6.023 -2.4602 -1.3451  2.6453
 6272TIP3    H218770   6.085   2.168   6.143  0.0093  0.7941  0.6623
 6273TIP3   OH218771   6.812   6.091   4.064  0.2292  0.0191  0.1841
 6273TIP3    H118772   6.887   6.141   4.033  0.4250  0.0989  0.7718
 6273TIP3    H218773   6.738   6.151   4.058  0.6692  0.7604  1.9733
 6274TIP3   OH218774   6.376   2.230   4.349  0.3704 -0.0171 -0.4310
 6274TIP3    H118775   6.370   2.162   4.282  1.5946 -0.9065  0.3504
 6274TIP3    H218776   6.469   2.251   4.355  0.1079  1.0923 -0.0351
 6275TIP3   OH218777   5.163   3.110   5.421 -0.1873  0.4596 -0.1556
 6275TIP3    H118778   5.168   3.182   5.358 -1.7037 -0.8644 -1.8748
 6275TIP3    H218779   5.183   3.032   5.369 -0.9310 -0.6189  1.1447
 6276TIP3   OH218780   5.851   5.592   5.626  0.3751 -0.8795  0.1827
 6276TIP3    H118781   5.849   5.525   5.558  1.1138 -2.3467  1.5649
 6276TIP3    H218782   5.941   5.589   5.659  0.6307  1.3646 -0.2920
 6277TIP3   OH218783   6.240   3.472   4.725  0.1390  0.0089  0.1714
 6277TIP3    H118784   6.220   3.553   4.772 -0.4115 -1.1196  1.9033
 6277TIP3    H218785   6.158   3.446   4.685 -0.0040 -0.4198  0.7441
 6278TIP3   OH218786   2.243   2.608   3.328 -0.4524 -0.4264 -0.6014
 6278TIP3    H118787   2.233   2.689   3.278  1.0061 -0.3167 -0.7368
 6278TIP3    H218788   2.320   2.623   3.384 -0.3435 -1.5979 -0.4180
 6279TIP3   OH218789   0.145   7.017   0.775 -0.2527  0.0569 -0.2457
 6279TIP3    H118790   0.094   7.099   0.777  0.6109  0.5971 -0.2848
 6279TIP3    H218791   0.228   7.041   0.734  0.2473 -0.7039  0.3109
 6280TIP3   OH218792   6.343   2.337   2.226 -0.1834 -0.2076 -0.2069
 6280TIP3    H118793   6.315   2.245   2.222  0.2969 -0.3554 -0.2241
 6280TIP3    H218794   6.418   2.337   2.284 -0.3204  0.2148 -0.0286
 6281TIP3   OH218795   7.623   3.262   3.047 -0.4048 -0.4368  0.0449
 6281TIP3    H118796   7.564   3.271   2.973  0.5460  0.3559 -0.6367
 6281TIP3    H218797   7.576   3.206   3.109 -1.9285  0.3163 -0.4000
 6282TIP3   OH218798   0.697   3.335   2.386  0.6047 -0.9545  0.3099
 6282TIP3    H118799   0.746   3.324   2.305  1.9615 -0.4178  1.0458
 6282TIP3    H218800   0.724   3.261   2.441  0.2105 -0.9310  0.5394
 6283TIP3   OH218801   5.070   4.143   5.949  0.0346  0.0223  0.4057
 6283TIP3    H118802   5.146   4.090   5.926  1.6350  1.9952  1.0379
 6283TIP3    H218803   5.095   4.233   5.928 -1.7856  0.8184  1.4417
 6284TIP3   OH218804   7.212   3.308   5.917 -0.6274  0.8251 -0.8071
 6284TIP3    H118805   7.222   3.392   5.962  0.4336  0.1419  0.2749
 6284TIP3    H218806   7.127   3.314   5.874 -0.8809  2.1788 -0.1553
 6285TIP3   OH218807   3.700   5.334   6.132  0.4072 -0.7321  0.9290
 6285TIP3    H118808   3.677   5.423   6.108 -0.7559 -1.3357 -0.2426
 6285TIP3    H218809   3.691   5.332   6.227  1.2738  0.6219  1.0488
 6286TIP3   OH218810   1.278   3.282   4.106  0.9471  0.3366  0.1684
 6286TIP3    H118811   1.241   3.363   4.139  1.3552  0.2747  0.7882
 6286TIP3    H218812   1.344   3.257   4.171  1.9986  0.3880 -0.8549
 6287TIP3   OH218813   1.281   2.099   3.533  0.2370  0.1856  0.3797
 6287TIP3    H118814   1.198   2.078   3.491  1.2298 -0.5288 -1.2499
 6287TIP3    H218815   1.264   2.088   3.627 -1.3292 -0.5104  0.0249
 6288TIP3   OH218816   1.448   4.367   3.381 -0.3427 -0.1257  0.3106
 6288TIP3    H118817   1.485   4.284   3.412  0.9440  0.7447  1.1670
 6288TIP3    H218818   1.517   4.404   3.325 -1.5836 -0.4153 -1.4473
 6289TIP3   OH218819   6.059   3.596   3.387  0.4790  0.6846 -0.2219
 6289TIP3    H118820   6.038   3.511   3.427 -1.9424  1.4491  0.1935
 6289TIP3    H218821   6.130   3.631   3.442  0.2624 -0.2666  0.6833
 6290TIP3   OH218822   5.472   3.060   4.754 -0.2238 -0.2391  0.3256
 6290TIP3    H118823   5.437   3.049   4.842 -0.7923  2.0939  0.4370
 6290TIP3    H218824   5.555   3.106   4.766 -0.6203  0.6850 -0.3859
 6291TIP3   OH218825   4.830   3.070   4.355 -0.0226  0.2900  0.0552
 6291TIP3    H118826   4.798   3.153   4.390  1.5512  0.7656  0.3680
 6291TIP3    H218827   4.894   3.094   4.288  0.3756 -0.6773  0.0754
 6292TIP3   OH218828   7.184   7.263   0.129 -0.3550  0.5065 -0.0758
 6292TIP3    H118829   7.205   7.181   0.085 -1.3721 -1.2417  2.5933
 6292TIP3    H218830   7.093   7.254   0.156  0.1047  1.6184  2.0431
 6293TIP3   OH218831   7.441   2.597   1.341 -0.5660  0.2701 -0.0319
 6293TIP3    H118832   7.390   2.668   1.379 -1.0407  0.6502 -1.3731
 6293TIP3    H218833   7.417   2.596   1.249 -0.5878 -1.6506 -0.0307
 6294TIP3   OH218834   5.701   4.891   3.643  0.4868 -0.1713  0.3483
 6294TIP3    H118835   5.765   4.940   3.593 -0.8348  1.3638  0.1179
 6294TIP3    H218836   5.706   4.927   3.732 -0.2557  0.1700  0.2593
 6295TIP3   OH218837   5.440   4.338   5.993  0.1216 -0.0351  0.2577
 6295TIP3    H118838   5.406   4.411   5.940 -1.1904 -0.4540  0.4886
 6295TIP3    H218839   5.376   4.329   6.064  0.5126 -1.1134  0.4791
 6296TIP3   OH218840   1.128   3.129   3.064 -0.1812 -0.0208  0.4138
 6296TIP3    H118841   1.133   3.093   2.976  0.9615  0.8043  0.1327
 6296TIP3    H218842   1.062   3.199   3.056 -1.7434 -1.4121  0.7573
 6297TIP3   OH218843   0.637   4.049   5.781  0.8924 -0.2894 -0.2313
 6297TIP3    H118844   0.545   4.073   5.778  1.2955  1.4870  0.6257
 6297TIP3    H218845   0.653   4.001   5.699 -0.8934 -1.1088 -0.1223
 6298TIP3   OH218846   0.209   3.364   1.466 -0.2747 -0.1022 -0.0165
 6298TIP3    H118847   0.191   3.445   1.418  0.1987  0.3941  0.6301
 6298TIP3    H218848   0.191   3.386   1.558  1.6958 -0.1606  0.4028
 6299TIP3   OH218849   7.646   1.446   2.349  0.1606 -0.0133 -0.0416
 6299TIP3    H118850   7.680   1.530   2.380  0.4778  0.2016 -0.9637
 6299TIP3    H218851   7.723   1.390   2.341 -0.1228 -0.5775  1.1413
 6300TIP3   OH218852   6.842   2.006   1.214  0.1368  0.1248  0.1504
 6300TIP3    H118853   6.926   1.982   1.176  0.6761  0.5530  1.0530
 6300TIP3    H218854   6.864   2.044   1.299 -0.7604  2.7160 -0.7240
 6301TIP3   OH218855   5.906   4.174   3.648  0.0107  0.2062  0.3363
 6301TIP3    H118856   5.965   4.102   3.625  2.3290  1.8076  1.1041
 6301TIP3    H218857   5.960   4.233   3.700 -2.4291  1.5095  1.4398
 6302TIP3   OH218858   7.392   2.275   2.492  1.2116 -0.1904 -0.2969
 6302TIP3    H118859   7.458   2.292   2.559 -0.3065  0.2997  1.1163
 6302TIP3    H218860   7.379   2.359   2.449  1.8543 -0.4019 -0.9206
 6303TIP3   OH218861   3.823   3.118   3.696 -0.6730 -0.3608 -0.2090
 6303TIP3    H118862   3.791   3.182   3.760  0.4304 -0.0063 -0.0008
 6303TIP3    H218863   3.758   3.121   3.626 -0.5587  1.1285 -0.2857
 6304TIP3   OH218864   5.103   4.771   4.143 -0.4570  0.3378  0.1218
 6304TIP3    H118865   5.153   4.690   4.129  0.8949  1.1859  0.0161
 6304TIP3    H218866   5.058   4.785   4.060  1.5139  1.1824 -0.8496
 6305TIP3   OH218867   3.600   3.210   5.718  0.0558  0.7796  0.1393
 6305TIP3    H118868   3.538   3.139   5.701  0.1055  0.6227  0.6099
 6305TIP3    H218869   3.664   3.204   5.647  0.4841 -0.1127  0.5925
 6306TIP3   OH218870   7.712   0.472   5.537 -0.9464  0.1966  0.3745
 6306TIP3    H118871   7.634   0.501   5.489 -1.0931  0.8805  1.0199
 6306TIP3    H218872   7.760   0.553   5.556 -1.0649 -0.0320  1.6894
 6307TIP3   OH218873   7.103   3.117   4.138 -0.2166  0.2283  0.2162
 6307TIP3    H118874   7.182   3.154   4.177 -0.4812  1.2497 -0.2036
 6307TIP3    H218875   7.031   3.151   4.192 -0.4770  0.5596 -0.3291
 6308TIP3   OH218876   2.386   1.573   4.695  0.1151 -0.2398  0.5481
 6308TIP3    H118877   2.391   1.549   4.787  0.6820  1.2836  0.9235
 6308TIP3    H218878   2.476   1.566   4.663 -0.3066 -2.2669 -0.3004
 6309TIP3   OH218879   0.789   2.683   3.722  0.0922 -0.0122  0.0137
 6309TIP3    H118880   0.777   2.645   3.634  0.4609 -0.3255  0.0993
 6309TIP3    H218881   0.877   2.720   3.720  0.0043  0.2044  0.1719
 6310TIP3   OH218882   0.719   1.543   3.317  0.2230  0.1400 -0.1154
 6310TIP3    H118883   0.761   1.526   3.232 -0.8708 -1.4539 -0.3874
 6310TIP3    H218884   0.747   1.470   3.372 -0.1284  0.4562  0.4824
 6311TIP3   OH218885   5.993   3.876   4.320  0.1342  0.0911 -0.1939
 6311TIP3    H118886   5.930   3.888   4.248  0.2256  0.1936 -0.2583
 6311TIP3    H218887   5.955   3.923   4.394  0.0080 -0.0711 -0.1574
 6312TIP3   OH218888   6.229   4.317   4.176 -0.0867  0.2446 -0.2928
 6312TIP3    H118889   6.288   4.246   4.149 -0.6595 -0.2183 -0.3343
 6312TIP3    H218890   6.159   4.273   4.224  0.4284  0.9646  1.1387
 6313TIP3   OH218891   0.690   2.897   4.777 -0.3325  0.6201 -0.2224
 6313TIP3    H118892   0.740   2.926   4.854  0.1696  0.8707 -0.6445
 6313TIP3    H218893   0.622   2.840   4.814  1.0766 -0.7914  0.2185
 6314TIP3   OH218894   5.233   2.112   2.803  0.7844  0.0108  0.3334
 6314TIP3    H118895   5.241   2.155   2.718  0.0910  0.7737  0.6483
 6314TIP3    H218896   5.192   2.028   2.784  1.2542 -0.1100 -0.1649
 6315TIP3   OH218897   6.213   5.621   2.810 -0.5307  0.3880 -0.3397
 6315TIP3    H118898   6.194   5.666   2.728 -1.1247 -0.0802 -0.4675
 6315TIP3    H218899   6.141   5.558   2.819  0.7113 -1.0968 -0.5850
 6316TIP3   OH218900   7.111   1.342   2.210 -0.4206  0.2678 -0.2434
 6316TIP3    H118901   7.161   1.330   2.129 -1.1849 -0.2191 -0.6609
 6316TIP3    H218902   7.175   1.368   2.275  0.4362 -0.6851 -0.6872
 6317TIP3   OH218903   0.223   4.026   3.110 -0.1158 -0.3887 -0.3309
 6317TIP3    H118904   0.220   3.968   3.185  1.3255  1.0665  0.8935
 6317TIP3    H218905   0.308   4.069   3.116 -0.6939  1.0264 -1.8253
 6318TIP3   OH218906   4.979   3.124   4.930 -0.4200 -1.0119 -0.2370
 6318TIP3    H118907   5.043   3.103   4.862 -0.2645  0.7196 -0.6623
 6318TIP3    H218908   4.895   3.124   4.884 -0.2341  0.9324 -0.6560
 6319TIP3   OH218909   5.915   2.898   4.725  0.4523 -0.6136 -0.2921
 6319TIP3    H118910   5.947   2.854   4.646  0.5038 -1.8336  0.4028
 6319TIP3    H218911   5.930   2.835   4.796  1.1199  0.7818  0.8200
 6320TIP3   OH218912   4.380   6.709   3.735  0.3990  0.2375 -0.2389
 6320TIP3    H118913   4.424   6.625   3.747  1.5547  0.8546 -0.1313
 6320TIP3    H218914   4.339   6.726   3.819  0.8890  0.1978  0.0103
 6321TIP3   OH218915   5.705   3.120   5.996 -0.8867 -0.9711  0.0262
 6321TIP3    H118916   5.801   3.119   5.998 -0.8774 -3.0250 -0.4678
 6321TIP3    H218917   5.679   3.038   6.038 -2.4013 -0.9323 -0.7948
 6322TIP3   OH218918  -0.021   3.607   2.538  0.3340 -0.7214  0.0087
 6322TIP3    H118919  -0.008   3.699   2.516  0.6426 -0.9461 -0.7670
 6322TIP3    H218920   0.058   3.563   2.505 -0.5146 -1.4889 -1.0597
 6323TIP3   OH218921   0.593   4.387   4.533 -0.8343 -0.1940  0.5549
 6323TIP3    H118922   0.528   4.429   4.589 -0.4661  0.5548  0.4303
 6323TIP3    H218923   0.677   4.404   4.576 -0.6272 -0.3140  0.2015
 6324TIP3   OH218924   6.026   2.744   2.030  0.8167 -0.4457  0.3337
 6324TIP3    H118925   6.016   2.822   2.085 -2.3645 -2.1304  2.3359
 6324TIP3    H218926   6.019   2.671   2.092 -0.8556 -2.3597 -2.0346
 6325TIP3   OH218927   4.062   2.654   3.727 -0.3579  0.5799 -0.5411
 6325TIP3    H118928   3.999   2.708   3.774  0.0599  0.6808 -0.0853
 6325TIP3    H218929   4.027   2.647   3.638 -1.3714  0.0303 -0.1098
 6326TIP3   OH218930   5.459   2.731   2.070  0.6600 -0.1815 -0.0295
 6326TIP3    H118931   5.405   2.807   2.049  0.1520 -1.0516 -2.0029
 6326TIP3    H218932   5.546   2.768   2.085  0.5707  0.7569 -1.6075
 6327TIP3   OH218933   6.605   0.177   0.683  0.1484 -0.0324 -0.4226
 6327TIP3    H118934   6.525   0.129   0.702 -0.8794  1.6552 -0.3379
 6327TIP3    H218935   6.602   0.253   0.741  3.1075 -1.2407  1.4593
 6328TIP3   OH218936   4.988   3.207   4.154 -0.4439 -0.3811  0.0566
 6328TIP3    H118937   4.947   3.135   4.106 -0.9461  0.1985 -0.3926
 6328TIP3    H218938   5.022   3.265   4.086 -2.8752  1.4398  0.3403
 6329TIP3   OH218939   4.854   4.607   5.680 -0.0887 -0.0270  0.3835
 6329TIP3    H118940   4.880   4.521   5.647 -0.0150 -0.0175  0.4158
 6329TIP3    H218941   4.924   4.666   5.651 -1.8686  0.6934 -2.6929
 6330TIP3   OH218942   7.763   4.303   4.795 -0.4931 -0.1524 -0.4610
 6330TIP3    H118943   7.739   4.395   4.792 -0.7636 -0.1822  0.7137
 6330TIP3    H218944   7.765   4.276   4.703 -0.0173  1.1188 -0.8323
 6331TIP3   OH218945   5.728   3.868   5.912  0.4130 -0.2679 -0.1165
 6331TIP3    H118946   5.790   3.933   5.877  0.8974 -0.2057  0.8567
 6331TIP3    H218947   5.675   3.916   5.975  1.1369 -0.9398  1.0178
 6332TIP3   OH218948   0.378   4.236   2.645 -0.0333 -0.0937  0.4690
 6332TIP3    H118949   0.324   4.192   2.579 -1.4745  1.5991  0.4795
 6332TIP3    H218950   0.350   4.327   2.643 -0.0713  0.0230  3.3763
 6333TIP3   OH218951   1.792   7.291   0.557 -0.0494 -0.0860  0.2470
 6333TIP3    H118952   1.752   7.352   0.619  0.1411  1.8387 -1.4612
 6333TIP3    H218953   1.869   7.257   0.602 -2.2151 -1.9936  2.6430
 6334TIP3   OH218954   5.904   3.565   4.169  0.0461  0.1929 -0.1578
 6334TIP3    H118955   5.968   3.523   4.226 -0.1607 -1.4733 -1.0985
 6334TIP3    H218956   5.935   3.545   4.080 -0.3972  1.5433 -0.6290
 6335TIP3   OH218957   7.725   1.941   3.753 -0.4223 -0.0327 -0.1613
 6335TIP3    H118958   7.769   1.997   3.817 -0.2107 -2.2386  1.6747
 6335TIP3    H218959   7.657   1.897   3.803 -1.6346 -0.2097 -1.9466
 6336TIP3   OH218960   7.217   2.502   5.833  0.4554  0.1873 -0.0106
 6336TIP3    H118961   7.195   2.416   5.867 -0.1847  0.8958  1.4456
 6336TIP3    H218962   7.163   2.512   5.755 -0.3039 -0.2976  0.4481
 6337TIP3   OH218963   7.762   3.094   2.889 -0.3493 -0.3239 -0.8384
 6337TIP3    H118964   7.723   3.152   2.954 -2.0743 -0.8690 -1.3654
 6337TIP3    H218965   7.796   3.154   2.821 -0.8333  0.1241 -0.6880
 6338TIP3   OH218966   5.240   0.171   1.090 -0.0159  0.5359 -0.7353
 6338TIP3    H118967   5.308   0.144   1.152  1.1451  0.9124 -1.8361
 6338TIP3    H218968   5.198   0.089   1.064 -0.4837  0.3653  0.4897
 6339TIP3   OH218969   6.876   4.107   6.419 -0.0900 -0.1913  0.1554
 6339TIP3    H118970   6.853   4.192   6.457 -0.1363  0.2008 -0.7373
 6339TIP3    H218971   6.803   4.086   6.361  0.7005 -0.0486 -0.9034
 6340TIP3   OH218972   6.621   3.657   5.382 -0.3685  0.2757 -0.3744
 6340TIP3    H118973   6.687   3.674   5.314 -1.8253  1.1472 -1.5891
 6340TIP3    H218974   6.664   3.685   5.463  1.0530  0.0901 -1.0344
 6341TIP3   OH218975   6.687   3.998   4.424  0.0210 -0.0839 -0.3722
 6341TIP3    H118976   6.622   4.068   4.426 -0.0205 -0.1172 -0.6482
 6341TIP3    H218977   6.655   3.934   4.488  0.9190  0.9255  1.1382
 6342TIP3   OH218978   5.704   2.345   5.867  0.2329 -0.9354 -0.3667
 6342TIP3    H118979   5.693   2.296   5.785 -1.2239  0.8537 -1.2912
 6342TIP3    H218980   5.616   2.355   5.901  0.6938 -0.4558  0.6932
 6343TIP3   OH218981   0.712   7.188   0.949 -0.3132 -0.4755  0.0871
 6343TIP3    H118982   0.757   7.170   1.031 -2.5657 -1.2889  1.2103
 6343TIP3    H218983   0.693   7.282   0.951 -1.1771 -0.6597  0.9559
 6344TIP3   OH218984   6.130   3.683   4.910  0.1780 -0.2502  0.5322
 6344TIP3    H118985   6.087   3.762   4.878  1.0663 -0.6783 -1.7835
 6344TIP3    H218986   6.071   3.650   4.978 -2.4618 -0.0427 -1.5613
 6345TIP3   OH218987   5.199   2.720   6.130  0.4478  0.1883 -0.4961
 6345TIP3    H118988   5.144   2.657   6.082 -0.5151  2.1004 -1.9376
 6345TIP3    H218989   5.143   2.796   6.143  1.7240  0.9133  0.9271
 6346TIP3   OH218990   6.718   2.737   6.074  0.1936 -0.5199 -0.8197
 6346TIP3    H118991   6.795   2.680   6.076  0.2808 -0.4008 -0.7762
 6346TIP3    H218992   6.726   2.791   6.153  0.9942  0.7275 -1.7441
 6347TIP3   OH218993   6.310   2.892   4.819 -0.2878  0.4919 -0.2841
 6347TIP3    H118994   6.352   2.971   4.855  1.5138 -0.4551 -0.2204
 6347TIP3    H218995   6.236   2.924   4.769 -0.5899  2.1127  1.1745
 6348TIP3   OH218996   7.877   1.933   4.693 -0.2163 -0.1305  0.5321
 6348TIP3    H118997   7.799   1.988   4.686  1.7590  2.9388  1.6369
 6348TIP3    H218998   7.917   1.936   4.606  0.0988  0.5252  0.6970
 6349TIP3   OH218999   5.854   4.488   2.192 -0.0215  0.2228 -0.7850
 6349TIP3    H119000   5.796   4.413   2.177 -0.2524  0.3459 -0.5342
 6349TIP3    H219001   5.887   4.475   2.281  0.7204 -0.0995 -1.1096
 6350TIP3   OH219002   6.795   3.671   3.315 -0.3646 -0.1551  0.2247
 6350TIP3    H119003   6.848   3.732   3.264 -1.1547 -0.3622 -0.8733
 6350TIP3    H219004   6.794   3.708   3.404  0.3337  0.6603 -0.1038
 6351TIP3   OH219005   7.373   2.813   3.750 -0.4600  0.0459 -0.2927
 6351TIP3    H119006   7.298   2.870   3.770 -1.9461 -2.3067  1.0620
 6351TIP3    H219007   7.449   2.862   3.782 -1.6138  1.5814  0.1670
 6352TIP3   OH219008  -0.031   2.914   4.180  0.4103 -0.8675  0.4761
 6352TIP3    H119009   0.043   2.975   4.174  0.6918 -0.9161  2.9095
 6352TIP3    H219010   0.005   2.831   4.150  1.9751 -1.3473  3.4516
 6353TIP3   OH219011   0.377   3.383   5.909 -0.8021 -0.9384  0.4615
 6353TIP3    H119012   0.363   3.304   5.856 -0.4814 -0.5060 -0.2631
 6353TIP3    H219013   0.301   3.438   5.890 -0.7586 -0.8400  0.5732
 6354TIP3   OH219014   6.870   4.717   0.912 -0.4190  0.1506 -0.3234
 6354TIP3    H119015   6.911   4.788   0.863 -0.8074 -0.6022 -1.7726
 6354TIP3    H219016   6.943   4.658   0.934 -0.4532 -0.2712 -1.3201
 6355TIP3   OH219017   0.461   3.698   2.927  0.4251  0.1977 -0.3761
 6355TIP3    H119018   0.434   3.760   2.860  1.2029 -1.2267 -2.0553
 6355TIP3    H219019   0.547   3.666   2.898  0.9598 -0.1736  1.4928
 6356TIP3   OH219020   7.096   2.545   5.415  0.1884 -0.0270  0.4841
 6356TIP3    H119021   7.042   2.559   5.338 -1.3062 -1.3492  1.2722
 6356TIP3    H219022   7.165   2.486   5.385  0.3018  0.4178 -0.1340
 6357TIP3   OH219023   6.836   5.313   6.383 -0.5217  0.2347  0.7874
 6357TIP3    H119024   6.807   5.309   6.292 -0.9327  0.5570  0.9065
 6357TIP3    H219025   6.905   5.246   6.389 -0.2344  0.4744  0.1500
 6358TIP3   OH219026   1.187   3.994   2.081 -0.2537 -0.1602  0.4400
 6358TIP3    H119027   1.270   3.967   2.119  0.4939  1.4086 -0.0226
 6358TIP3    H219028   1.134   4.023   2.155  1.1137  2.6658  0.3723
 6359TIP3   OH219029   0.718   4.398   5.137  0.0241 -0.2409 -0.0312
 6359TIP3    H119030   0.720   4.354   5.052  1.0079  0.2388 -0.2674
 6359TIP3    H219031   0.802   4.443   5.142 -0.4415  0.5479  0.7705
 6360TIP3   OH219032   7.926   2.631   4.149 -0.1536  0.1383  0.9170
 6360TIP3    H119033   7.834   2.632   4.174 -0.1098  0.2053  1.0761
 6360TIP3    H219034   7.928   2.584   4.065 -0.0766 -1.7462  1.9390
 6361TIP3   OH219035   5.421   2.970   3.346  0.4263 -0.0297  0.5222
 6361TIP3    H119036   5.482   2.903   3.377  2.0631  0.6752 -1.1120
 6361TIP3    H219037   5.388   2.936   3.264 -1.5295 -0.4711  1.4712
 6362TIP3   OH219038   4.085   0.149   0.240  0.8789  0.0873  0.3501
 6362TIP3    H119039   4.103   0.085   0.171  0.4377 -0.3051  0.5973
 6362TIP3    H219040   4.107   0.103   0.321 -1.7469 -0.5987  0.7023
 6363TIP3   OH219041   1.374   2.412   4.514 -0.2789  0.0773  0.1032
 6363TIP3    H119042   1.335   2.391   4.599 -0.2653 -1.4104 -0.2527
 6363TIP3    H219043   1.304   2.456   4.466 -0.5296  0.2211  0.5888
 6364TIP3   OH219044   0.478   1.526   2.667 -0.5341  0.5239  0.5638
 6364TIP3    H119045   0.481   1.553   2.575 -2.0046 -0.0701  0.3186
 6364TIP3    H219046   0.515   1.600   2.714  0.1875  0.8616 -0.4962
 6365TIP3   OH219047   1.643   3.831   3.827 -0.0251  0.8002 -0.1779
 6365TIP3    H119048   1.572   3.840   3.891 -0.4191 -3.4732  0.1368
 6365TIP3    H219049   1.721   3.812   3.880  0.4504  1.1050 -0.7602
 6366TIP3   OH219050   5.923   4.073   6.219  0.2428  0.0835 -0.2308
 6366TIP3    H119051   6.013   4.074   6.252  0.1603 -0.4120  0.0123
 6366TIP3    H219052   5.911   4.160   6.182  1.4263 -0.4628 -1.9482
 6367TIP3   OH219053   5.505   3.744   5.788 -0.3760  0.0224 -0.0008
 6367TIP3    H119054   5.594   3.755   5.822  0.0806 -0.7608 -0.9208
 6367TIP3    H219055   5.459   3.697   5.858 -0.9413  3.0817  1.7826
 6368TIP3   OH219056   0.243   6.468   0.162  0.7923 -0.2683  0.1419
 6368TIP3    H119057   0.200   6.520   0.094 -1.7694 -1.5280  0.7144
 6368TIP3    H219058   0.281   6.394   0.115 -0.3630 -0.7632 -0.0389
 6369TIP3   OH219059   6.473   4.550   4.947 -0.6331 -0.0092  0.2282
 6369TIP3    H119060   6.382   4.559   4.975  0.0551 -0.2023  2.6115
 6369TIP3    H219061   6.486   4.455   4.939 -0.5461  0.0027  0.2292
 6370TIP3   OH219062   5.859   2.113   5.127 -0.2343 -0.0953  0.2832
 6370TIP3    H119063   5.903   2.197   5.141  0.8465 -0.5434 -0.3382
 6370TIP3    H219064   5.930   2.048   5.131 -0.6852 -0.7480 -1.7133
 6371TIP3   OH219065   5.581   2.050   3.091 -0.0530 -0.0114  0.1833
 6371TIP3    H119066   5.627   2.088   3.016  2.0730 -4.0594 -0.7285
 6371TIP3    H219067   5.625   2.086   3.168  2.7099 -1.4267 -0.6588
 6372TIP3   OH219068   5.179   3.388   4.031  0.2183 -0.7042 -0.2834
 6372TIP3    H119069   5.185   3.414   4.123  0.0621 -0.6596 -0.2861
 6372TIP3    H219070   5.231   3.454   3.984 -1.2045  0.3164 -0.4324
 6373TIP3   OH219071   6.730   3.386   4.417 -0.0546 -0.0467 -0.3825
 6373TIP3    H119072   6.771   3.390   4.504 -1.6522  0.4270  0.3672
 6373TIP3    H219073   6.702   3.476   4.400  1.1484  0.0642 -1.8392
 6374TIP3   OH219074   7.506   3.203   1.736  0.2216 -0.4324 -0.2994
 6374TIP3    H119075   7.446   3.277   1.746  1.6081  0.6370  0.2263
 6374TIP3    H219076   7.588   3.242   1.707  1.1116 -1.7089  0.4428
 6375TIP3   OH219077   5.705   2.292   3.618  0.0986 -0.1246  0.3255
 6375TIP3    H119078   5.781   2.340   3.650  1.6323 -1.5643 -1.0488
 6375TIP3    H219079   5.633   2.318   3.677  1.6652  1.1371  1.7268
 6376TIP3   OH219080   6.504   3.353   3.863 -0.0451  0.8374  0.6252
 6376TIP3    H119081   6.418   3.340   3.902 -0.3291  1.3463  0.1734
 6376TIP3    H219082   6.502   3.302   3.781 -0.0872  1.2418  0.3739
 6377TIP3   OH219083   0.401   4.562   0.951  0.0040 -0.6240  0.1711
 6377TIP3    H119084   0.385   4.636   0.893 -1.4117  0.0602  1.4240
 6377TIP3    H219085   0.478   4.518   0.913  1.5843  2.1284  0.0576
 6378TIP3   OH219086   6.580   5.167   5.777  0.2951 -0.0764 -0.2063
 6378TIP3    H119087   6.657   5.206   5.737 -0.3291 -0.2342 -1.5728
 6378TIP3    H219088   6.506   5.208   5.732 -0.4620  0.8920  1.8492
 6379TIP3   OH219089   5.690   5.688   3.277  0.6698  0.3347 -0.2593
 6379TIP3    H119090   5.596   5.702   3.285  0.4032 -1.2833 -0.3867
 6379TIP3    H219091   5.719   5.670   3.367  0.6017 -0.6404 -0.4303
 6380TIP3   OH219092   6.084   2.114   4.102 -0.3180 -0.4133  0.3440
 6380TIP3    H119093   6.082   2.201   4.142  0.6543 -1.3846  2.6128
 6380TIP3    H219094   6.108   2.056   4.174 -0.3299 -2.4797 -1.2912
 6381TIP3   OH219095   7.436   4.176   6.118  0.0277  0.2098 -0.7417
 6381TIP3    H119096   7.527   4.162   6.092 -0.3346  1.2039 -2.6579
 6381TIP3    H219097   7.385   4.128   6.053 -0.8210 -0.5347  0.4625
 6382TIP3   OH219098   4.275   3.650   4.872  0.0364 -0.3827  0.1162
 6382TIP3    H119099   4.240   3.645   4.783  1.0939 -1.7874 -0.2502
 6382TIP3    H219100   4.224   3.718   4.915 -0.2932  0.5156 -1.6616
 6383TIP3   OH219101   2.326   1.395   0.961 -0.4959  0.6849 -0.2726
 6383TIP3    H119102   2.308   1.475   0.913  0.3759  0.3648 -1.1288
 6383TIP3    H219103   2.398   1.354   0.915 -1.9116 -1.3555 -0.7365
 6384TIP3   OH219104   4.172   4.099   4.853  0.1537 -0.1325 -0.4488
 6384TIP3    H119105   4.220   4.023   4.820  0.2713  0.1500 -0.9321
 6384TIP3    H219106   4.204   4.173   4.800 -1.3038 -0.0548 -1.2338
 6385TIP3   OH219107   1.194   3.733   3.563  0.0603  0.5261  0.0851
 6385TIP3    H119108   1.210   3.827   3.556  1.2806  0.2745 -0.7060
 6385TIP3    H219109   1.172   3.719   3.655  0.9061  1.4397  0.4415
 6386TIP3   OH219110   5.074   5.071   5.600 -0.3623 -0.2702 -0.3207
 6386TIP3    H119111   5.030   5.132   5.659  0.9522  0.4933 -0.1159
 6386TIP3    H219112   5.147   5.121   5.563  0.8772 -1.7763  0.0215
 6387TIP3   OH219113   0.690   4.534   5.386  0.0286 -0.3059  0.2592
 6387TIP3    H119114   0.641   4.495   5.458 -0.3875 -0.8490 -0.3110
 6387TIP3    H219115   0.709   4.460   5.327  1.2533 -0.0495  0.3112
 6388TIP3   OH219116   6.324   4.279   6.419  0.4548  0.2118 -0.5438
 6388TIP3    H119117   6.408   4.320   6.439  0.3017 -0.4337  1.4898
 6388TIP3    H219118   6.264   4.353   6.402  1.0127  0.7213 -0.2988
 6389TIP3   OH219119   7.483   6.121   0.594  0.4177  0.3654  0.3037
 6389TIP3    H119120   7.410   6.144   0.651  0.9178 -0.0806  1.1193
 6389TIP3    H219121   7.523   6.206   0.573  0.3675  0.5136  0.7888
 6390TIP3   OH219122   6.371   4.910   5.227 -0.1563 -0.8800 -0.0560
 6390TIP3    H119123   6.325   4.828   5.211  0.0611 -0.7067 -1.5942
 6390TIP3    H219124   6.460   4.895   5.196  0.0942 -0.3066  0.3668
 6391TIP3   OH219125   7.881   4.728   3.626 -0.4326  0.2621  0.3636
 6391TIP3    H119126   7.789   4.726   3.601 -0.0833  0.3969 -0.9939
 6391TIP3    H219127   7.901   4.821   3.636 -0.3413  0.2575  0.2316
 6392TIP3   OH219128   7.765   2.407   3.702 -0.3599  0.1734  0.1510
 6392TIP3    H119129   7.795   2.329   3.655 -0.7331  1.9164 -3.0507
 6392TIP3    H219130   7.808   2.401   3.788 -0.4274 -3.5536 -0.0112
 6393TIP3   OH219131   0.794   3.308   3.367  0.1751  0.3295 -0.0628
 6393TIP3    H119132   0.712   3.354   3.350 -0.4730 -0.6803  0.2673
 6393TIP3    H219133   0.857   3.347   3.306 -1.3580 -1.1620 -2.7348
 6394TIP3   OH219134   6.227   4.092   4.405  0.0539  0.0607 -0.1866
 6394TIP3    H119135   6.220   4.032   4.480  0.5484 -1.3121 -1.2132
 6394TIP3    H219136   6.160   4.062   4.344  0.1187  0.7349 -0.5862
 6395TIP3   OH219137   4.459   4.249   4.931 -0.2716 -0.2918 -0.1407
 6395TIP3    H119138   4.456   4.194   5.010  1.4949  1.0205  0.8818
 6395TIP3    H219139   4.492   4.191   4.863 -0.9095 -1.1968  0.3111
 6396TIP3   OH219140   7.483   2.657   5.518  0.2388 -0.1005  0.3106
 6396TIP3    H119141   7.559   2.693   5.563  0.1017  0.1454  0.3481
 6396TIP3    H219142   7.472   2.570   5.556 -1.4700  1.0676  2.7135
 6397TIP3   OH219143   0.197   1.837   3.654  0.2320 -0.4896 -0.2864
 6397TIP3    H119144   0.268   1.791   3.699  0.0658 -0.3853  0.0841
 6397TIP3    H219145   0.241   1.893   3.590  0.4485 -0.9488 -0.5425
 6398TIP3   OH219146   1.221   2.799   3.481 -0.7059 -0.1387 -0.1203
 6398TIP3    H119147   1.145   2.788   3.538  0.2406 -0.4402  1.1093
 6398TIP3    H219148   1.211   2.732   3.414 -1.0370 -0.8081  0.5920
 6399TIP3   OH219149   5.663   3.390   3.527 -0.6473 -0.0722  0.1931
 6399TIP3    H119150   5.573   3.418   3.544 -0.3241  1.0696  0.0278
 6399TIP3    H219151   5.655   3.326   3.456 -1.4030 -0.5694  0.7177
 6400TIP3   OH219152   0.222   3.019   4.098  0.2441  0.1961  0.0297
 6400TIP3    H119153   0.238   3.024   4.192  0.0171  1.6475 -0.0025
 6400TIP3    H219154   0.262   3.098   4.062 -1.5793  0.7556 -0.8203
 6401TIP3   OH219155   1.204   5.331   4.337 -0.1446 -0.2965 -0.4500
 6401TIP3    H119156   1.226   5.424   4.325  0.2328 -0.3537 -0.1928
 6401TIP3    H219157   1.288   5.287   4.345 -0.3646 -0.3703  1.6772
 6402TIP3   OH219158   5.667   5.787   2.937  0.2991 -0.3123 -0.1945
 6402TIP3    H119159   5.664   5.845   3.013 -0.1610 -0.6413  0.0431
 6402TIP3    H219160   5.698   5.842   2.865 -1.9198  0.6979 -0.4023
 6403TIP3   OH219161   7.123   2.338   1.655 -0.8485  0.1518 -0.0003
 6403TIP3    H119162   7.172   2.406   1.702 -0.5116 -0.5627  0.6734
 6403TIP3    H219163   7.152   2.347   1.564  0.3548 -0.1026  0.3552
 6404TIP3   OH219164   7.670   2.892   4.960 -0.5399  0.1423  0.0071
 6404TIP3    H119165   7.702   2.812   5.001 -1.1832 -0.5058 -0.7413
 6404TIP3    H219166   7.657   2.953   5.032  0.8686 -0.1017  0.4914
 6405TIP3   OH219167   5.627   2.926   5.062 -0.3976 -0.5862 -0.3720
 6405TIP3    H119168   5.641   2.871   5.139  0.9959  0.2642  0.0052
 6405TIP3    H219169   5.671   3.008   5.084 -0.4385 -0.1604 -1.8775
 6406TIP3   OH219170   6.764   3.395   3.281  0.1975  0.4924 -0.4105
 6406TIP3    H119171   6.812   3.353   3.352 -0.3748 -0.4801 -0.5920
 6406TIP3    H219172   6.765   3.489   3.303  0.4835  0.2562  0.5904
 6407TIP3   OH219173   7.790   1.751   5.813  0.6398 -0.1644  0.0668
 6407TIP3    H119174   7.848   1.782   5.743  1.7584  1.3446  1.6113
 6407TIP3    H219175   7.833   1.778   5.894 -0.9023 -1.3939  1.3426
 6408TIP3   OH219176   1.014   4.003   2.899 -0.0684  0.3045 -0.0211
 6408TIP3    H119177   0.928   4.036   2.874  0.2674  1.5628  0.4018
 6408TIP3    H219178   1.007   3.984   2.993  0.3830  1.3827  0.2459
 6409TIP3   OH219179   0.617   4.915   3.345 -0.6357  0.2198 -0.1267
 6409TIP3    H119180   0.679   4.961   3.402 -0.5452  2.0555 -1.6952
 6409TIP3    H219181   0.668   4.892   3.268 -1.5120  0.3559 -0.7517
 6410TIP3   OH219182   0.998   4.661   2.220  0.0795 -0.1156  0.5597
 6410TIP3    H119183   0.923   4.719   2.205 -0.8453 -1.9209 -2.2263
 6410TIP3    H219184   0.959   4.576   2.239  1.4204 -0.7212  0.6436
 6411TIP3   OH219185   1.768   4.631   4.429 -0.7550 -0.1042  0.0104
 6411TIP3    H119186   1.694   4.632   4.368 -1.1235 -0.3337  0.4528
 6411TIP3    H219187   1.825   4.562   4.396 -0.4214  0.5145 -0.7111
 6412TIP3   OH219188   0.842   4.905   4.163  0.4424  0.5311  0.0855
 6412TIP3    H119189   0.767   4.852   4.192  3.1851 -3.6608 -0.0337
 6412TIP3    H219190   0.902   4.905   4.237  1.1823  2.2414 -0.4875
 6413TIP3   OH219191   1.230   4.073   3.277 -0.1189 -0.1252  0.2343
 6413TIP3    H119192   1.314   4.028   3.281 -0.1878 -0.4357 -1.7377
 6413TIP3    H219193   1.237   4.130   3.201 -2.2038 -1.1923 -0.7902
 6414TIP3   OH219194   5.894   1.599   0.395  0.3407  0.3452 -0.4120
 6414TIP3    H119195   5.814   1.641   0.363  1.0197  2.1780  0.1943
 6414TIP3    H219196   5.960   1.668   0.388  1.3251 -0.4061  1.3229
 6415TIP3   OH219197   7.464   3.698   2.782  0.4740  0.1611 -0.1950
 6415TIP3    H119198   7.457   3.622   2.840 -2.1151 -0.1427 -0.8395
 6415TIP3    H219199   7.446   3.663   2.695 -1.7094  1.6299 -0.3849
 6416TIP3   OH219200   7.690   3.289   5.261  0.1110 -0.3016  0.1240
 6416TIP3    H119201   7.691   3.370   5.210  1.8904 -1.6300 -2.0231
 6416TIP3    H219202   7.780   3.258   5.258 -0.2427 -1.6070  2.1956
 6417TIP3   OH219203   7.582   4.092   5.787  0.2881  0.3200 -0.4198
 6417TIP3    H119204   7.537   4.018   5.828  0.7511 -0.2600 -0.9492
 6417TIP3    H219205   7.630   4.134   5.858  0.4139 -0.1867 -0.2038
 6418TIP3   OH219206   0.316   7.336   0.295 -0.0259 -0.1051  0.6451
 6418TIP3    H119207   0.344   7.255   0.252 -2.0200  0.1236 -1.1573
 6418TIP3    H219208   0.221   7.328   0.302 -0.4085  2.6037 -0.7483
 6419TIP3   OH219209   7.724   3.676   1.914 -0.0024  0.0309  0.0133
 6419TIP3    H119210   7.686   3.603   1.964  0.9945  0.7511  1.8923
 6419TIP3    H219211   7.772   3.634   1.843 -1.5738 -1.0276 -0.4523
 6420TIP3   OH219212   0.634   4.053   4.268  0.1998 -0.5422  0.2204
 6420TIP3    H119213   0.547   4.092   4.275  0.3908  0.1542 -1.1858
 6420TIP3    H219214   0.677   4.076   4.351 -1.0817 -1.2561  1.1023
 6421TIP3   OH219215  -0.003   2.546   2.945  1.5077 -0.1363  0.2389
 6421TIP3    H119216  -0.003   2.624   2.890 -0.5847  0.3242  0.8360
 6421TIP3    H219217   0.088   2.517   2.946  2.4451  2.6741  0.5301
 6422TIP3   OH219218   0.069   4.118   2.662  0.2231  0.1413  0.6279
 6422TIP3    H119219   0.092   4.181   2.594  0.9329  1.2490  1.8683
 6422TIP3    H219220  -0.013   4.078   2.631  0.7481  0.3267 -1.0564
 6423TIP3   OH219221   0.045   3.909   3.667  0.2091  0.3687 -0.0955
 6423TIP3    H119222   0.076   3.877   3.751 -0.7042 -1.7450 -0.5190
 6423TIP3    H219223  -0.020   3.976   3.689 -1.0624 -1.1697  0.9141
 6424TIP3   OH219224   6.234   2.264   4.629  0.7084 -0.7475  0.1154
 6424TIP3    H119225   6.291   2.196   4.595  2.1213  1.0590 -1.2667
 6424TIP3    H219226   6.208   2.314   4.552 -1.4886 -0.5922  0.9204
 6425TIP3   OH219227   0.025   2.995   3.839 -0.1732 -0.1585  0.1554
 6425TIP3    H119228   0.097   3.018   3.898 -0.6936  0.5072  0.5298
 6425TIP3    H219229  -0.025   3.076   3.829 -1.5784 -0.9369  0.8565
 6426TIP3   OH219230   1.814   6.168   1.243  0.9266  0.0591  0.0215
 6426TIP3    H119231   1.866   6.244   1.217 -1.0378  1.3990 -0.1129
 6426TIP3    H219232   1.791   6.185   1.334  0.2894 -0.2539 -0.0802
 6427TIP3   OH219233   1.683   5.111   5.520  0.2122 -0.5971  0.0802
 6427TIP3    H119234   1.622   5.185   5.514  0.6566 -0.0127  2.2143
 6427TIP3    H219235   1.750   5.130   5.455 -1.3875 -0.7884 -1.6670
 6428TIP3   OH219236   0.399   3.215   4.024 -0.0407  0.1021 -0.0118
 6428TIP3    H119237   0.478   3.230   4.076  0.5327  0.0380 -0.8538
 6428TIP3    H219238   0.375   3.301   3.990 -0.3479  0.1243  0.2512
 6429TIP3   OH219239   7.099   3.595   4.751 -1.0243  0.2286 -0.0191
 6429TIP3    H119240   7.090   3.643   4.834  0.8701  0.1858  0.2277
 6429TIP3    H219241   7.144   3.656   4.693  2.8302 -1.6806  0.7709
 6430TIP3   OH219242   0.305   3.894   2.408  0.5873  0.1841  0.2184
 6430TIP3    H119243   0.299   3.981   2.368 -0.3841 -0.5352 -1.2215
 6430TIP3    H219244   0.218   3.855   2.396  1.3385 -1.4213 -0.1521
 6431TIP3   OH219245   6.766   4.437   4.286 -0.7559 -0.2535  0.4747
 6431TIP3    H119246   6.671   4.435   4.295 -0.8957 -0.3094 -0.8600
 6431TIP3    H219247   6.790   4.528   4.305 -1.2124  0.0442 -0.3586
 6432TIP3   OH219248   2.399   4.743   4.144  0.2575  0.2264 -0.0122
 6432TIP3    H119249   2.416   4.655   4.109  1.1154 -0.4598  2.0293
 6432TIP3    H219250   2.447   4.802   4.085  0.3526 -0.7360 -0.9256
 6433TIP3   OH219251   7.097   4.703   2.601  0.2275  0.0070 -0.4032
 6433TIP3    H119252   7.139   4.653   2.531 -0.0309  1.6021 -1.7329
 6433TIP3    H219253   7.160   4.772   2.622 -0.9174  1.3344 -1.1710
 6434TIP3   OH219254   7.366   3.011   2.901 -0.2620 -0.5256 -0.5844
 6434TIP3    H119255   7.359   3.100   2.867  0.9934 -0.0541  0.3350
 6434TIP3    H219256   7.382   2.957   2.824  0.9878  0.3316 -0.9494
 6435TIP3   OH219257   1.072   2.560   2.171  0.1668  0.3129  0.0231
 6435TIP3    H119258   1.125   2.481   2.176 -1.9442 -1.0748  1.1316
 6435TIP3    H219259   0.982   2.529   2.157 -0.7810  2.4446  1.0795
 6436TIP3   OH219260   0.063   2.538   3.897 -0.1960 -0.2101  0.0262
 6436TIP3    H119261   0.099   2.599   3.832  0.7593  0.6337  1.3224
 6436TIP3    H219262   0.112   2.457   3.884  1.1610  0.4703  0.7762
 6437TIP3   OH219263   0.170   3.692   1.641  0.3266  0.4964 -0.0273
 6437TIP3    H119264   0.256   3.730   1.625  0.8132 -0.3004  0.6469
 6437TIP3    H219265   0.188   3.602   1.666 -0.7067  0.3228  0.1017
 6438TIP3   OH219266   7.254   5.704   4.235 -0.3092 -0.1876  0.1390
 6438TIP3    H119267   7.171   5.749   4.246 -0.1573  0.7564 -2.3153
 6438TIP3    H219268   7.231   5.618   4.199 -0.3911 -0.9358  1.9552
 6439TIP3   OH219269   7.615   2.034   5.069  0.3221  0.3332  0.5271
 6439TIP3    H119270   7.642   2.052   5.159  2.1944  0.1452  0.0388
 6439TIP3    H219271   7.622   1.938   5.061 -1.0791  0.2265  0.5531
 6440TIP3   OH219272   0.015   3.585   4.549 -0.0642  0.2172 -0.5007
 6440TIP3    H119273   0.066   3.548   4.621  0.8147  1.8160 -0.2814
 6440TIP3    H219274   0.080   3.612   4.484 -0.8311 -0.9431 -1.8015
 6441TIP3   OH219275   7.353   1.831   5.249  0.1550  0.1638 -0.0629
 6441TIP3    H119276   7.429   1.885   5.271  0.2605 -0.1569  0.3776
 6441TIP3    H219277   7.312   1.811   5.334  0.2742 -0.6667 -0.1955
 6442TIP3   OH219278   1.658   2.797   2.360 -0.3709  0.4573 -0.1694
 6442TIP3    H119279   1.613   2.863   2.307 -1.5969  1.5939  2.2138
 6442TIP3    H219280   1.686   2.844   2.438  1.7249 -1.1003  0.0519
 6443TIP3   OH219281   0.139   3.888   4.579 -0.3538 -0.0975 -0.4112
 6443TIP3    H119282   0.218   3.939   4.597 -1.9789  1.5161  2.7038
 6443TIP3    H219283   0.170   3.799   4.565  2.0762  0.6922 -0.2991
 6444TIP3   OH219284   1.326   1.759   2.604 -0.1306 -0.0701  0.1480
 6444TIP3    H119285   1.252   1.763   2.665 -0.5892  0.3811 -0.4334
 6444TIP3    H219286   1.403   1.766   2.660 -0.5677  1.2488  0.6057
 6445TIP3   OH219287   7.481   3.635   4.542 -0.3597  0.3574 -0.2588
 6445TIP3    H119288   7.553   3.633   4.478 -0.8120 -0.7583 -0.7416
 6445TIP3    H219289   7.479   3.547   4.579  0.9325  1.4293  2.4951
 6446TIP3   OH219290   6.507   2.792   4.160 -0.0843  0.3546 -0.6563
 6446TIP3    H119291   6.493   2.718   4.219  1.3874 -0.7644 -1.6650
 6446TIP3    H219292   6.552   2.857   4.214 -1.1686  0.4327  0.1755
 6447TIP3   OH219293   5.980   5.465   2.818 -0.0031  0.5928  0.0349
 6447TIP3    H119294   5.960   5.436   2.907  0.6591 -1.6128 -0.5052
 6447TIP3    H219295   5.894   5.477   2.777 -0.3071  1.7534  1.0117
 6448TIP3   OH219296   7.420   3.194   4.963 -0.3833  0.1418 -0.2986
 6448TIP3    H119297   7.465   3.223   5.042  0.9875 -0.3254 -0.8915
 6448TIP3    H219298   7.335   3.238   4.966 -0.7857 -0.7174  1.9668
 6449TIP3   OH219299   6.579   2.955   4.362  0.2588  0.0659  0.1812
 6449TIP3    H119300   6.622   2.925   4.441  1.0764  2.8127  0.8585
 6449TIP3    H219301   6.613   3.044   4.349 -0.5401 -0.0029 -2.7415
 6450TIP3   OH219302   7.766   2.127   3.947  0.1018 -0.1815 -0.5632
 6450TIP3    H119303   7.721   2.211   3.945 -2.0295 -1.3210 -2.5829
 6450TIP3    H219304   7.794   2.116   4.038 -2.4356  1.2306  0.4251
 6451TIP3   OH219305   6.146   5.577   6.187 -0.1973  0.2938  0.1943
 6451TIP3    H119306   6.102   5.612   6.264 -1.5552 -0.4305 -0.2400
 6451TIP3    H219307   6.206   5.511   6.221 -0.7127  0.0574  0.6533
 6452TIP3   OH219308   7.827   4.756   3.970  0.6531 -0.2313 -0.4938
 6452TIP3    H119309   7.756   4.818   3.952  1.1425  0.6662  0.6156
 6452TIP3    H219310   7.858   4.731   3.883 -2.5197 -2.4485 -1.1029
 6453TIP3   OH219311   0.861   4.989   3.444 -0.3633  0.1153 -0.7481
 6453TIP3    H119312   0.878   5.080   3.419 -0.7321 -0.0169 -1.5111
 6453TIP3    H219313   0.937   4.941   3.412  0.3739  0.3177  0.6744
 6454TIP3   OH219314   0.187   4.433   5.665  0.2478 -0.3744 -0.5109
 6454TIP3    H119315   0.231   4.394   5.741  0.0342  0.7942  0.2358
 6454TIP3    H219316   0.258   4.452   5.603  0.8425  1.4711  0.6758
 6455TIP3   OH219317   7.873   4.160   5.007  0.0667 -0.3518 -0.4971
 6455TIP3    H119318   7.852   4.217   4.933 -1.2153 -1.9433 -1.3830
 6455TIP3    H219319   7.892   4.220   5.079  1.8528  1.2461 -2.2333
 6456TIP3   OH219320   0.617   1.800   3.998  0.1377  0.0003  0.6967
 6456TIP3    H119321   0.525   1.776   4.011  0.1931 -1.7710 -1.7947
 6456TIP3    H219322   0.616   1.895   3.987 -1.3357  0.0334  1.0562
 6457TIP3   OH219323   0.956   1.829   4.823 -0.1227 -0.0193 -0.6094
 6457TIP3    H119324   1.043   1.842   4.862  0.3383 -0.7431 -1.3732
 6457TIP3    H219325   0.895   1.840   4.896  0.3850  3.6303 -0.6713
 6458TIP3   OH219326   6.042   4.757   2.024 -0.1698 -0.6094 -0.1063
 6458TIP3    H119327   6.018   4.774   2.115 -1.2743 -1.0042 -0.3152
 6458TIP3    H219328   6.054   4.662   2.019  0.9315 -0.4804 -0.1375
 6459TIP3   OH219329   0.540   4.720   5.655  0.1992  0.3820 -0.0712
 6459TIP3    H119330   0.614   4.744   5.599 -0.2604  0.6832 -0.5569
 6459TIP3    H219331   0.463   4.730   5.599 -0.1272 -0.8499  0.1529
 6460TIP3   OH219332   7.612   5.949   4.889 -0.3050  0.6681 -0.0460
 6460TIP3    H119333   7.707   5.963   4.896 -0.4332  1.2429  0.6640
 6460TIP3    H219334   7.583   6.014   4.825 -0.1962  0.3656 -0.4057
 6461TIP3   OH219335   6.014   1.465   0.602 -0.4763  0.1474 -0.3345
 6461TIP3    H119336   6.090   1.522   0.588 -2.2999  3.0282  0.8626
 6461TIP3    H219337   5.958   1.480   0.526 -0.8294 -0.2839 -0.1625
 6462TIP3   OH219338   5.963   6.730   5.054 -0.1525  0.1060  0.2278
 6462TIP3    H119339   6.027   6.785   5.009 -0.1660 -0.4229 -0.4583
 6462TIP3    H219340   5.909   6.791   5.103  0.9327  0.5605  0.8912
 6463TIP3   OH219341   0.594   5.366   0.269 -0.0921 -0.4303  0.1227
 6463TIP3    H119342   0.525   5.432   0.274  0.4248 -0.0188  3.0569
 6463TIP3    H219343   0.675   5.416   0.261  0.0296 -0.8429 -1.3003
 6464TIP3   OH219344   0.520   5.000   6.367 -0.1916 -0.2102 -0.5056
 6464TIP3    H119345   0.436   4.989   6.323 -0.1699 -1.6996 -0.2067
 6464TIP3    H219346   0.499   5.047   6.448 -0.6088  0.1572 -0.8267
 6465TIP3   OH219347   0.544   4.466   5.858  0.6351 -0.1761  0.1183
 6465TIP3    H119348   0.552   4.561   5.844  0.7020 -0.0808  0.7816
 6465TIP3    H219349   0.458   4.455   5.899  0.3389 -0.4774 -0.5616
 6466TIP3   OH219350   4.791   5.473   0.487  0.2912 -0.0865  0.6220
 6466TIP3    H119351   4.780   5.446   0.579  0.7589  0.5624  0.8724
 6466TIP3    H219352   4.759   5.563   0.485 -1.8180 -0.8414 -0.3380
 6467TIP3   OH219353   0.922   5.255   4.438  0.2805 -0.2023 -0.0158
 6467TIP3    H119354   0.967   5.185   4.485 -1.1207 -0.4820  0.9503
 6467TIP3    H219355   0.978   5.331   4.449  1.5236 -1.0232 -0.5718
 6468TIP3   OH219356   7.883   3.722   6.115 -0.7408  0.1177  0.6807
 6468TIP3    H119357   7.908   3.632   6.092  0.4930  0.5388  0.3368
 6468TIP3    H219358   7.846   3.714   6.203  1.1096 -0.4844  1.4417
 6469TIP3   OH219359   1.345   5.245   4.930 -0.3670 -0.4027  0.2641
 6469TIP3    H119360   1.405   5.185   4.974  1.5181  0.4584 -1.0713
 6469TIP3    H219361   1.401   5.316   4.898 -2.1849  0.7263 -0.4901
 6470TIP3   OH219362   3.889   5.791   0.645 -0.6103 -0.3381  0.1006
 6470TIP3    H119363   3.800   5.779   0.612 -0.7551  1.7490 -0.3659
 6470TIP3    H219364   3.900   5.886   0.649  0.9510 -0.5646  1.9404
 6471TIP3   OH219365   2.210   4.932   5.558  0.2281  0.5378  0.3942
 6471TIP3    H119366   2.215   4.937   5.463  0.7737 -0.7060  0.3438
 6471TIP3    H219367   2.122   4.899   5.576  0.7638 -1.0299  0.2269
 6472TIP3   OH219368   3.901   2.139   5.900 -0.0061 -0.0602 -0.0923
 6472TIP3    H119369   3.866   2.228   5.887 -0.3954 -0.3637 -1.2218
 6472TIP3    H219370   3.899   2.100   5.813 -0.6699 -1.4899  0.5428
 6473TIP3   OH219371   1.573   2.892   3.582 -0.2899 -0.5174 -0.4524
 6473TIP3    H119372   1.555   2.802   3.609 -1.1411 -0.6629 -1.4666
 6473TIP3    H219373   1.562   2.891   3.487 -0.5974  0.7261 -0.4376
 6474TIP3   OH219374   2.532   4.949   3.984  0.0091  0.1849 -0.2332
 6474TIP3    H119375   2.613   4.999   3.980  0.5265 -0.3189  2.6439
 6474TIP3    H219376   2.465   5.011   4.013 -0.4416  0.3531 -1.5805
 6475TIP3   OH219377   6.016   4.284   5.692  0.3091  0.4925 -0.3630
 6475TIP3    H119378   6.099   4.330   5.677  1.1118 -0.1384  2.0337
 6475TIP3    H219379   5.964   4.346   5.743 -0.3446  0.4995 -1.0279
 6476TIP3   OH219380   1.558   3.559   4.093 -0.1911  0.2035 -0.2256
 6476TIP3    H119381   1.633   3.614   4.118 -1.2885  2.1375 -1.0753
 6476TIP3    H219382   1.503   3.558   4.172  0.0998 -0.1270 -0.0278
 6477TIP3   OH219383   7.555   4.025   4.837 -0.1208  0.0220  0.5126
 6477TIP3    H119384   7.574   4.035   4.743 -1.0929  0.3657  0.3515
 6477TIP3    H219385   7.460   4.030   4.843 -0.1601 -1.4280  1.3590
 6478TIP3   OH219386   2.781   5.022   5.153 -0.1329  0.0124  0.3200
 6478TIP3    H119387   2.785   5.105   5.105  0.3876 -1.0064 -1.4328
 6478TIP3    H219388   2.835   5.037   5.231 -0.7234  1.5782  0.4568
 6479TIP3   OH219389   2.751   5.998   3.662  0.1260  0.1351 -0.4427
 6479TIP3    H119390   2.828   5.970   3.612 -0.1784 -2.5225  0.5013
 6479TIP3    H219391   2.680   5.941   3.632 -1.0683  1.3659 -0.0138
 6480TIP3   OH219392   2.148   3.812   5.577 -0.1005  0.5126  0.8197
 6480TIP3    H119393   2.195   3.748   5.523 -0.2635  0.7213  0.4313
 6480TIP3    H219394   2.168   3.897   5.538 -3.1053  0.4103 -1.1558
 6481TIP3   OH219395   7.861   1.235   0.411 -0.3431 -0.1622  0.1251
 6481TIP3    H119396   7.934   1.184   0.375  1.1959  0.3052  2.4814
 6481TIP3    H219397   7.864   1.317   0.362  0.0570 -0.5379 -0.4985
 6482TIP3   OH219398   2.061   4.653   3.197 -0.4195  0.1874 -0.0345
 6482TIP3    H119399   2.042   4.567   3.159  0.7335  0.3722 -1.0855
 6482TIP3    H219400   2.156   4.661   3.190 -0.5519  1.6895 -0.2680
 6483TIP3   OH219401   1.598   6.848   4.504  0.1632 -0.3526 -0.4744
 6483TIP3    H119402   1.688   6.861   4.533 -0.8790  1.1600  2.2904
 6483TIP3    H219403   1.581   6.755   4.521  1.0421 -0.5375 -0.5681
 6484TIP3   OH219404   5.594   0.095   0.578 -0.6894 -0.0364  0.3442
 6484TIP3    H119405   5.646   0.027   0.536  3.4071  1.4119  2.7462
 6484TIP3    H219406   5.541   0.131   0.507  1.0436 -2.0945 -2.1163
 6485TIP3   OH219407   0.861   4.404   6.317  0.1167  0.1581 -0.3722
 6485TIP3    H119408   0.774   4.384   6.352  0.1905 -1.2445 -0.9794
 6485TIP3    H219409   0.845   4.469   6.249 -0.2857  1.0849  0.5989
 6486TIP3   OH219410   1.839   4.478   3.147  0.5228  0.2203 -0.4313
 6486TIP3    H119411   1.796   4.557   3.117  1.1643  0.7124 -0.0722
 6486TIP3    H219412   1.820   4.474   3.241  2.6402  1.3551  0.0822
 6487TIP3   OH219413   2.301   4.296   4.368 -0.4864  0.6576 -0.5076
 6487TIP3    H119414   2.385   4.287   4.322 -0.8156  1.1318 -1.2144
 6487TIP3    H219415   2.309   4.239   4.444  1.2144  2.1975  0.5046
 6488TIP3   OH219416   2.618   1.563   4.257  0.5346  0.4216  0.4668
 6488TIP3    H119417   2.675   1.496   4.219 -0.3247  0.0468 -0.1678
 6488TIP3    H219418   2.532   1.547   4.218  0.0115  1.0488  1.3396
 6489TIP3   OH219419   0.720   3.053   4.415 -0.1582  0.5706 -0.5451
 6489TIP3    H119420   0.641   3.088   4.456  1.2737  1.1253  1.8613
 6489TIP3    H219421   0.695   3.035   4.325 -3.1003  0.4555  0.2538
 6490TIP3   OH219422   2.758   7.298   0.345  0.1333  0.4178 -0.3083
 6490TIP3    H119423   2.739   7.386   0.378  0.5515  0.0277  1.0011
 6490TIP3    H219424   2.672   7.261   0.324 -0.0894  0.8893 -0.2401
 6491TIP3   OH219425   0.386   1.376   5.923  0.6634  0.4292  0.0149
 6491TIP3    H119426   0.357   1.379   5.832  1.9292  0.7312 -0.3777
 6491TIP3    H219427   0.386   1.467   5.952  0.4762  0.3544  0.2588
 6492TIP3   OH219428   0.276   4.855   5.480  0.2330 -0.2858 -0.3744
 6492TIP3    H119429   0.253   4.869   5.388  0.8631 -2.1855 -0.8261
 6492TIP3    H219430   0.342   4.922   5.498  0.1074  0.0947 -1.2981
 6493TIP3   OH219431   1.482   1.757   3.853  0.1357  0.5138 -0.0124
 6493TIP3    H119432   1.422   1.696   3.896 -0.5046  1.6580  0.7510
 6493TIP3    H219433   1.556   1.765   3.913  1.8070 -2.0905 -1.6673
 6494TIP3   OH219434   1.171   2.998   6.315  0.3912 -0.2924 -0.0541
 6494TIP3    H119435   1.237   3.043   6.262 -2.8109  1.9780 -2.3337
 6494TIP3    H219436   1.120   2.947   6.252 -1.5289 -0.0478  1.2551
 6495TIP3   OH219437   2.276   4.889   3.610 -0.4493  0.2201  0.4242
 6495TIP3    H119438   2.371   4.890   3.599 -0.2029  1.7770  2.4150
 6495TIP3    H219439   2.258   4.807   3.656  0.0515  0.4092  0.9594
 6496TIP3   OH219440   6.281   0.572   1.364  0.6104 -0.4493 -0.1080
 6496TIP3    H119441   6.274   0.479   1.387  2.4087 -0.8061 -0.8703
 6496TIP3    H219442   6.362   0.577   1.313  0.0411  1.3895 -0.8608
 6497TIP3   OH219443   1.366   6.730   4.219  0.4129  0.0987 -0.5153
 6497TIP3    H119444   1.327   6.676   4.287  0.0995  0.6462 -0.2556
 6497TIP3    H219445   1.457   6.700   4.214  1.3059  2.1660  2.3445
 6498TIP3   OH219446   7.658   2.047   5.339  0.3454  0.1329 -0.0595
 6498TIP3    H119447   7.671   2.112   5.409  1.0701  0.5351 -0.5580
 6498TIP3    H219448   7.713   1.973   5.366 -0.1129 -0.0882  0.2715
 6499TIP3   OH219449   0.500   4.147   6.299 -0.0286  0.6114  0.8316
 6499TIP3    H119450   0.465   4.058   6.306 -0.4156  0.7183  0.2840
 6499TIP3    H219451   0.536   4.152   6.211  0.5833  0.7895  1.0884
 6500TIP3   OH219452   2.821   4.872   5.562 -0.2579  0.1150 -0.1294
 6500TIP3    H119453   2.822   4.940   5.494  0.6694 -0.5898 -0.8227
 6500TIP3    H219454   2.910   4.873   5.598  0.4424 -2.2745 -1.6889
 6501TIP3   OH219455   1.823   4.974   4.640  0.0158 -0.1750 -0.2434
 6501TIP3    H119456   1.815   5.069   4.633 -0.7785 -0.2307 -0.1267
 6501TIP3    H219457   1.756   4.949   4.703  2.6447 -0.4135  2.5558
 6502TIP3   OH219458   1.013   2.878   5.535  0.3740  0.1628 -0.0305
 6502TIP3    H119459   1.042   2.789   5.556  1.1180  0.5974  0.8436
 6502TIP3    H219460   0.931   2.888   5.583  0.6663  0.1936  0.4747
 6503TIP3   OH219461   2.514   4.989   5.136 -0.8194  0.2418 -0.1631
 6503TIP3    H119462   2.505   4.899   5.167 -0.4901  0.3614  0.2898
 6503TIP3    H219463   2.609   5.001   5.125 -0.9724  0.0454 -1.6993
 6504TIP3   OH219464   1.983   4.881   4.425 -0.0494 -0.1851  0.2426
 6504TIP3    H119465   1.941   4.933   4.493  1.3129 -0.0365  0.9824
 6504TIP3    H219466   1.910   4.844   4.375 -1.0549  0.0926  1.4774
 6505TIP3   OH219467   4.821   5.421   3.241 -0.1198 -0.7941 -0.4512
 6505TIP3    H119468   4.813   5.396   3.333  1.3604 -0.6000 -0.2657
 6505TIP3    H219469   4.772   5.503   3.234  1.8903  0.5273  0.7212
 6506TIP3   OH219470   0.551   3.425   5.264 -0.5727 -0.2413  0.1844
 6506TIP3    H119471   0.640   3.391   5.249 -0.6251 -0.3164  0.0429
 6506TIP3    H219472   0.503   3.403   5.184 -0.7950 -0.4460  0.3755
 6507TIP3   OH219473   1.954   4.705   3.464  0.2108  0.2846 -0.4924
 6507TIP3    H119474   1.956   4.725   3.371 -0.4922  0.6292 -0.4399
 6507TIP3    H219475   2.030   4.649   3.479  0.0665 -0.1431 -1.3622
 6508TIP3   OH219476   0.069   4.496   4.866  0.4087 -0.2524  0.7697
 6508TIP3    H119477  -0.001   4.558   4.849  0.3946 -0.6993 -0.8537
 6508TIP3    H219478   0.067   4.435   4.792  2.9001  0.0931  0.3636
 6509TIP3   OH219479   1.824   4.104   5.141  0.4706 -0.1039  0.4655
 6509TIP3    H119480   1.884   4.061   5.080 -0.2492  1.2210 -1.2005
 6509TIP3    H219481   1.880   4.164   5.191  0.8988 -0.4663  0.4233
 6510TIP3   OH219482   1.441   3.183   5.071 -0.0588 -0.1916 -0.3562
 6510TIP3    H119483   1.363   3.135   5.099 -2.0911  2.4303 -1.3417
 6510TIP3    H219484   1.414   3.228   4.992  2.5527  0.6261 -0.8158
 6511TIP3   OH219485   7.262   2.902   4.935 -0.2254  0.1546  0.3525
 6511TIP3    H119486   7.282   2.995   4.923  1.5537 -0.3194 -0.5309
 6511TIP3    H219487   7.220   2.897   5.021 -1.2658  1.8992 -0.0360
 6512TIP3   OH219488   6.677   3.418   5.561  0.4899  0.0234 -0.1379
 6512TIP3    H119489   6.735   3.493   5.573  1.7597 -0.7951 -1.0722
 6512TIP3    H219490   6.665   3.411   5.466  1.3601 -1.6672 -0.1445
 6513TIP3   OH219491   1.869   3.851   5.474  0.4752 -0.3515  0.1324
 6513TIP3    H119492   1.827   3.927   5.512  0.4912  0.8001 -2.0648
 6513TIP3    H219493   1.931   3.822   5.541  0.1770  1.3096  1.1582
 6514TIP3   OH219494   2.734   3.282   4.802 -0.2723  0.4277 -0.1635
 6514TIP3    H119495   2.736   3.355   4.740 -4.3798 -1.4436 -2.7139
 6514TIP3    H219496   2.715   3.322   4.887 -0.7564  2.4843 -1.2094
 6515TIP3   OH219497   0.912   6.662   0.403 -0.3295 -0.2435 -0.5153
 6515TIP3    H119498   0.906   6.587   0.343  0.6457 -1.2146  0.5703
 6515TIP3    H219499   0.998   6.699   0.385  0.0306 -0.6367  0.3859
 6516TIP3   OH219500   3.696   3.799   5.453 -0.0061  0.7350  0.1131
 6516TIP3    H119501   3.737   3.747   5.522 -1.4877  0.8119  1.0568
 6516TIP3    H219502   3.629   3.742   5.416  0.7855  0.6858 -1.2948
 6517TIP3   OH219503   4.635   2.947   1.262  0.6071 -0.5278 -0.5302
 6517TIP3    H119504   4.585   3.028   1.259  0.8706 -0.3070  0.8422
 6517TIP3    H219505   4.578   2.885   1.307  2.5412  0.4481  3.4178
 6518TIP3   OH219506   2.406   5.902   3.862 -0.8835  0.1384 -0.3135
 6518TIP3    H119507   2.501   5.912   3.872 -0.7214 -0.8869 -0.8679
 6518TIP3    H219508   2.393   5.809   3.845 -2.0029  0.2633 -0.1643
 6519TIP3   OH219509   6.993   0.950   0.183 -0.2668 -0.0819 -0.4999
 6519TIP3    H119510   7.018   0.863   0.152 -1.7311 -1.0150  0.8735
 6519TIP3    H219511   7.020   0.951   0.275 -0.0004  1.0184 -0.5856
 6520TIP3   OH219512   7.155   2.963   6.465 -0.5862 -0.1928  0.1417
 6520TIP3    H119513   7.133   3.027   6.398  0.5604  1.2489  1.1020
 6520TIP3    H219514   7.087   2.896   6.458 -0.6958  0.1323 -2.1750
 6521TIP3   OH219515   1.726   6.042   5.860  0.8606  0.1652  0.2855
 6521TIP3    H119516   1.740   6.060   5.767 -2.0018  0.2803 -0.1632
 6521TIP3    H219517   1.680   5.958   5.862  0.2017  0.5395  1.5521
 6522TIP3   OH219518   2.115   2.942   5.317 -0.3685 -0.5533 -0.4569
 6522TIP3    H119519   2.187   2.993   5.281  0.5897 -0.6965  1.1800
 6522TIP3    H219520   2.101   2.872   5.253  0.9052 -0.4816 -0.8352
 6523TIP3   OH219521   0.719   4.893   3.692  0.2081 -0.7050 -0.7233
 6523TIP3    H119522   0.785   4.928   3.632  0.0676  4.1368  1.7155
 6523TIP3    H219523   0.760   4.898   3.778 -1.5563 -2.3999  0.2618
 6524TIP3   OH219524   3.095   4.292   6.109 -0.1414 -0.3105  0.3342
 6524TIP3    H119525   3.020   4.348   6.092  0.4296  0.3812  0.0586
 6524TIP3    H219526   3.100   4.287   6.205  0.5518  1.1498  0.3949
 6525TIP3   OH219527   2.564   5.608   4.801 -0.6188  0.0425  0.1672
 6525TIP3    H119528   2.517   5.584   4.721 -0.2281  0.1790 -0.1048
 6525TIP3    H219529   2.651   5.572   4.789 -0.8855 -0.9030  1.0222
 6526TIP3   OH219530   6.990   0.774   0.390 -0.4408 -0.6406 -0.1178
 6526TIP3    H119531   7.074   0.750   0.429 -0.2784 -0.4849 -0.3668
 6526TIP3    H219532   6.925   0.721   0.437 -0.5465  1.4447  2.2052
 6527TIP3   OH219533   1.175   7.020   0.414 -0.0025 -0.1353 -0.4133
 6527TIP3    H119534   1.262   7.042   0.448  0.1535  0.4189 -1.1458
 6527TIP3    H219535   1.189   6.940   0.364 -0.3895 -1.4027  1.4870
 6528TIP3   OH219536   2.744   5.288   3.364  0.0226  0.0731  0.3896
 6528TIP3    H119537   2.746   5.193   3.352 -1.7312  0.0827 -0.1131
 6528TIP3    H219538   2.824   5.319   3.323  0.6647 -1.2002  0.6502
 6529TIP3   OH219539   1.312   5.542   0.266  0.0724 -0.0209 -0.3763
 6529TIP3    H119540   1.360   5.624   0.272 -1.2866  0.6823  1.1469
 6529TIP3    H219541   1.380   5.475   0.253  1.1917  1.2994 -1.4599
 6530TIP3   OH219542   2.567   3.978   5.120  0.0094  0.4501 -0.0005
 6530TIP3    H119543   2.643   3.948   5.069  1.1027  0.3853  1.6494
 6530TIP3    H219544   2.604   4.025   5.194 -1.4830 -1.3397  1.9611
 6531TIP3   OH219545   0.827   5.077   3.963 -0.0360  0.0428  0.4481
 6531TIP3    H119546   0.838   5.012   4.031  0.3500  1.2253  1.5353
 6531TIP3    H219547   0.812   5.159   4.010 -0.7541  0.7097 -0.8883
 6532TIP3   OH219548   2.695   3.189   5.641  0.3944 -0.3643 -0.4381
 6532TIP3    H119549   2.730   3.275   5.661  0.4228 -0.0217 -1.9380
 6532TIP3    H219550   2.765   3.128   5.664  0.8642  0.1021 -0.6314
 6533TIP3   OH219551   1.350   4.105   3.035  0.4914 -0.7210 -0.1920
 6533TIP3    H119552   1.322   4.014   3.044 -1.2662 -0.2593 -0.6133
 6533TIP3    H219553   1.315   4.133   2.951 -0.5827  0.8604  0.7428
 6534TIP3   OH219554   1.522   5.061   1.257  0.9208  0.6603  0.4740
 6534TIP3    H119555   1.555   5.107   1.333  1.7120 -1.0482  1.1925
 6534TIP3    H219556   1.600   5.028   1.212  0.3420 -2.0333  1.3087
 6535TIP3   OH219557   0.292   1.817   5.414  0.8120  0.3150  0.4218
 6535TIP3    H119558   0.299   1.897   5.362 -2.6237  1.0048  0.8795
 6535TIP3    H219559   0.338   1.751   5.362 -1.3144  1.2931 -2.9035
 6536TIP3   OH219560   0.193   2.243   4.925  0.1391  0.1557 -0.0347
 6536TIP3    H119561   0.168   2.269   4.836  1.7907  1.2803 -0.1913
 6536TIP3    H219562   0.136   2.295   4.982 -0.7123 -0.3448 -0.4219
 6537TIP3   OH219563   2.101   4.539   4.123 -0.0386 -0.1808  0.3309
 6537TIP3    H119564   2.070   4.496   4.204 -1.3682  0.0372 -0.0471
 6537TIP3    H219565   2.196   4.533   4.128 -0.1557 -1.8133  1.0375
 6538TIP3   OH219566   0.520   2.551   4.571 -0.3266 -0.1616  0.3919
 6538TIP3    H119567   0.577   2.594   4.506 -1.1648  1.1365  0.4932
 6538TIP3    H219568   0.574   2.480   4.606  0.6191 -0.0386 -0.7550
 6539TIP3   OH219569   2.182   5.627   3.987  0.0907  0.2982  0.2115
 6539TIP3    H119570   2.142   5.655   4.069  0.9947 -2.0632  1.4920
 6539TIP3    H219571   2.113   5.639   3.921 -1.3146  0.2966  1.6544
 6540TIP3   OH219572   1.281   3.625   5.168 -0.2196 -0.0386  1.1611
 6540TIP3    H119573   1.241   3.661   5.247  3.5396  0.9300  2.7388
 6540TIP3    H219574   1.356   3.682   5.151 -0.8015 -0.3564 -3.0213
 6541TIP3   OH219575   2.934   5.805   4.467  0.2668  0.2642  0.1936
 6541TIP3    H119576   3.006   5.784   4.527 -1.1544 -0.7518  1.6024
 6541TIP3    H219577   2.917   5.723   4.420 -0.1620  0.4203  0.0717
 6542TIP3   OH219578   7.086   1.458   0.169 -0.4641 -0.6955 -0.3457
 6542TIP3    H119579   7.100   1.364   0.161  0.4126 -0.5273 -0.8268
 6542TIP3    H219580   6.991   1.469   0.163 -0.6640 -1.6491  0.7794
 6543TIP3   OH219581   2.188   4.387   3.334 -0.3131  0.1768  0.0705
 6543TIP3    H119582   2.163   4.408   3.424 -0.0890  0.9135 -0.0299
 6543TIP3    H219583   2.125   4.320   3.306  0.2372 -0.7840  1.1081
 6544TIP3   OH219584   3.119   0.476   0.398 -0.0057 -0.5410 -0.4579
 6544TIP3    H119585   3.208   0.494   0.367  0.6127  0.3933  1.7571
 6544TIP3    H219586   3.063   0.532   0.345  0.9128  0.3095 -0.5488
 6545TIP3   OH219587   2.138   5.691   5.198 -0.1552  0.2857 -0.2898
 6545TIP3    H119588   2.052   5.652   5.186  0.2796 -0.8965  0.3743
 6545TIP3    H219589   2.198   5.631   5.154  0.3121  1.2603 -1.0146
 6546TIP3   OH219590   1.875   3.836   3.982 -0.4332 -0.6243  0.8062
 6546TIP3    H119591   1.877   3.781   4.060  0.4114 -1.9740 -0.1304
 6546TIP3    H219592   1.859   3.924   4.014 -1.7640 -1.4076  2.3539
 6547TIP3   OH219593   1.094   3.164   5.268 -0.3603 -0.1253 -0.2953
 6547TIP3    H119594   1.182   3.197   5.287 -0.1721 -0.3982 -0.6791
 6547TIP3    H219595   1.066   3.216   5.192  0.8898 -2.4492 -2.4408
 6548TIP3   OH219596   7.746   1.035   0.928  0.0189  0.1016  0.3133
 6548TIP3    H119597   7.813   0.968   0.918  1.2295  1.0379  1.8211
 6548TIP3    H219598   7.769   1.102   0.864 -0.0396 -0.0386  0.1482
 6549TIP3   OH219599   3.538   5.138   4.197 -0.3064  0.3516 -0.2636
 6549TIP3    H119600   3.582   5.136   4.282 -1.7081  0.0224  0.4708
 6549TIP3    H219601   3.490   5.221   4.197 -0.6424  0.1562 -0.5630
 6550TIP3   OH219602   2.148   5.037   6.350 -0.4104 -0.3437  0.0933
 6550TIP3    H119603   2.144   4.971   6.418 -0.3684 -0.3817  0.0591
 6550TIP3    H219604   2.241   5.046   6.330 -0.4354 -0.4521 -0.0752
 6551TIP3   OH219605   1.289   6.206   4.395  0.4481 -0.3513 -0.1857
 6551TIP3    H119606   1.355   6.192   4.464  2.0295 -1.0819 -1.8147
 6551TIP3    H219607   1.205   6.188   4.438  1.4710 -1.6533  1.3238
 6552TIP3   OH219608   0.474   2.207   6.158 -0.2724  0.8562 -0.2680
 6552TIP3    H119609   0.433   2.163   6.233  0.6745 -0.1183 -0.3284
 6552TIP3    H219610   0.446   2.299   6.167 -1.2214  0.4969  0.5451
 6553TIP3   OH219611   3.351   4.940   2.219 -0.5808 -0.3918  0.1832
 6553TIP3    H119612   3.431   4.935   2.167  0.2624 -2.4992  1.5994
 6553TIP3    H219613   3.321   4.849   2.225 -2.4265  0.2258  0.6818
 6554TIP3   OH219614   6.155   6.503   5.302 -0.6044 -0.6146 -0.2870
 6554TIP3    H119615   6.072   6.521   5.258 -0.9382  0.7440  0.8488
 6554TIP3    H219616   6.219   6.558   5.256 -0.6630 -0.3800 -0.0933
 6555TIP3   OH219617   0.861   4.405   4.656  0.0543 -0.3935  0.2561
 6555TIP3    H119618   0.910   4.410   4.573 -1.9043  0.6170 -0.8960
 6555TIP3    H219619   0.875   4.491   4.696  2.0850 -1.3311  1.6675
 6556TIP3   OH219620   2.723   2.310   5.184 -0.1259  0.1753 -0.9513
 6556TIP3    H119621   2.795   2.371   5.164 -1.5287  2.0205 -0.5542
 6556TIP3    H219622   2.645   2.355   5.152 -1.1559 -1.6041 -0.9557
 6557TIP3   OH219623   0.664   3.400   3.891 -0.2377  0.0137  0.3112
 6557TIP3    H119624   0.661   3.494   3.913 -2.0182 -0.1957  1.1119
 6557TIP3    H219625   0.595   3.389   3.825  0.4617 -0.6098 -0.3202
 6558TIP3   OH219626   0.588   5.669   5.315  0.5225  0.3204  0.0515
 6558TIP3    H119627   0.614   5.679   5.406  1.2743  2.4870 -0.3572
 6558TIP3    H219628   0.497   5.701   5.312  0.6229  0.6089 -0.0046
 6559TIP3   OH219629   2.486   4.476   5.390  0.5869  0.2123 -0.3497
 6559TIP3    H119630   2.567   4.426   5.381  0.0377 -0.3548 -2.5140
 6559TIP3    H219631   2.417   4.413   5.367 -0.2979  1.2908 -0.6919
 6560TIP3   OH219632   2.465   3.832   5.738 -0.0473 -0.0305 -0.0326
 6560TIP3    H119633   2.557   3.855   5.744 -0.1944  0.6163 -0.1459
 6560TIP3    H219634   2.443   3.845   5.645  0.0341 -1.3047 -0.2308
 6561TIP3   OH219635   0.454   4.290   3.666  1.0956 -0.2275  0.2053
 6561TIP3    H119636   0.477   4.300   3.574  0.0776  2.7427  0.2186
 6561TIP3    H219637   0.368   4.247   3.665  0.1357  1.6413 -0.3449
 6562TIP3   OH219638   0.712   5.399   5.255 -0.4402  0.2229  0.6759
 6562TIP3    H119639   0.630   5.445   5.242 -0.0497  0.4429 -1.2199
 6562TIP3    H219640   0.778   5.454   5.212  0.4848 -0.6027  1.0021
 6563TIP3   OH219641   2.113   6.265   0.204  0.0449 -0.6108 -0.2924
 6563TIP3    H119642   2.099   6.196   0.139  1.1797  0.5207 -1.7939
 6563TIP3    H219643   2.180   6.229   0.263  1.6593 -0.2886 -1.8883
 6564TIP3   OH219644   2.480   2.439   5.916 -0.0605  0.1742  0.6225
 6564TIP3    H119645   2.538   2.379   5.869 -1.6378 -1.0831  0.2233
 6564TIP3    H219646   2.449   2.499   5.849  0.9868  1.0336  0.8923
 6565TIP3   OH219647   2.389   3.613   5.093  0.6756 -0.6497  0.2834
 6565TIP3    H119648   2.457   3.550   5.070  1.4214  0.7209 -1.3045
 6565TIP3    H219649   2.338   3.624   5.013 -0.0781  0.0120  0.8443
 6566TIP3   OH219650   7.470   2.380   6.056  0.3240 -0.2077 -0.0454
 6566TIP3    H119651   7.516   2.394   5.974  1.5079 -0.1649  0.6139
 6566TIP3    H219652   7.396   2.323   6.033  1.5164 -1.4392 -0.8760
 6567TIP3   OH219653   0.845   2.594   5.100 -0.3670 -0.5562  0.5546
 6567TIP3    H119654   0.834   2.517   5.157  2.2474 -1.6433 -0.3182
 6567TIP3    H219655   0.814   2.565   5.014  1.6111 -1.0278 -0.0267
 6568TIP3   OH219656   2.255   4.697   4.635  0.1591  0.4209  0.5862
 6568TIP3    H119657   2.292   4.721   4.550  1.6102 -2.0622  0.4695
 6568TIP3    H219658   2.218   4.779   4.669  1.6198  1.9577 -1.3812
 6569TIP3   OH219659   0.588   4.201   6.049 -0.2997 -0.5102 -0.8465
 6569TIP3    H119660   0.634   4.262   5.992 -0.1195 -0.5944 -0.7931
 6569TIP3    H219661   0.591   4.117   6.003  1.6712 -1.0539  0.2237
 6570TIP3   OH219662  -0.008   1.868   5.234  0.1982 -0.0687 -0.4451
 6570TIP3    H119663  -0.028   1.857   5.327  0.1595  0.7955 -0.3473
 6570TIP3    H219664   0.055   1.799   5.214 -1.1391 -1.3877 -0.2102
 6571TIP3   OH219665   6.814   1.440   0.069  1.0775  0.5167  0.3402
 6571TIP3    H119666   6.770   1.361   0.038  2.5694  0.3209 -1.3255
 6571TIP3    H219667   6.761   1.469   0.143 -0.3862 -1.1465 -0.0251
 6572TIP3   OH219668   1.132   4.616   6.128  0.0739 -0.0126 -0.0020
 6572TIP3    H119669   1.157   4.699   6.087  1.0229 -1.1908 -1.8631
 6572TIP3    H219670   1.167   4.622   6.217  2.4688  0.5249 -0.9403
 6573TIP3   OH219671   3.973   0.768   5.417  0.1349  0.3262 -0.1918
 6573TIP3    H119672   4.030   0.845   5.409 -0.9276  1.0438 -1.0346
 6573TIP3    H219673   3.937   0.755   5.329  0.8627 -1.5978 -0.2328
 6574TIP3   OH219674   4.050   3.323   4.946 -0.4349  0.3743  0.0675
 6574TIP3    H119675   4.119   3.370   4.993 -1.4913  0.4816  1.5503
 6574TIP3    H219676   3.978   3.317   5.009 -0.9942 -1.6013 -0.7320
 6575TIP3   OH219677   1.595   4.908   5.683  0.0272 -0.2953 -0.3329
 6575TIP3    H119678   1.644   4.925   5.763 -0.8489  0.8228 -0.0234
 6575TIP3    H219679   1.632   4.968   5.618 -0.0339 -0.3942 -0.4599
 6576TIP3   OH219680   1.125   5.318   2.846  0.0221 -0.3703  0.4313
 6576TIP3    H119681   1.070   5.251   2.887  1.5281 -0.3922  2.5063
 6576TIP3    H219682   1.183   5.347   2.917  2.4299 -0.0954 -1.6170
 6577TIP3   OH219683   3.119   5.193   3.887  0.0387  0.4495  0.6361
 6577TIP3    H119684   3.069   5.200   3.806  0.7514  0.5104  0.1888
 6577TIP3    H219685   3.182   5.265   3.882 -1.0386  1.5258  2.0573
 6578TIP3   OH219686   1.637   3.031   4.143  0.1305 -0.1429  0.5647
 6578TIP3    H119687   1.617   3.124   4.133 -0.7677 -0.1648  1.9337
 6578TIP3    H219688   1.618   2.993   4.058 -0.7995  0.7043  0.3793
 6579TIP3   OH219689   0.170   3.553   5.857  0.5622 -0.0897  0.4565
 6579TIP3    H119690   0.106   3.558   5.787  1.0451  0.9887  0.0764
 6579TIP3    H219691   0.120   3.522   5.933 -0.6829  1.8744  0.4778
 6580TIP3   OH219692   1.943   3.035   2.830 -0.6226 -0.2194 -0.0012
 6580TIP3    H119693   1.909   2.952   2.863 -1.9760  0.3555  0.0880
 6580TIP3    H219694   2.004   3.064   2.898 -0.6060 -0.8358  0.2547
 6581TIP3   OH219695   1.491   1.921   5.760  0.6708  0.2264  0.9284
 6581TIP3    H119696   1.420   1.965   5.712  0.6403  1.0344  1.6959
 6581TIP3    H219697   1.541   1.876   5.692 -0.0772  0.3586  0.2769
 6582TIP3   OH219698   0.742   4.289   4.065  0.1324  0.4184 -0.2977
 6582TIP3    H119699   0.767   4.352   4.133  2.3321  0.1531 -0.8275
 6582TIP3    H219700   0.733   4.206   4.111 -1.8584  0.9063  0.2429
 6583TIP3   OH219701   6.418   4.125   4.111 -0.3310  0.0864  0.2664
 6583TIP3    H119702   6.383   4.037   4.097 -1.8957  1.0005 -1.8259
 6583TIP3    H219703   6.483   4.136   4.042  0.1243  0.4442  0.7500
 6584TIP3   OH219704   0.865   4.052   4.794  0.1965  0.2484  0.6162
 6584TIP3    H119705   0.870   3.957   4.787 -1.2541  0.2251 -0.2855
 6584TIP3    H219706   0.947   4.083   4.756 -1.1373 -0.4883 -3.0483
 6585TIP3   OH219707   1.889   2.820   3.905 -0.2040 -0.1666 -0.2314
 6585TIP3    H119708   1.818   2.762   3.878  1.2113 -2.1803  0.2496
 6585TIP3    H219709   1.895   2.808   3.999  0.5513  0.2418 -0.2243
 6586TIP3   OH219710   5.235   0.106   0.083  0.1179  0.1457  0.2010
 6586TIP3    H119711   5.279   0.157   0.015  1.0669 -0.5132  0.3179
 6586TIP3    H219712   5.240   0.161   0.162 -0.8276  0.8315 -0.2045
 6587TIP3   OH219713   1.943   4.846   5.603  0.2916 -0.3562 -0.4205
 6587TIP3    H119714   1.945   4.770   5.660 -3.3733  0.0827  0.4040
 6587TIP3    H219715   1.859   4.841   5.558  1.0141  1.9153 -2.1574
 6588TIP3   OH219716   5.718   0.380   0.546  0.5356  0.0446 -0.1367
 6588TIP3    H119717   5.712   0.289   0.574 -0.1839 -0.2354 -1.1928
 6588TIP3    H219718   5.799   0.384   0.494  0.4178 -0.0565 -0.3285
 6589TIP3   OH219719   7.739   2.209   6.259 -0.2191  0.3236  0.1335
 6589TIP3    H119720   7.833   2.228   6.251 -0.3771  0.9269 -0.2391
 6589TIP3    H219721   7.706   2.274   6.321 -0.4977  0.4249 -0.1229
 6590TIP3   OH219722   6.059   2.668   0.282  0.0270 -0.0687 -0.0864
 6590TIP3    H119723   6.151   2.677   0.309 -0.3930 -1.1143  1.8297
 6590TIP3    H219724   6.011   2.728   0.340 -0.3798  1.5993 -2.0730
 6591TIP3   OH219725   2.698   5.661   0.909  1.0568  0.1872 -0.2437
 6591TIP3    H119726   2.701   5.620   0.995  1.4262  0.9080  0.0926
 6591TIP3    H219727   2.605   5.672   0.891  0.9355 -1.4708 -0.6683
 6592TIP3   OH219728   2.203   4.935   3.043 -0.8173  0.1048  0.0622
 6592TIP3    H119729   2.230   4.971   2.959  0.1027 -1.4976 -0.3618
 6592TIP3    H219730   2.117   4.896   3.026 -0.7198 -0.0433 -0.0973
 6593TIP3   OH219731   1.690   5.031   2.622  0.1541 -0.1197  0.0908
 6593TIP3    H119732   1.719   5.121   2.636 -0.3199  0.4008 -2.0221
 6593TIP3    H219733   1.603   5.028   2.662 -0.3284  0.7214 -0.8664
 6594TIP3   OH219734   5.476   0.527   0.942  0.2722  0.3992 -0.5868
 6594TIP3    H119735   5.524   0.510   1.023 -0.9030 -2.2392 -0.3890
 6594TIP3    H219736   5.453   0.620   0.947  0.4347  0.3425  2.0035
 6595TIP3   OH219737   6.864   5.028   6.143 -0.0922 -0.4998 -0.2138
 6595TIP3    H119738   6.780   4.982   6.148  0.9756 -2.5984 -0.7550
 6595TIP3    H219739   6.913   4.980   6.077  1.3983  0.9443 -0.1747
 6596TIP3   OH219740   6.711   4.707   5.071 -0.3640 -0.0204  0.5041
 6596TIP3    H119741   6.652   4.658   5.014 -0.7010 -1.6013  2.1478
 6596TIP3    H219742   6.798   4.692   5.036 -0.7912  1.2931 -1.1984
 6597TIP3   OH219743   7.845   4.910   4.399 -0.3854  0.2496  0.3947
 6597TIP3    H119744   7.869   4.919   4.491  2.1036  1.1775 -0.3130
 6597TIP3    H219745   7.927   4.888   4.355 -1.4390  0.3754 -1.6835
 6598TIP3   OH219746   3.064   4.896   5.652 -0.2476  0.6975  0.8073
 6598TIP3    H119747   3.113   4.832   5.602 -1.8445 -1.6145  2.1253
 6598TIP3    H219748   3.104   4.893   5.739 -2.2842 -0.7707  1.7188
 6599TIP3   OH219749   0.870   2.958   4.984  0.5281  0.4512  0.3042
 6599TIP3    H119750   0.854   2.943   5.078 -0.9572  0.2806  0.0324
 6599TIP3    H219751   0.949   2.907   4.965  0.1863 -0.4429  1.2144
 6600TIP3   OH219752   1.982   4.923   3.624 -0.5350 -0.2132  0.3631
 6600TIP3    H119753   2.041   4.974   3.568 -0.6841 -0.2791  0.1470
 6600TIP3    H219754   1.968   4.842   3.576  0.2565 -0.7539  1.0181
 6601TIP3   OH219755   2.543   6.502   5.716  0.2122 -0.0130 -0.5442
 6601TIP3    H119756   2.496   6.481   5.636 -0.1012  0.8086 -0.5814
 6601TIP3    H219757   2.528   6.427   5.774 -2.5355  0.9481  0.0616
 6602TIP3   OH219758   3.482   4.709   3.306 -0.4510  0.4807 -0.3170
 6602TIP3    H119759   3.484   4.633   3.248  0.9746  0.4808 -0.2933
 6602TIP3    H219760   3.574   4.722   3.331 -0.9977  0.6697  1.6754
 6603TIP3   OH219761   3.189   4.920   3.888  0.0021  0.1760 -0.5087
 6603TIP3    H119762   3.239   4.901   3.967  1.9718 -0.6411 -1.9103
 6603TIP3    H219763   3.178   5.015   3.889  1.0534  0.2905  0.1136
 6604TIP3   OH219764   2.035   1.104   1.541  0.0157 -0.7403  0.2269
 6604TIP3    H119765   2.029   1.035   1.475  0.1697 -1.4592  0.9586
 6604TIP3    H219766   2.011   1.184   1.494  1.6118 -1.0099 -1.0902
 6605TIP3   OH219767   2.183   3.462   4.590  0.3233  0.5529 -0.5749
 6605TIP3    H119768   2.185   3.557   4.582  0.5488  0.6204  0.2343
 6605TIP3    H219769   2.266   3.433   4.554 -0.0045  0.6122 -1.3945
 6606TIP3   OH219770   0.456   5.491   5.546 -0.2326  0.6435 -0.3742
 6606TIP3    H119771   0.408   5.420   5.504 -0.0001  1.6794 -2.4970
 6606TIP3    H219772   0.541   5.453   5.567 -1.3105 -0.6734  1.7140
 6607TIP3   OH219773   7.928   3.490   5.485 -0.3403 -0.5450 -0.1687
 6607TIP3    H119774   7.909   3.518   5.575 -0.1480 -0.0932 -0.2657
 6607TIP3    H219775   7.861   3.534   5.432  1.4599  1.7785 -0.6237
 6608TIP3   OH219776   7.640   2.932   4.698  0.5759  0.6244 -0.1198
 6608TIP3    H119777   7.652   2.930   4.793 -0.0712  0.2880 -0.0435
 6608TIP3    H219778   7.591   3.013   4.682 -1.5413 -0.5642  0.1060
 6609TIP3   OH219779   0.340   4.344   5.177 -0.0805 -0.4284  0.3626
 6609TIP3    H119780   0.397   4.400   5.125  0.3894 -0.0335  1.2894
 6609TIP3    H219781   0.329   4.265   5.124  0.6334 -0.1531 -0.2040
 6610TIP3   OH219782   6.788   3.513   4.950 -0.3823  0.0899  0.1354
 6610TIP3    H119783   6.814   3.421   4.956 -0.2652  0.1634  0.6945
 6610TIP3    H219784   6.757   3.522   4.860 -1.4822 -0.7880  0.4138
 6611TIP3   OH219785   0.710   3.467   5.666 -0.0131 -0.3015  0.1172
 6611TIP3    H119786   0.655   3.541   5.693 -0.3492  0.2082 -1.8124
 6611TIP3    H219787   0.654   3.417   5.606  0.5614 -1.5644  0.6204
 6612TIP3   OH219788   0.869   5.294   4.881 -0.0879  0.3253 -0.6419
 6612TIP3    H119789   0.910   5.351   4.815  0.8871 -1.2516 -1.4211
 6612TIP3    H219790   0.940   5.273   4.941  0.2544 -2.3115 -1.9200
 6613TIP3   OH219791   3.778   4.155   1.039 -0.3797 -0.6209 -0.2238
 6613TIP3    H119792   3.854   4.200   1.076  0.2664  0.1850 -2.4610
 6613TIP3    H219793   3.785   4.065   1.073  2.7199 -1.1070 -1.9612
 6614TIP3   OH219794   3.167   4.571   5.242 -0.6123  0.6437 -0.1860
 6614TIP3    H119795   3.184   4.507   5.311 -0.9119  0.1309 -0.5835
 6614TIP3    H219796   3.247   4.574   5.191  0.1034  2.0288  0.9796
 6615TIP3   OH219797   6.928   0.562   6.217  0.0660  0.1498 -0.6523
 6615TIP3    H119798   6.867   0.532   6.284  1.5105  1.3670  1.2833
 6615TIP3    H219799   6.887   0.539   6.134 -2.8257  0.6351  0.6007
 6616TIP3   OH219800   1.767   0.341   1.343 -0.2245  0.2840 -0.4773
 6616TIP3    H119801   1.849   0.390   1.340  0.7439 -1.1296  2.0143
 6616TIP3    H219802   1.712   0.390   1.405 -0.9693  0.7409 -1.4779
 6617TIP3   OH219803   2.852   5.610   2.913 -0.0208 -0.5111  0.3897
 6617TIP3    H119804   2.831   5.659   2.834 -0.2066 -1.2337 -0.0110
 6617TIP3    H219805   2.848   5.675   2.983  1.9184  0.5235 -0.4167
 6618TIP3   OH219806   6.618   4.862   2.973  0.0157  0.3035  0.1535
 6618TIP3    H119807   6.643   4.875   3.064  0.1622  0.1508  0.1359
 6618TIP3    H219808   6.565   4.782   2.974 -3.3728  2.4898  0.7069
 6619TIP3   OH219809   6.912   6.594   4.943  0.0592  0.7005  0.7869
 6619TIP3    H119810   6.974   6.533   4.904  0.6091  1.5245  0.3667
 6619TIP3    H219811   6.896   6.660   4.876 -2.0254 -0.0310  0.5481
 6620TIP3   OH219812   3.388   5.025   1.646 -0.2149 -0.4256  0.0133
 6620TIP3    H119813   3.478   5.056   1.660 -0.4259 -0.1080  0.6434
 6620TIP3    H219814   3.361   5.068   1.565 -0.6323  1.3282  1.0553
 6621TIP3   OH219815   0.221   5.912   5.922  0.6203 -0.1622  0.2828
 6621TIP3    H119816   0.174   5.950   5.847  3.0186 -0.5925 -1.5230
 6621TIP3    H219817   0.186   5.957   5.998 -1.0470  1.1549 -1.2126
 6622TIP3   OH219818   7.806   4.271   5.598 -0.6683 -0.0666 -0.7591
 6622TIP3    H119819   7.765   4.186   5.587  0.0398 -0.3989 -0.8392
 6622TIP3    H219820   7.883   4.255   5.652  0.0701  0.3358 -1.6731
 6623TIP3   OH219821   0.963   5.187   3.038  0.1486 -0.0557 -0.2240
 6623TIP3    H119822   1.021   5.243   3.089  1.4826 -1.5113 -0.1106
 6623TIP3    H219823   0.885   5.241   3.023  0.1776  0.7983  2.3683
 6624TIP3   OH219824   7.815   3.247   4.544 -0.1498 -0.1587  0.1995
 6624TIP3    H119825   7.898   3.223   4.587 -0.0720 -0.2897 -0.0227
 6624TIP3    H219826   7.793   3.171   4.491 -0.2816 -0.0242  0.0615
 6625TIP3   OH219827   7.143   6.644   3.624  0.4259  0.4315 -0.1037
 6625TIP3    H119828   7.202   6.633   3.699  0.3293 -0.7002 -0.1793
 6625TIP3    H219829   7.117   6.555   3.601 -0.0838  0.8178 -1.0613
 6626TIP3   OH219830   7.746   7.050   3.336 -0.3959 -0.4403  0.1270
 6626TIP3    H119831   7.665   7.059   3.387 -0.0328 -2.3800  1.1031
 6626TIP3    H219832   7.807   7.007   3.396  0.7680 -0.6787 -1.2081
 6627TIP3   OH219833   0.391   2.916   3.645  0.5612  0.4750 -0.4305
 6627TIP3    H119834   0.328   2.845   3.628  0.9242 -0.0175  0.2857
 6627TIP3    H219835   0.446   2.883   3.715  1.4202  1.0449 -0.8321
 6628TIP3   OH219836   3.231   4.387   3.478 -0.4246 -0.2692  0.0979
 6628TIP3    H119837   3.173   4.349   3.412 -0.1249  0.6623 -0.7065
 6628TIP3    H219838   3.314   4.342   3.466  0.5843  2.1143 -2.3131
 6629TIP3   OH219839   1.120   4.826   1.610 -0.0703 -0.5500 -0.3613
 6629TIP3    H119840   1.193   4.765   1.617  0.3092 -0.1171 -0.5653
 6629TIP3    H219841   1.048   4.774   1.574  0.8886 -0.3576 -2.5985
 6630TIP3   OH219842   0.498   3.832   4.137  0.1215  0.2346  0.0746
 6630TIP3    H119843   0.540   3.907   4.177 -0.2471 -0.4280  1.7629
 6630TIP3    H219844   0.406   3.858   4.127 -0.2340 -0.3565  1.6564
 6631TIP3   OH219845   0.210   3.028   4.361 -0.3845 -0.2797  0.2992
 6631TIP3    H119846   0.168   3.011   4.445  0.4202 -0.1676  0.7328
 6631TIP3    H219847   0.284   2.966   4.358  0.4362  0.6926  0.3059
 6632TIP3   OH219848   2.168   4.457   4.728 -0.1676  0.0363 -0.2357
 6632TIP3    H119849   2.259   4.488   4.729 -0.1540 -0.0080  1.0156
 6632TIP3    H219850   2.118   4.532   4.697  0.5568 -0.7545 -3.5097
 6633TIP3   OH219851   2.479   5.672   3.102 -0.8493  0.2079 -0.8626
 6633TIP3    H119852   2.415   5.734   3.137  0.1772  1.3015 -0.9284
 6633TIP3    H219853   2.516   5.629   3.179  1.4429  2.6431 -0.5438
 6634TIP3   OH219854  -0.004   1.954   3.385  0.1856 -0.4887  0.0180
 6634TIP3    H119855   0.090   1.950   3.366  0.5011  1.6960  0.9784
 6634TIP3    H219856  -0.022   1.874   3.435  1.7188 -0.4878  0.6021
 6635TIP3   OH219857   1.116   3.998   5.621  0.3919  0.0817 -0.4039
 6635TIP3    H119858   1.211   4.001   5.613  0.2910 -0.2471 -1.7704
 6635TIP3    H219859   1.097   3.911   5.654  0.6335  0.5385  0.9646
 6636TIP3   OH219860   1.168   5.352   2.585  0.3132  0.0691  0.1640
 6636TIP3    H119861   1.257   5.388   2.595  1.0428 -1.2625 -1.3438
 6636TIP3    H219862   1.144   5.323   2.673  1.3447  0.5252  0.6017
 6637TIP3   OH219863   7.635   4.685   4.205  0.4022  0.2445 -0.6017
 6637TIP3    H119864   7.563   4.653   4.151  0.2679 -0.5074  0.0103
 6637TIP3    H219865   7.653   4.773   4.172 -0.4795  0.2516 -1.0650
 6638TIP3   OH219866   0.241   0.843   0.377 -0.1099 -0.3074 -0.2957
 6638TIP3    H119867   0.241   0.776   0.309 -0.0644 -3.3872  2.6092
 6638TIP3    H219868   0.334   0.854   0.400  0.2211  3.1675 -2.9293
 6639TIP3   OH219869   7.324   3.192   5.654  0.7750 -0.1037  0.4389
 6639TIP3    H119870   7.294   3.248   5.726 -2.5629 -0.4796 -0.5557
 6639TIP3    H219871   7.356   3.112   5.697 -0.5204 -0.0412  1.5643
 6640TIP3   OH219872   7.892   7.086   4.899 -0.8738  0.1852 -0.7148
 6640TIP3    H119873   7.953   7.124   4.963  0.0511 -0.2208 -1.3418
 6640TIP3    H219874   7.824   7.152   4.890 -1.2721  0.0484  1.0431
 6641TIP3   OH219875   1.754   6.050   0.845  0.4536  0.0012  0.0335
 6641TIP3    H119876   1.816   5.979   0.856  1.0128  0.4055 -0.4835
 6641TIP3    H219877   1.713   6.034   0.760 -0.3110 -0.3894  0.4722
 6642TIP3   OH219878   6.186   0.736   0.320 -0.0308 -0.1043 -0.4024
 6642TIP3    H119879   6.155   0.773   0.403 -1.2884 -1.0227 -0.4352
 6642TIP3    H219880   6.245   0.665   0.346 -1.7051 -1.4757 -0.2358
 6643TIP3   OH219881   3.079   2.476   4.394  0.3096  0.2739  0.3208
 6643TIP3    H119882   3.081   2.481   4.489  1.5451 -2.6430  0.4973
 6643TIP3    H219883   3.171   2.475   4.367 -0.0233  0.5002 -0.8789
 6644TIP3   OH219884   2.735   5.143   4.875 -0.0533 -0.1305 -0.3670
 6644TIP3    H119885   2.719   5.161   4.782  1.6102  0.4561 -0.5452
 6644TIP3    H219886   2.824   5.173   4.891 -1.0722  1.8594  1.9405
 6645TIP3   OH219887   2.883   5.018   4.211 -0.0173 -0.2166  0.0307
 6645TIP3    H119888   2.905   4.992   4.300 -0.6923 -1.1091 -0.0591
 6645TIP3    H219889   2.967   5.041   4.171  0.0528  2.4599  1.5952
 6646TIP3   OH219890   4.088   4.590   4.826  0.0583  0.1264 -0.1495
 6646TIP3    H119891   4.061   4.620   4.913  0.9944  1.6538 -0.3655
 6646TIP3    H219892   4.184   4.592   4.828  0.0868  0.6266 -1.3515
 6647TIP3   OH219893   3.187   6.716   6.374 -0.3270 -0.4237  0.5102
 6647TIP3    H119894   3.230   6.663   6.307  1.3307  0.7237  0.6473
 6647TIP3    H219895   3.118   6.763   6.326 -0.2224 -0.8502 -0.0706
 6648TIP3   OH219896   1.168   3.603   3.167  0.7093 -0.0394 -0.2925
 6648TIP3    H119897   1.179   3.689   3.127 -0.5553  1.5526  2.6276
 6648TIP3    H219898   1.242   3.552   3.134  1.6337  2.2406 -1.8656
 6649TIP3   OH219899   2.270   3.865   4.765  0.1331  0.1076  0.7864
 6649TIP3    H119900   2.206   3.810   4.720  1.3583 -1.4404  0.8838
 6649TIP3    H219901   2.344   3.871   4.705  0.1820  1.3205  0.9544
 6650TIP3   OH219902   4.238   5.045   5.493 -0.0327  0.4032 -0.3887
 6650TIP3    H119903   4.242   4.950   5.487  2.1523  0.3802  0.7591
 6650TIP3    H219904   4.293   5.076   5.420 -0.1550  0.7698 -0.3277
 6651TIP3   OH219905   5.091   6.360   2.676 -1.0733 -0.3815  0.2680
 6651TIP3    H119906   5.053   6.374   2.763 -1.1813 -0.0480  0.1695
 6651TIP3    H219907   5.116   6.448   2.647 -1.7880 -0.3874 -0.3813
 6652TIP3   OH219908   4.484   4.719   4.985  0.2910 -0.7203  0.6188
 6652TIP3    H119909   4.487   4.626   5.007 -0.5552 -1.6022 -2.6889
 6652TIP3    H219910   4.573   4.740   4.955 -0.3130 -1.3548 -1.7516
 6653TIP3   OH219911   6.686   0.226   0.106  0.6859  0.5821 -0.0099
 6653TIP3    H119912   6.632   0.280   0.164 -0.2385 -0.5935  0.2516
 6653TIP3    H219913   6.728   0.163   0.165 -0.0009 -0.4126 -0.5569
 6654TIP3   OH219914   2.538   2.260   5.439 -0.2942 -0.0341  0.1282
 6654TIP3    H119915   2.625   2.289   5.414  0.0756 -0.3637  1.0323
 6654TIP3    H219916   2.509   2.205   5.365  0.3276 -0.0636 -0.0970
 6655TIP3   OH219917   3.095   6.066   3.908 -0.2068  0.6810 -0.2044
 6655TIP3    H119918   3.166   6.124   3.882  0.2752 -0.0400 -0.5292
 6655TIP3    H219919   3.029   6.078   3.839  0.2015  0.3089 -0.6726
 6656TIP3   OH219920   2.220   2.950   5.973 -0.2313 -0.0590 -0.1430
 6656TIP3    H119921   2.301   2.905   5.949  1.2884  1.6947  1.5397
 6656TIP3    H219922   2.170   2.953   5.891  1.5995 -0.7262 -1.3316
 6657TIP3   OH219923   2.282   5.127   2.838 -0.0480  0.0978  0.4895
 6657TIP3    H119924   2.290   5.071   2.761  0.8690  0.9868 -0.0869
 6657TIP3    H219925   2.347   5.197   2.823 -0.7640  0.9825  1.4524
 6658TIP3   OH219926   2.048   6.328   1.945  0.4242  0.1270  0.5688
 6658TIP3    H119927   1.956   6.313   1.923  1.0007 -0.1906 -1.7441
 6658TIP3    H219928   2.051   6.322   2.041 -1.5373 -2.1674  0.5381
 6659TIP3   OH219929   4.145   4.738   5.214 -0.1562 -0.4822 -0.6070
 6659TIP3    H119930   4.106   4.711   5.297  1.2084 -2.2004 -0.4674
 6659TIP3    H219931   4.079   4.717   5.148 -1.2038  0.7851  0.0252
 6660TIP3   OH219932   2.793   4.105   6.097  0.1848  0.3388  0.0295
 6660TIP3    H119933   2.826   4.138   6.181 -0.9908  1.7756 -0.0620
 6660TIP3    H219934   2.726   4.167   6.071 -0.5144 -0.9204 -1.2605
 6661TIP3   OH219935   1.325   5.704   6.007  0.3708 -0.2695  0.1164
 6661TIP3    H119936   1.379   5.754   6.067 -0.3201 -1.7502  2.0152
 6661TIP3    H219937   1.379   5.628   5.983  0.3749 -0.0537 -0.5677
 6662TIP3   OH219938   4.457   5.658   2.740  0.1306 -0.1864  0.0443
 6662TIP3    H119939   4.490   5.639   2.828 -0.0601 -1.1286 -0.0866
 6662TIP3    H219940   4.519   5.722   2.704  1.6587 -1.6963 -0.0814
 6663TIP3   OH219941   3.490   6.096   5.762  0.0119 -0.1671 -0.0854
 6663TIP3    H119942   3.467   6.064   5.849 -0.8183 -2.2742 -1.0134
 6663TIP3    H219943   3.585   6.102   5.762  0.1222 -1.6765  0.4969
 6664TIP3   OH219944   2.732   3.975   5.745 -0.1701 -0.3078  0.4860
 6664TIP3    H119945   2.776   3.909   5.692 -1.2080 -0.0661 -0.6873
 6664TIP3    H219946   2.771   3.966   5.832 -1.1404 -3.3085  0.6569
 6665TIP3   OH219947   2.020   2.449   5.683 -0.1943  0.2028  0.0454
 6665TIP3    H119948   2.056   2.361   5.692 -1.0816 -0.2116 -0.4039
 6665TIP3    H219949   1.947   2.440   5.621 -0.0080  1.3329 -0.3659
 6666TIP3   OH219950   3.159   6.437   4.956 -0.3662  0.0485 -0.4335
 6666TIP3    H119951   3.127   6.479   4.876  1.4811 -1.5436 -2.0535
 6666TIP3    H219952   3.230   6.494   4.986 -0.8776  0.4985 -0.0660
 6667TIP3   OH219953   4.209   3.602   4.572 -0.3978 -0.5322  0.3656
 6667TIP3    H119954   4.125   3.609   4.526 -0.3411 -2.3031 -0.0389
 6667TIP3    H219955   4.272   3.578   4.504  0.1568 -0.7103  0.9364
 6668TIP3   OH219956   3.138   6.711   2.208  0.5686 -0.2518 -0.2917
 6668TIP3    H119957   3.140   6.662   2.291  0.6844 -0.8881 -0.6684
 6668TIP3    H219958   3.071   6.778   2.222  1.5951  0.5613  0.8274
 6669TIP3   OH219959   1.982   4.153   3.870  0.7310  0.1669  0.2252
 6669TIP3    H119960   1.929   4.094   3.816  1.3569 -0.5371  0.3601
 6669TIP3    H219961   1.958   4.131   3.960  1.7908 -0.6893  0.3115
 6670TIP3   OH219962   2.562   6.260   4.768 -0.6078  0.5987 -0.0048
 6670TIP3    H119963   2.594   6.183   4.815 -0.9354  0.5136  0.0821
 6670TIP3    H219964   2.471   6.269   4.796  0.0119  2.2514  1.6105
 6671TIP3   OH219965   4.472   7.011   6.030  0.2471  0.1061  0.5651
 6671TIP3    H119966   4.479   7.105   6.014  0.6677 -0.0890 -0.4365
 6671TIP3    H219967   4.448   6.974   5.945 -0.6521 -0.6130  1.1288
 6672TIP3   OH219968   2.964   5.580   4.312 -0.7042 -0.4544  0.5189
 6672TIP3    H119969   2.894   5.546   4.256  0.1039  0.0213 -0.8082
 6672TIP3    H219970   3.042   5.530   4.286  0.1845  1.3485 -0.4303
 6673TIP3   OH219971   0.944   3.477   3.805 -0.2642 -0.0437  0.3731
 6673TIP3    H119972   0.912   3.421   3.875 -0.6147 -0.9408 -0.4967
 6673TIP3    H219973   0.869   3.488   3.746  0.3146 -0.1122 -0.3805
 6674TIP3   OH219974   2.089   2.413   4.990 -0.8249 -0.5624  0.0203
 6674TIP3    H119975   2.122   2.426   5.078 -0.3693 -2.1649  0.1084
 6674TIP3    H219976   2.153   2.457   4.933 -0.9550  0.2011  0.4631
 6675TIP3   OH219977   2.040   3.575   3.821  0.2378 -0.0065 -0.2888
 6675TIP3    H119978   2.037   3.502   3.759  2.2528  0.4950 -1.0408
 6675TIP3    H219979   1.980   3.549   3.892 -0.2256 -1.6974 -1.2614
 6676TIP3   OH219980   2.962   4.063   5.158 -0.0103  0.1182  0.1196
 6676TIP3    H119981   2.924   3.978   5.182  1.8285 -0.7839 -0.0900
 6676TIP3    H219982   2.968   4.060   5.063  2.1147 -0.4370  0.2559
 6677TIP3   OH219983   3.631   4.688   5.146 -0.4078 -0.3896  0.1516
 6677TIP3    H119984   3.684   4.767   5.158 -1.4760  0.2209  0.9280
 6677TIP3    H219985   3.645   4.638   5.227 -1.2502 -0.0807  0.4908
 6678TIP3   OH219986   2.974   4.338   6.385  0.3771  0.1870 -0.3979
 6678TIP3    H119987   3.059   4.372   6.412  0.6026  0.5955 -1.6165
 6678TIP3    H219988   2.913   4.371   6.452  1.2225 -0.4891  0.7340
 6679TIP3   OH219989   1.054   1.782   5.923 -0.6510 -0.7472  0.1367
 6679TIP3    H119990   1.102   1.734   5.990 -1.0365 -0.1931  0.8074
 6679TIP3    H219991   1.096   1.756   5.841  2.5648  1.6918  0.8906
 6680TIP3   OH219992   2.673   4.687   4.696 -0.5117  0.3403 -0.4535
 6680TIP3    H119993   2.666   4.681   4.601 -0.6564 -0.9729 -0.3628
 6680TIP3    H219994   2.760   4.654   4.717 -0.1506  1.4158 -0.1845
 6681TIP3   OH219995   1.107   1.716   5.272  0.1149 -0.4775 -0.0624
 6681TIP3    H119996   1.013   1.735   5.271 -0.1966 -1.7133  2.2793
 6681TIP3    H219997   1.113   1.622   5.261  0.8862 -0.8111  2.8575
 6682TIP3   OH219998   3.560   3.706   1.434  0.0257 -0.0567 -0.2002
 6682TIP3    H119999   3.484   3.758   1.456  0.0922  0.2997 -0.8106
 6682TIP3    H220000   3.525   3.632   1.384  0.0462 -0.0716 -0.1928
 6683TIP3   OH220001   2.811   6.688   2.474  0.5700 -0.3718 -0.1395
 6683TIP3    H120002   2.886   6.645   2.514  1.2634 -0.1427 -1.1731
 6683TIP3    H220003   2.828   6.781   2.486  0.9824 -0.2928 -1.3187
 6684TIP3   OH220004   0.608   5.638   3.151  0.0037  0.3989  0.2301
 6684TIP3    H120005   0.701   5.656   3.142  0.0620 -0.5867 -1.2703
 6684TIP3    H220006   0.565   5.696   3.088 -0.3546  0.4601  0.5258
 6685TIP3   OH220007   3.886   6.257   4.190  0.5217  0.4414  0.1817
 6685TIP3    H120008   3.971   6.218   4.210  0.2325  0.3186  1.1777
 6685TIP3    H220009   3.852   6.204   4.118  0.4816 -0.6711  1.0039
 6686TIP3   OH220010   7.083   1.622   1.937  0.1056  0.0447 -0.3607
 6686TIP3    H120011   7.078   1.709   1.897  0.8211  0.0940 -0.3494
 6686TIP3    H220012   6.998   1.582   1.918 -0.8490  1.3449  1.0074
 6687TIP3   OH220013   2.882   4.149   1.571  0.5140 -0.1108  0.1058
 6687TIP3    H120014   2.955   4.167   1.513  0.7290 -1.4949 -0.0739
 6687TIP3    H220015   2.898   4.060   1.603 -0.9007 -0.3012  0.3346
 6688TIP3   OH220016   1.737   5.211   4.331 -0.5295 -0.1555  0.0477
 6688TIP3    H120017   1.819   5.204   4.282 -1.0091  1.6956 -1.0312
 6688TIP3    H220018   1.752   5.282   4.393 -1.1028 -0.2688  0.3196
 6689TIP3   OH220019   4.493   5.120   2.979 -0.1369 -0.2934  0.2395
 6689TIP3    H120020   4.439   5.171   3.040 -1.4855 -1.5434  0.1278
 6689TIP3    H220021   4.460   5.030   2.988  1.0984 -0.8584 -0.7698
 6690TIP3   OH220022   1.169   5.325   3.178  0.7253  0.7260 -0.3307
 6690TIP3    H120023   1.179   5.415   3.210  0.5772  0.6255  0.0040
 6690TIP3    H220024   1.251   5.282   3.201 -0.1008  0.1325  1.6538
 6691TIP3   OH220025   2.727   3.881   4.865 -0.4122 -0.4030  0.2717
 6691TIP3    H120026   2.676   3.816   4.816  0.8314 -2.1371  1.2536
 6691TIP3    H220027   2.803   3.833   4.897 -1.2832  0.5873  4.1136
 6692TIP3   OH220028   1.551   4.537   6.314  0.0117 -0.5239  0.0831
 6692TIP3    H120029   1.481   4.473   6.298  0.2673 -0.8984  0.4752
 6692TIP3    H220030   1.514   4.596   6.380 -0.1919 -0.3087 -0.2178
 6693TIP3   OH220031   1.074   4.456   2.960 -0.2655 -0.3229  0.4617
 6693TIP3    H120032   1.066   4.469   3.055  0.7685  0.7074  0.4243
 6693TIP3    H220033   0.998   4.404   2.936 -0.0297 -1.4053  2.0192
 6694TIP3   OH220034   0.925   0.266   0.070  0.1761  0.4452 -0.2505
 6694TIP3    H120035   0.833   0.290   0.057 -0.3695 -0.7346  1.2887
 6694TIP3    H220036   0.967   0.287  -0.013 -1.9830 -1.2352 -1.8303
 6695TIP3   OH220037   3.341   4.947   4.120 -0.2965  0.4074  0.0970
 6695TIP3    H120038   3.410   5.012   4.128 -0.1961  0.0602  2.2242
 6695TIP3    H220039   3.380   4.865   4.149 -1.0305 -0.1989 -0.5745
 6696TIP3   OH220040   2.442   4.892   5.713 -0.2428 -0.2344 -0.3572
 6696TIP3    H120041   2.367   4.911   5.656 -1.2282 -0.6502  0.7808
 6696TIP3    H220042   2.477   4.809   5.680 -0.6819 -0.3698 -0.4811
 6697TIP3   OH220043   3.819   1.955   3.313 -0.4685 -0.1046  0.2407
 6697TIP3    H120044   3.727   1.942   3.338 -0.6802  1.9935  0.6532
 6697TIP3    H220045   3.869   1.920   3.387 -0.9536 -0.0004  0.6247
 6698TIP3   OH220046   1.216   3.424   4.972  0.0305  0.2545 -0.6921
 6698TIP3    H120047   1.239   3.496   5.032  0.4540 -2.0883  2.0968
 6698TIP3    H220048   1.300   3.395   4.937 -0.0188  0.3951 -0.9229
 6699TIP3   OH220049   2.649   3.386   5.035  0.5161 -0.3483  0.3537
 6699TIP3    H120050   2.595   3.400   5.112 -0.3651 -0.9333 -0.1523
 6699TIP3    H220051   2.728   3.437   5.052 -0.1517  0.4434  1.1311
 6700TIP3   OH220052   1.752   2.268   3.041  0.5821 -0.4608 -0.4375
 6700TIP3    H120053   1.718   2.228   2.960  0.1545  1.0715 -1.0452
 6700TIP3    H220054   1.705   2.223   3.111  0.0851 -1.0021 -1.1032
 6701TIP3   OH220055   2.918   4.075   6.356 -0.0192  0.5826 -0.0081
 6701TIP3    H120056   2.999   4.030   6.330  0.1406  0.6020  0.4588
 6701TIP3    H220057   2.947   4.150   6.407 -0.3040  1.0367 -0.5098
 6702TIP3   OH220058   0.659   4.105   4.549  0.1027  0.5487 -0.3298
 6702TIP3    H120059   0.623   4.194   4.548 -3.8153 -0.9446  0.4725
 6702TIP3    H220060   0.687   4.091   4.639 -3.1602 -0.4520  0.5740
 6703TIP3   OH220061   2.321   4.616   2.534 -0.2934 -0.4249  0.2486
 6703TIP3    H120062   2.280   4.667   2.604 -0.5829 -1.8511  1.1274
 6703TIP3    H220063   2.262   4.627   2.459  1.4733  3.4653 -0.7174
 6704TIP3   OH220064   2.829   3.822   5.252  0.6828  0.3443  0.0190
 6704TIP3    H120065   2.786   3.881   5.314 -0.8707 -0.5777 -0.1505
 6704TIP3    H220066   2.822   3.736   5.293  0.0080 -0.2112 -1.2415
 6705TIP3   OH220067   3.531   4.227   5.325 -0.1480  0.8089  0.3985
 6705TIP3    H120068   3.563   4.163   5.261 -0.9099  1.1822 -0.3629
 6705TIP3    H220069   3.590   4.302   5.315 -0.2128  0.8334  0.1978
 6706TIP3   OH220070   2.151   5.486   3.498 -0.3274 -0.2228  0.4838
 6706TIP3    H120071   2.059   5.498   3.520 -0.5597 -1.6035  0.3079
 6706TIP3    H220072   2.151   5.423   3.427  0.7923 -0.8990  1.0628
 6707TIP3   OH220073   2.732   5.423   3.589  0.2405 -0.2695 -0.0070
 6707TIP3    H120074   2.724   5.381   3.503 -1.2287  0.4634 -0.2453
 6707TIP3    H220075   2.793   5.367   3.637  0.6815 -0.9678 -1.3564
 6708TIP3   OH220076   1.422   2.330   4.864  0.3299  0.1166  0.1720
 6708TIP3    H120077   1.455   2.365   4.947 -2.1919  2.5107  0.2568
 6708TIP3    H220078   1.490   2.352   4.800 -0.0794  3.1271  0.6778
 6709TIP3   OH220079   1.800   2.598   5.373  0.2760 -0.5154  0.0389
 6709TIP3    H120080   1.879   2.568   5.328 -1.1939 -2.4865 -1.3704
 6709TIP3    H220081   1.794   2.543   5.451  0.4276 -0.2300  0.2482
 6710TIP3   OH220082   1.174   2.726   4.236 -0.0523 -0.1845  0.4319
 6710TIP3    H120083   1.104   2.791   4.229  1.3933  1.4763  1.0394
 6710TIP3    H220084   1.203   2.712   4.146 -0.2232  0.1881  0.3163
 6711TIP3   OH220085   1.093   3.040   3.597  0.2104  0.1085  0.4570
 6711TIP3    H120086   1.185   3.045   3.621  0.3383  1.4012 -0.2560
 6711TIP3    H220087   1.083   3.101   3.524 -0.9614 -0.9133 -0.2712
 6712TIP3   OH220088   3.138   4.127   4.532 -0.5694 -0.0135 -0.0133
 6712TIP3    H120089   3.206   4.066   4.505  0.1861  0.4898  0.7582
 6712TIP3    H220090   3.097   4.154   4.449  0.1859 -0.2810 -0.4770
 6713TIP3   OH220091   1.351   0.954   3.852  0.2314  0.6478  0.0714
 6713TIP3    H120092   1.416   0.940   3.921  0.1945  0.8752  0.1519
 6713TIP3    H220093   1.268   0.961   3.898  0.0831 -0.1009 -0.0653
 6714TIP3   OH220094   4.544   5.543   5.925  0.2596  0.1897 -0.3105
 6714TIP3    H120095   4.458   5.584   5.927  0.6010  0.8828  1.0627
 6714TIP3    H220096   4.605   5.613   5.949  1.2359 -0.2444 -1.4524
 6715TIP3   OH220097   2.194   5.385   4.136  0.1778 -0.2071  0.3421
 6715TIP3    H120098   2.112   5.353   4.099 -0.6468  2.0787  0.1592
 6715TIP3    H220099   2.212   5.466   4.090  1.6958  0.1485  1.5175
 6716TIP3   OH220100   2.448   5.241   5.011 -0.2615 -0.3594 -0.6110
 6716TIP3    H120101   2.471   5.164   5.064 -1.6608 -0.4537 -0.1343
 6716TIP3    H220102   2.448   5.208   4.920  1.4130 -0.3679 -0.6250
 6717TIP3   OH220103   1.525   2.451   6.233 -0.3323  0.7416 -0.6398
 6717TIP3    H120104   1.512   2.546   6.240 -1.4762  0.6158 -0.9653
 6717TIP3    H220105   1.521   2.433   6.140  0.1937  0.4051 -0.6003
 6718TIP3   OH220106   3.270   5.600   4.461  0.5789 -0.4851  0.6527
 6718TIP3    H120107   3.196   5.632   4.511  1.3640  1.1809  0.7685
 6718TIP3    H220108   3.252   5.628   4.371  0.7328 -0.6790  0.5606
 6719TIP3   OH220109   1.941   4.179   6.187  0.6471 -0.2142  0.1059
 6719TIP3    H120110   2.013   4.196   6.126  0.6053 -1.0532 -0.1821
 6719TIP3    H220111   1.899   4.265   6.198  0.5760 -0.0763 -1.1483
 6720TIP3   OH220112   4.412   4.219   4.392  0.1090 -0.3839  0.2170
 6720TIP3    H120113   4.441   4.279   4.324 -0.7711  0.4533  0.5719
 6720TIP3    H220114   4.475   4.232   4.464  0.5293 -0.6468 -0.1009
 6721TIP3   OH220115   4.014   6.239   3.400  0.4569  0.6808 -0.3526
 6721TIP3    H120116   3.996   6.236   3.494 -1.7930  1.4006 -0.7152
 6721TIP3    H220117   4.093   6.187   3.388 -0.5566 -1.3855  1.6286
 6722TIP3   OH220118   3.120   3.786   5.776 -0.5735  0.7879  0.5170
 6722TIP3    H120119   3.136   3.878   5.759 -0.9759  0.9235  0.8619
 6722TIP3    H220120   3.207   3.747   5.785 -0.4013  1.0461 -0.0919
 6723TIP3   OH220121   1.730   3.353   4.455 -1.0697 -0.3350 -0.9888
 6723TIP3    H120122   1.807   3.395   4.492 -1.8042 -1.8996  2.5678
 6723TIP3    H220123   1.765   3.281   4.402 -0.0359  0.9979 -2.1492
 6724TIP3   OH220124   2.618   4.056   4.168  0.1219  0.1063 -0.2136
 6724TIP3    H120125   2.630   4.040   4.074 -0.1871  1.2237 -0.4579
 6724TIP3    H220126   2.643   3.974   4.210 -1.3955 -1.0054 -1.3876
 6725TIP3   OH220127   7.579   0.410   0.048 -0.2827  0.0200 -0.0526
 6725TIP3    H120128   7.483   0.409   0.054 -0.3447  0.7089 -0.8289
 6725TIP3    H220129   7.609   0.423   0.138 -0.9652  2.0592 -0.0912
 6726TIP3   OH220130   3.127   5.133   4.149  0.3777  0.7678  0.1123
 6726TIP3    H120131   3.199   5.070   4.160 -0.8746 -1.2120 -2.4922
 6726TIP3    H220132   3.119   5.143   4.054 -1.9123  1.9943  0.4229
 6727TIP3   OH220133   1.850   5.787   2.508 -0.3293  0.3434  0.0330
 6727TIP3    H120134   1.850   5.696   2.477 -3.8540 -0.8104  2.9669
 6727TIP3    H220135   1.792   5.833   2.446 -0.6096 -0.0027  0.0353
 6728TIP3   OH220136   2.943   3.295   5.222  0.1769  0.9988 -0.1273
 6728TIP3    H120137   2.900   3.374   5.252 -0.4342  1.2410 -1.5676
 6728TIP3    H220138   3.020   3.326   5.174  0.9905  0.6372  0.9296
 6729TIP3   OH220139   3.465   4.972   3.811  0.0469  0.1684 -0.5381
 6729TIP3    H120140   3.379   4.932   3.828  0.5046 -1.3601 -1.7059
 6729TIP3    H220141   3.528   4.908   3.845  0.7500  0.9862 -0.2799
 6730TIP3   OH220142   2.753   3.115   5.938 -0.4127 -0.0518  0.0711
 6730TIP3    H120143   2.693   3.169   5.887 -0.3948 -0.4295 -0.3551
 6730TIP3    H220144   2.831   3.106   5.883 -0.0485  0.2577  0.5302
 6731TIP3   OH220145   3.639   4.576   1.236  0.1202 -0.4303 -0.6380
 6731TIP3    H120146   3.596   4.501   1.279 -0.2880  0.4158  0.4418
 6731TIP3    H220147   3.694   4.536   1.169 -0.2098 -1.7044 -0.1697
 6732TIP3   OH220148   6.797   6.455   1.345  0.8608 -0.1392 -0.2747
 6732TIP3    H120149   6.808   6.371   1.301  3.0899  0.7128 -1.4702
 6732TIP3    H220150   6.836   6.519   1.284  0.7023  1.5370  1.3270
 6733TIP3   OH220151   4.211   4.528   2.836  0.8592 -0.1657 -0.1713
 6733TIP3    H120152   4.289   4.581   2.848  1.0478 -0.3869 -0.4235
 6733TIP3    H220153   4.213   4.465   2.908 -0.1124  1.0725  0.9730
 6734TIP3   OH220154   3.758   6.181   3.111 -0.4303 -0.4767 -0.3112
 6734TIP3    H120155   3.716   6.197   3.195 -1.7597  0.0700 -1.0725
 6734TIP3    H220156   3.797   6.265   3.087  1.5256 -1.0922  0.6050
 6735TIP3   OH220157   2.907   6.798   2.982  0.1378  0.0661 -0.1673
 6735TIP3    H120158   2.876   6.746   3.057 -3.1434  2.3473  0.1503
 6735TIP3    H220159   2.885   6.745   2.905 -0.0275 -0.5416  0.2934
 6736TIP3   OH220160   3.459   4.224   3.494  0.0256  0.1835  0.2875
 6736TIP3    H120161   3.444   4.205   3.402 -0.4068  0.5820  0.2792
 6736TIP3    H220162   3.523   4.158   3.521 -1.2543 -1.1322  0.1748
 6737TIP3   OH220163   0.751   5.536   2.805 -0.2049  0.1458 -0.3863
 6737TIP3    H120164   0.799   5.509   2.727  0.4137 -0.0837  0.0678
 6737TIP3    H220165   0.659   5.523   2.782 -0.0343  0.2133 -1.1232
 6738TIP3   OH220166   3.127   4.658   6.117  0.2358  0.1884 -0.1462
 6738TIP3    H120167   3.149   4.658   6.210 -1.4387  0.4867  0.2715
 6738TIP3    H220168   3.092   4.571   6.100 -1.2718  0.7594 -0.0336
 6739TIP3   OH220169   3.195   5.310   2.594 -0.5953  0.2751 -0.0931
 6739TIP3    H120170   3.158   5.316   2.506  0.1682  0.1799 -0.4162
 6739TIP3    H220171   3.171   5.394   2.635 -0.4779  0.5431 -0.5662
 6740TIP3   OH220172   4.898   4.347   5.557 -0.3011 -0.1915  0.1917
 6740TIP3    H120173   4.977   4.323   5.509 -1.3873 -1.2432 -1.1374
 6740TIP3    H220174   4.897   4.288   5.633  1.1823  1.1574  1.2864
 6741TIP3   OH220175   3.361   5.863   3.753  1.0653  0.0886  0.6032
 6741TIP3    H120176   3.267   5.872   3.739  0.9125 -0.2209  1.3924
 6741TIP3    H220177   3.397   5.949   3.733  0.6073  0.2215  0.3407
 6742TIP3   OH220178   2.672   4.911   6.250 -0.4090  0.2372 -0.0247
 6742TIP3    H120179   2.642   4.926   6.340  0.4944  0.9951  0.1563
 6742TIP3    H220180   2.727   4.833   6.257 -1.5409 -0.5913 -0.1915
 6743TIP3   OH220181   1.225   4.469   3.291  0.1024  0.0967 -0.2578
 6743TIP3    H120182   1.288   4.408   3.331 -0.1987  0.0933  0.2183
 6743TIP3    H220183   1.277   4.520   3.229  0.2180 -1.1128 -1.1763
 6744TIP3   OH220184   3.179   5.266   5.368  0.3639  0.1265  0.4768
 6744TIP3    H120185   3.181   5.266   5.464  0.7418 -0.5645  0.4729
 6744TIP3    H220186   3.160   5.357   5.344  2.1878  0.7090  1.1573
 6745TIP3   OH220187   2.280   5.280   1.675 -0.3672  0.2787  0.5481
 6745TIP3    H120188   2.283   5.284   1.771 -0.3623 -0.6907  0.5916
 6745TIP3    H220189   2.193   5.245   1.655 -0.4451  0.6693  0.1905
 6746TIP3   OH220190   1.334   0.046   0.103 -0.2919 -0.0015 -0.2837
 6746TIP3    H120191   1.346   0.017   0.013 -0.1795  1.6826 -0.8304
 6746TIP3    H220192   1.388  -0.014   0.155  0.9826  0.0650 -1.5107
 6747TIP3   OH220193   3.075   3.485   2.829 -0.2521 -0.3815  0.2907
 6747TIP3    H120194   3.006   3.468   2.893 -0.4159 -2.5128 -0.4293
 6747TIP3    H220195   3.037   3.463   2.745  1.8259 -3.2927  0.0443
 6748TIP3   OH220196   2.924   3.053   5.743  0.4453 -0.3172 -0.5235
 6748TIP3    H120197   2.982   2.993   5.789 -0.0045 -1.3512 -1.2899
 6748TIP3    H220198   2.982   3.106   5.688  0.8706  0.1434  0.3699
 6749TIP3   OH220199   2.326   4.971   2.611  0.1540 -0.2020 -0.5619
 6749TIP3    H120200   2.301   4.978   2.519 -0.2113 -0.3702 -0.4773
 6749TIP3    H220201   2.277   4.896   2.644 -0.8816  0.7634  0.1441
 6750TIP3   OH220202   7.405   3.034   0.059 -0.7948  0.2680 -0.1300
 6750TIP3    H120203   7.445   3.118   0.083  1.8912 -0.8737 -0.4710
 6750TIP3    H220204   7.384   2.993   0.143  1.8384 -0.5371  0.1770
 6751TIP3   OH220205   2.098   4.385   6.092  0.2115 -0.5460 -0.0319
 6751TIP3    H120206   2.160   4.347   6.154 -0.1621 -0.4459  0.4048
 6751TIP3    H220207   2.148   4.453   6.047 -0.3167  1.3865  2.2224
 6752TIP3   OH220208   4.242   6.062   3.477  0.1722 -0.8430  0.1995
 6752TIP3    H120209   4.289   6.007   3.540 -1.0694 -1.2575  0.7843
 6752TIP3    H220210   4.258   6.020   3.392 -0.9022 -2.2475  0.6591
 6753TIP3   OH220211   2.712   3.850   6.307 -0.3409 -0.3502  0.4739
 6753TIP3    H120212   2.653   3.924   6.320 -0.0456 -0.1128  0.4652
 6753TIP3    H220213   2.799   3.886   6.322 -0.2564 -0.8855  1.3062
 6754TIP3   OH220214   4.827   4.197   5.785  0.1186  0.1177  0.2851
 6754TIP3    H120215   4.748   4.199   5.840  0.4075 -0.3910  0.7191
 6754TIP3    H220216   4.892   4.151   5.838 -0.0668 -1.8251 -1.0838
 6755TIP3   OH220217   1.640   2.739   6.211  0.1619  0.2175 -0.1490
 6755TIP3    H120218   1.732   2.721   6.189 -0.1400 -1.0774 -0.3883
 6755TIP3    H220219   1.639   2.749   6.306  0.3706 -0.9151 -0.0209
 6756TIP3   OH220220   1.180   4.074   1.477 -0.2691 -0.4816 -0.3742
 6756TIP3    H120221   1.245   4.145   1.482  0.9345 -1.6120  0.4580
 6756TIP3    H220222   1.185   4.043   1.386 -0.1478 -0.0988 -0.4990
 6757TIP3   OH220223   2.832   4.519   5.221  0.2045 -0.1867  0.1669
 6757TIP3    H120224   2.747   4.535   5.180  0.1696  0.4702  0.4941
 6757TIP3    H220225   2.828   4.428   5.249 -0.9500  0.2523  1.4804
 6758TIP3   OH220226   3.381   6.197   1.697 -0.3142  0.7630  0.0435
 6758TIP3    H120227   3.320   6.179   1.625  0.7810 -1.8575 -0.2854
 6758TIP3    H220228   3.452   6.246   1.657  1.0395 -1.9963 -1.0448
 6759TIP3   OH220229   3.643   5.113   5.999 -0.6116  0.1642  0.8616
 6759TIP3    H120230   3.689   5.116   5.916 -0.3340  0.8492  1.0349
 6759TIP3    H220231   3.650   5.202   6.034 -1.0921 -0.0077  1.4156
 6760TIP3   OH220232   1.353   4.179   6.208 -0.4932 -0.1785 -0.3136
 6760TIP3    H120233   1.323   4.243   6.273 -0.7955  0.6600 -1.2747
 6760TIP3    H220234   1.439   4.211   6.181  0.2086 -1.2394  0.6186
 6761TIP3   OH220235   1.904   5.101   3.107 -0.2083  0.2311 -0.0849
 6761TIP3    H120236   1.963   5.135   3.040  0.6705 -1.7442 -0.3533
 6761TIP3    H220237   1.902   5.007   3.091 -4.4067  0.3741 -0.8369
 6762TIP3   OH220238   2.508   4.051   4.739  0.1461  0.0356  0.1491
 6762TIP3    H120239   2.561   3.977   4.769 -0.2374  1.4360  4.6757
 6762TIP3    H220240   2.559   4.090   4.668  3.1252 -1.2266  1.4900
 6763TIP3   OH220241   3.504   7.293   6.330  0.3849  0.4606  0.4229
 6763TIP3    H120242   3.474   7.204   6.312  1.5445  0.3375 -1.0411
 6763TIP3    H220243   3.426   7.340   6.360 -0.4116 -0.8124  0.3716
 6764TIP3   OH220244   2.699   4.255   5.541  0.1991  0.0111  0.1767
 6764TIP3    H120245   2.785   4.297   5.545 -0.6066  1.7108  0.0846
 6764TIP3    H220246   2.685   4.219   5.629  0.7369  0.2508  0.3607
 6765TIP3   OH220247   3.515   6.523   5.117 -0.2456  0.3925  0.3044
 6765TIP3    H120248   3.600   6.558   5.089 -0.6305 -0.5570 -2.2191
 6765TIP3    H220249   3.454   6.553   5.050 -1.1247 -2.5221 -0.2729
 6766TIP3   OH220250   0.366   3.371   4.574  0.4329  0.0255 -0.3239
 6766TIP3    H120251   0.283   3.407   4.606  0.0933 -0.2548 -0.8674
 6766TIP3    H220252   0.434   3.419   4.621 -0.0259  0.9832 -0.6302
 6767TIP3   OH220253   1.148   2.720   4.752 -0.2172  0.8052 -0.3056
 6767TIP3    H120254   1.242   2.722   4.737 -0.4977 -0.6019 -2.4354
 6767TIP3    H220255   1.112   2.784   4.690 -0.8824 -0.5711 -1.3542
 6768TIP3   OH220256   2.647   4.357   4.721 -0.1481  0.3820 -0.1731
 6768TIP3    H120257   2.724   4.411   4.706 -0.5935  1.0401 -0.0906
 6768TIP3    H220258   2.573   4.417   4.715 -0.4977  0.2829  2.4493
 6769TIP3   OH220259   2.000   3.309   0.909  0.4431  0.0223 -0.4493
 6769TIP3    H120260   2.008   3.279   0.999  0.2820  2.1332  0.2831
 6769TIP3    H220261   2.081   3.281   0.867  0.6068 -0.7825  0.3916
 6770TIP3   OH220262   3.071   4.274   5.835 -0.4136  0.3008  0.3320
 6770TIP3    H120263   3.080   4.191   5.788  2.4497  0.0348  1.2321
 6770TIP3    H220264   3.066   4.249   5.927  1.1044  1.1018  0.6571
 6771TIP3   OH220265   1.909   3.727   3.096 -0.1599 -0.7484  0.5665
 6771TIP3    H120266   1.921   3.641   3.137  1.1739 -1.7420 -1.7672
 6771TIP3    H220267   1.986   3.777   3.123 -0.1269 -0.8347  0.6321
 6772TIP3   OH220268   1.607   4.248   6.122 -0.0575 -0.1555 -0.6891
 6772TIP3    H120269   1.642   4.203   6.045  1.0548  2.0819 -1.5402
 6772TIP3    H220270   1.668   4.320   6.137 -1.4604  0.7067  1.0156
 6773TIP3   OH220271   0.489   3.095   4.794  0.4841 -0.1203 -0.0852
 6773TIP3    H120272   0.485   3.141   4.710 -0.4429 -2.2474 -1.2383
 6773TIP3    H220273   0.553   3.025   4.781  1.0450  0.1181  1.2861
 6774TIP3   OH220274   3.176   3.965   6.001 -0.0610  0.2620 -0.2302
 6774TIP3    H120275   3.260   3.985   5.958  0.0045 -0.4987 -0.4583
 6774TIP3    H220276   3.161   4.040   6.059  1.1743  0.0240  0.4110
 6775TIP3   OH220277   0.468   2.455   0.730 -0.4811  0.2827  0.2153
 6775TIP3    H120278   0.506   2.541   0.752  3.0913 -1.2244  0.3809
 6775TIP3    H220279   0.478   2.449   0.635  0.1426 -0.2876  0.3088
 6776TIP3   OH220280   3.395   4.151   5.557 -0.9286 -0.5175 -0.0804
 6776TIP3    H120281   3.436   4.204   5.490  0.8198 -0.6097  0.8944
 6776TIP3    H220282   3.373   4.069   5.513 -0.1987 -0.4100 -0.6426
 6777TIP3   OH220283   1.494   0.402   0.666  0.5875  0.7296 -0.0193
 6777TIP3    H120284   1.546   0.328   0.697  1.5355  0.7732 -1.4620
 6777TIP3    H220285   1.414   0.364   0.631  0.9196  0.4041 -0.4339
 6778TIP3   OH220286   4.153   3.535   6.122 -0.0829  0.6479 -0.8813
 6778TIP3    H120287   4.102   3.529   6.042 -0.3027  1.2639 -0.7870
 6778TIP3    H220288   4.226   3.594   6.100  0.4610 -0.0398 -0.9486
 6779TIP3   OH220289   2.643   4.556   2.598  0.2173  0.1539  0.2982
 6779TIP3    H120290   2.575   4.599   2.650  0.0511  0.8322 -0.4717
 6779TIP3    H220291   2.599   4.480   2.559 -0.2460  0.9077 -0.6493
 6780TIP3   OH220292   2.902   4.924   3.037 -0.2324  0.1800  0.1371
 6780TIP3    H120293   2.824   4.872   3.017 -0.3617  0.4918 -0.1785
 6780TIP3    H220294   2.942   4.941   2.952 -0.5719  1.1887  0.1667
 6781TIP3   OH220295   0.741   5.712   5.597 -0.0820  0.2768  0.1607
 6781TIP3    H120296   0.683   5.774   5.642 -0.7725 -0.3203  0.1058
 6781TIP3    H220297   0.806   5.767   5.554 -0.8371  0.9815 -0.0904
 6782TIP3   OH220298   7.291   1.340   0.780 -0.1306  0.1842  0.0192
 6782TIP3    H120299   7.369   1.297   0.744 -0.7869 -0.5428 -0.5504
 6782TIP3    H220300   7.281   1.304   0.868  0.1810  0.2850  0.0954
 6783TIP3   OH220301   1.172   4.117   5.320 -0.3374  0.0080 -0.4057
 6783TIP3    H120302   1.130   4.050   5.267 -0.7727  0.6568 -0.8880
 6783TIP3    H220303   1.109   4.136   5.389 -0.2851  0.0424 -0.3673
 6784TIP3   OH220304   3.985   5.602   5.206  0.0626  0.0251  0.0642
 6784TIP3    H120305   3.960   5.525   5.259 -2.9747  0.9923  0.1242
 6784TIP3    H220306   3.915   5.665   5.220  0.7069  1.4781 -2.8055
 6785TIP3   OH220307   4.304   5.678   5.887  0.2693  0.1362  0.1895
 6785TIP3    H120308   4.272   5.760   5.849  0.8797 -0.1536 -0.9743
 6785TIP3    H220309   4.251   5.666   5.965 -1.2667  0.5553 -0.7760
 6786TIP3   OH220310   2.611   5.123   5.674  0.1292 -0.4722 -0.5103
 6786TIP3    H120311   2.556   5.045   5.685  1.6538 -1.9531 -2.9552
 6786TIP3    H220312   2.700   5.092   5.687  0.8267  0.6453 -2.3888
 6787TIP3   OH220313   2.907   5.629   5.127 -0.0238  0.3033 -0.2143
 6787TIP3    H120314   2.879   5.716   5.157  1.8835  0.2545  1.8535
 6787TIP3    H220315   2.833   5.572   5.147 -0.2988  0.9981  0.8013
 6788TIP3   OH220316   3.801   4.851   4.649  0.9653 -0.4238 -0.1311
 6788TIP3    H120317   3.781   4.772   4.699 -0.4600 -0.3334 -0.5519
 6788TIP3    H220318   3.856   4.904   4.708 -0.8563 -0.2246  1.4134
 6789TIP3   OH220319   5.667   7.211   0.311  0.2623  0.1635  0.7421
 6789TIP3    H120320   5.665   7.118   0.289 -0.1111  0.3644 -0.0647
 6789TIP3    H220321   5.759   7.235   0.302  0.1253  0.2246 -0.5248
 6790TIP3   OH220322   3.656   5.902   4.125 -0.3294 -0.5334 -0.1985
 6790TIP3    H120323   3.685   5.842   4.056 -1.8495  1.3077 -2.5232
 6790TIP3    H220324   3.688   5.988   4.097  0.6836 -0.0245  2.4153
 6791TIP3   OH220325   0.568   5.377   3.227  0.5276 -0.9927 -0.2870
 6791TIP3    H120326   0.571   5.469   3.201 -0.4201 -0.7155  0.6041
 6791TIP3    H220327   0.660   5.348   3.221  0.5641 -0.5561 -2.5233
 6792TIP3   OH220328   7.261   6.935   0.614  0.0952 -0.2508  0.1425
 6792TIP3    H120329   7.340   6.887   0.639 -0.4712 -1.1350  0.2704
 6792TIP3    H220330   7.281   6.969   0.527  0.9861  0.3778  0.5879
 6793TIP3   OH220331   3.556   3.212   4.549  0.6582  0.3934 -0.9088
 6793TIP3    H120332   3.650   3.198   4.551  0.5102 -0.8010 -1.8395
 6793TIP3    H220333   3.543   3.281   4.484  0.8783  0.4527 -0.8897
 6794TIP3   OH220334   3.086   6.683   5.176 -0.4083 -0.2595  0.4779
 6794TIP3    H120335   3.026   6.754   5.199  0.4837  0.2603  1.2177
 6794TIP3    H220336   3.168   6.727   5.155  0.0022 -1.0456  0.4386
 6795TIP3   OH220337   4.607   4.453   5.693  0.3640 -0.5741  0.1894
 6795TIP3    H120338   4.669   4.518   5.659 -0.0576 -0.0149  0.4821
 6795TIP3    H220339   4.618   4.457   5.788 -1.8225  1.2519  0.3986
 6796TIP3   OH220340   4.021   5.272   5.200  0.1663 -0.2011  0.0720
 6796TIP3    H120341   4.110   5.267   5.235  0.4431 -0.8149 -0.6883
 6796TIP3    H220342   3.964   5.272   5.277  0.8406  0.5641  0.5693
 6797TIP3   OH220343   1.370   4.061   5.794 -0.0467 -0.3222  0.5647
 6797TIP3    H120344   1.376   4.036   5.702 -0.5845 -0.1880  0.4956
 6797TIP3    H220345   1.300   4.126   5.797  0.9369  0.7521  0.8384
 6798TIP3   OH220346   1.243   0.644   0.313 -0.5113 -0.2761 -0.2563
 6798TIP3    H120347   1.249   0.551   0.335 -1.6450 -0.2836  0.0526
 6798TIP3    H220348   1.237   0.645   0.218  2.3253 -0.3546 -0.4681
 6799TIP3   OH220349   1.564   4.462   2.656 -0.1694 -0.0186 -0.5351
 6799TIP3    H120350   1.532   4.521   2.588 -0.5146  1.3049  0.7335
 6799TIP3    H220351   1.488   4.447   2.712  0.3949 -0.1527  0.2045
 6800TIP3   OH220352   3.107   1.688   4.420 -0.0613 -0.2093 -0.4492
 6800TIP3    H120353   3.193   1.658   4.449 -0.5276 -1.1903 -0.0738
 6800TIP3    H220354   3.090   1.641   4.339 -0.3439 -0.2085 -0.3935
 6801TIP3   OH220355   0.904   0.785   0.469  0.4545  0.2809  0.0435
 6801TIP3    H120356   0.876   0.701   0.433 -0.0112  0.6554 -0.4729
 6801TIP3    H220357   0.964   0.762   0.540 -0.8029 -0.5297  0.8688
 6802TIP3   OH220358   7.046   3.620   4.412 -0.1878  0.1488  0.4486
 6802TIP3    H120359   7.084   3.540   4.376 -0.7809 -0.2746  0.7616
 6802TIP3    H220360   7.120   3.663   4.457 -0.0308 -0.5791  0.8991
 6803TIP3   OH220361   2.416   5.480   3.603 -0.4381  0.5087  0.3518
 6803TIP3    H120362   2.456   5.517   3.524 -0.6707  0.1503  0.0654
 6803TIP3    H220363   2.324   5.466   3.579 -0.1820 -0.9692  0.2075
 6804TIP3   OH220364   1.938   4.375   5.777  0.2612  0.1578  0.2972
 6804TIP3    H120365   1.997   4.333   5.714 -0.4794 -0.9790  0.3557
 6804TIP3    H220366   1.934   4.313   5.850 -0.5759  0.4905  0.5334
 6805TIP3   OH220367   2.689   6.685   6.299  0.3122 -0.0548 -0.0535
 6805TIP3    H120368   2.714   6.694   6.390 -0.1795  1.5658 -0.0587
 6805TIP3    H220369   2.756   6.733   6.250 -0.9938  1.5777 -0.3017
 6806TIP3   OH220370   2.699   2.682   4.998  0.2198  0.4328 -0.2120
 6806TIP3    H120371   2.620   2.733   5.016  0.0602 -0.0977  0.6469
 6806TIP3    H220372   2.716   2.635   5.080 -0.1838 -1.6264 -1.2686
 6807TIP3   OH220373   7.264   3.621   0.501 -0.0774  0.5599  0.1260
 6807TIP3    H120374   7.231   3.633   0.412  0.9925 -1.1382 -0.5327
 6807TIP3    H220375   7.345   3.672   0.504  0.4541 -0.2453 -0.2387
 6808TIP3   OH220376   3.724   7.355   5.727 -0.2243 -0.1806  0.0276
 6808TIP3    H120377   3.703   7.302   5.804 -0.6916  1.1989  0.8817
 6808TIP3    H220378   3.818   7.341   5.714 -0.1773 -0.5748  0.7414
 6809TIP3   OH220379   1.583   3.174   5.946  0.5773 -0.1077  0.3832
 6809TIP3    H120380   1.560   3.252   5.894  2.4440 -0.7393 -1.4749
 6809TIP3    H220381   1.678   3.174   5.947  0.5867 -2.2876  0.5042
 6810TIP3   OH220382   0.953   0.010   0.137 -0.3618 -0.3017  0.0285
 6810TIP3    H120383   0.980  -0.035   0.058 -2.0259 -0.7602 -0.3040
 6810TIP3    H220384   0.924   0.096   0.107  0.2048 -0.0186  0.2986
 6811TIP3   OH220385   2.499   5.750   6.047  0.7381  0.6091 -0.4838
 6811TIP3    H120386   2.581   5.799   6.033  0.9392 -0.0600 -1.7619
 6811TIP3    H220387   2.430   5.811   6.020  1.0739 -0.3161 -3.6585
 6812TIP3   OH220388   2.075   4.267   5.566 -0.9786 -0.6947  0.4041
 6812TIP3    H120389   2.104   4.180   5.536  1.4446  0.5771 -1.1425
 6812TIP3    H220390   2.143   4.327   5.534 -1.8335  1.5967  2.7394
 6813TIP3   OH220391   3.614   7.269   5.069  0.4193  0.4306 -0.6138
 6813TIP3    H120392   3.667   7.239   5.142  0.2272  0.2249 -0.5601
 6813TIP3    H220393   3.673   7.324   5.017 -0.1371  2.6795  1.0527
 6814TIP3   OH220394   1.302   6.456   5.825  0.0913  0.5864 -0.3551
 6814TIP3    H120395   1.211   6.475   5.850  0.6154  0.2105  2.0000
 6814TIP3    H220396   1.314   6.501   5.742 -1.7154  2.1780  0.2008
 6815TIP3   OH220397   3.569   5.818   2.030 -0.3590  0.2029 -0.5125
 6815TIP3    H120398   3.496   5.770   2.069 -1.8153  2.1150 -0.8249
 6815TIP3    H220399   3.532   5.903   2.006  2.7157  2.4081  2.1526
 6816TIP3   OH220400   1.361   4.872   4.799 -0.0737  0.4228 -0.7809
 6816TIP3    H120401   1.371   4.785   4.760 -0.7246  0.2637 -0.5981
 6816TIP3    H220402   1.336   4.855   4.890 -0.8431  0.7989 -0.9175
 6817TIP3   OH220403   2.085   5.183   5.396  1.0162  0.2622  0.2441
 6817TIP3    H120404   2.067   5.092   5.418 -0.1656  0.0026 -1.7026
 6817TIP3    H220405   2.180   5.187   5.387  1.0147 -0.9550 -0.3697
 6818TIP3   OH220406   0.868   0.215   1.208 -0.2860  0.6169 -0.0538
 6818TIP3    H120407   0.829   0.143   1.157  1.1521  0.4269 -0.9244
 6818TIP3    H220408   0.862   0.291   1.150 -1.7931  1.2289  0.8609
 6819TIP3   OH220409   0.140   4.376   3.345  0.1027  0.1933 -0.3383
 6819TIP3    H120410   0.191   4.449   3.309  2.4092 -1.3017 -0.2302
 6819TIP3    H220411   0.092   4.341   3.270  0.7070  0.4254 -0.8366
 6820TIP3   OH220412   2.566   3.396   5.313  0.3886  0.2418  0.0068
 6820TIP3    H120413   2.491   3.382   5.371 -0.5162  1.6489 -0.7948
 6820TIP3    H220414   2.635   3.429   5.370  0.0853 -0.1083  0.5791
 6821TIP3   OH220415   3.692   4.522   5.668 -0.0503  0.0040 -0.5232
 6821TIP3    H120416   3.653   4.478   5.743  0.7407  0.4887  0.1914
 6821TIP3    H220417   3.725   4.605   5.704  1.7321 -0.4408 -1.0585
 6822TIP3   OH220418   4.000   6.800   0.424  0.3023  0.1016 -0.6428
 6822TIP3    H120419   3.961   6.785   0.339 -0.9005 -1.6879  0.1905
 6822TIP3    H220420   4.060   6.726   0.437  0.2957  0.2232  0.1518
 6823TIP3   OH220421   2.991   3.616   3.411 -0.9230 -0.6168 -0.3095
 6823TIP3    H120422   3.083   3.593   3.423 -0.7478 -0.1666 -0.7707
 6823TIP3    H220423   2.942   3.542   3.448 -0.3849 -0.4504  0.7300
 6824TIP3   OH220424   1.676   4.812   5.378 -0.3361  0.1675 -0.3243
 6824TIP3    H120425   1.727   4.885   5.345 -0.0788 -0.8221 -2.1655
 6824TIP3    H220426   1.591   4.849   5.401  0.5547  1.4610  0.9736
 6825TIP3   OH220427   3.005   3.348   3.917  0.7275 -0.3793  0.5027
 6825TIP3    H120428   2.977   3.438   3.932  1.6764  0.2083 -1.1307
 6825TIP3    H220429   3.010   3.309   4.005 -1.9956  0.4340  1.0579
 6826TIP3   OH220430   2.871   1.205   5.150  0.3069 -0.3559 -0.6435
 6826TIP3    H120431   2.886   1.121   5.107  0.5974  0.1735 -1.5625
 6826TIP3    H220432   2.933   1.206   5.223  2.0081  0.1013 -2.0575
 6827TIP3   OH220433   3.501   6.912   3.905 -0.3014 -0.5856 -0.3125
 6827TIP3    H120434   3.478   6.844   3.968 -2.6056 -1.0783 -1.6189
 6827TIP3    H220435   3.537   6.865   3.830 -0.5973 -0.2592 -0.6620
 6828TIP3   OH220436   2.469   4.269   5.068  0.2617 -0.4944  0.5726
 6828TIP3    H120437   2.411   4.204   5.026 -0.6068  0.3093  0.5151
 6828TIP3    H220438   2.557   4.239   5.046 -0.1473 -1.0840 -0.3292
 6829TIP3   OH220439   0.593   1.679   6.123 -0.4102 -0.0019  0.0472
 6829TIP3    H120440   0.534   1.620   6.075  2.2122 -1.9753 -0.8629
 6829TIP3    H220441   0.638   1.729   6.055 -0.3534  0.8322  0.6911
 6830TIP3   OH220442   5.884   6.515   0.876 -0.2222 -0.4836  0.0654
 6830TIP3    H120443   5.960   6.474   0.917  0.4783  0.2004 -0.5315
 6830TIP3    H220444   5.834   6.551   0.949 -0.2444 -1.3725  0.5003
 6831TIP3   OH220445   3.272   3.824   2.965  0.2402  0.1763 -0.3556
 6831TIP3    H120446   3.225   3.891   3.016 -0.0031 -1.7435  2.0456
 6831TIP3    H220447   3.355   3.813   3.011 -0.0449 -1.6958 -0.2533
 6832TIP3   OH220448   3.752   4.798   3.370  0.2150  0.1655  0.3317
 6832TIP3    H120449   3.779   4.843   3.450  2.8864  0.5447 -0.7094
 6832TIP3    H220450   3.725   4.867   3.311  1.4478  0.2088 -0.2159
 6833TIP3   OH220451   2.222   5.762   4.857 -0.1800 -0.2170 -0.4898
 6833TIP3    H120452   2.252   5.699   4.923  1.3058  0.7452 -0.2339
 6833TIP3    H220453   2.302   5.802   4.823 -1.0923  1.4662 -0.7188
 6834TIP3   OH220454   1.977   5.810   2.856 -0.5260  0.3499  0.1186
 6834TIP3    H120455   1.894   5.769   2.831 -0.8603  0.4583  1.0344
 6834TIP3    H220456   2.037   5.785   2.786 -1.2056 -0.1370 -0.3061
 6835TIP3   OH220457   3.902   5.382   5.418  0.5591 -0.6156 -0.4140
 6835TIP3    H120458   3.975   5.373   5.479  0.4845 -1.4223 -0.4326
 6835TIP3    H220459   3.827   5.404   5.473  0.8517  0.4016 -0.4175
 6836TIP3   OH220460   3.288   3.197   3.509  0.4459 -0.6575 -0.2745
 6836TIP3    H120461   3.364   3.236   3.551 -0.5861  0.5103  0.5775
 6836TIP3    H220462   3.218   3.204   3.575 -0.2680 -2.1330 -0.8599
 6837TIP3   OH220463   5.045   4.746   5.354  0.5061  0.1138 -0.7210
 6837TIP3    H120464   4.992   4.680   5.310 -1.3092  0.2885  1.1144
 6837TIP3    H220465   5.003   4.829   5.332  0.1227  0.2734  0.5515
 6838TIP3   OH220466   3.457   4.722   4.165  0.1649 -0.3977  0.1686
 6838TIP3    H120467   3.552   4.724   4.160  0.2310 -1.0964  1.0857
 6838TIP3    H220468   3.433   4.635   4.134 -0.1747 -0.2386 -0.0230
 6839TIP3   OH220469   5.324   5.223   5.444  0.2570  0.1400  0.3591
 6839TIP3    H120470   5.390   5.239   5.376 -0.1549 -1.4638 -0.4526
 6839TIP3    H220471   5.375   5.192   5.519  0.5558  0.2988  0.2267
 6840TIP3   OH220472   4.591   5.662   4.731  0.3004  0.3093 -0.0070
 6840TIP3    H120473   4.500   5.633   4.739  1.0029 -1.4047  2.0364
 6840TIP3    H220474   4.602   5.679   4.637 -2.0269  0.2312 -0.3217
 6841TIP3   OH220475   2.845   4.697   3.957 -0.9336  0.3619  0.5499
 6841TIP3    H120476   2.767   4.703   3.900 -2.1906 -3.0265  1.7852
 6841TIP3    H220477   2.809   4.686   4.045  0.9865  0.9107  1.4199
 6842TIP3   OH220478   4.391   4.211   5.429 -0.3607  0.1984  0.2312
 6842TIP3    H120479   4.473   4.185   5.470 -0.2715  1.3180  0.7665
 6842TIP3    H220480   4.352   4.274   5.489 -3.1282 -2.5957  1.5133
 6843TIP3   OH220481   4.836   3.644   4.214 -0.0418 -0.0828  0.2053
 6843TIP3    H120482   4.836   3.573   4.150  3.2435 -0.2341  0.2483
 6843TIP3    H220483   4.778   3.614   4.284 -0.2413 -1.8350 -0.6988
 6844TIP3   OH220484   4.544   3.678   2.899 -0.2177 -0.0611  0.0720
 6844TIP3    H120485   4.628   3.720   2.915 -0.8713  1.0306  0.6715
 6844TIP3    H220486   4.495   3.742   2.847 -1.7354  0.5467  2.1790
 6845TIP3   OH220487   4.941   5.046   4.591 -0.0565 -0.0546  0.1924
 6845TIP3    H120488   4.872   5.016   4.651 -1.2573  1.3960 -0.4159
 6845TIP3    H220489   4.954   5.138   4.615 -0.3386  0.4484 -1.5490
 6846TIP3   OH220490   2.873   6.087   4.447  0.0544 -0.2917  0.2433
 6846TIP3    H120491   2.797   6.082   4.390 -0.9855 -0.3867  1.5995
 6846TIP3    H220492   2.895   5.995   4.465  0.4531 -0.2627 -0.1014
 6847TIP3   OH220493   4.597   1.560   0.761  0.2349  0.3215 -0.1892
 6847TIP3    H120494   4.690   1.563   0.737  0.6649 -0.0801  1.3938
 6847TIP3    H220495   4.593   1.600   0.848 -0.6757 -2.2121  0.9690
 6848TIP3   OH220496   4.629   4.203   5.581 -0.3093 -0.1219 -0.7671
 6848TIP3    H120497   4.698   4.195   5.647  0.3331 -0.0663 -1.4136
 6848TIP3    H220498   4.586   4.286   5.601 -1.1556 -0.8544  0.5268
 6849TIP3   OH220499   3.562   5.226   4.931 -0.0079 -0.5754 -0.0976
 6849TIP3    H120500   3.626   5.200   4.865  0.6519  0.5142  0.1025
 6849TIP3    H220501   3.477   5.208   4.891  0.3973 -0.6735 -0.9232
 6850TIP3   OH220502   4.940   4.666   6.124  0.3097 -0.0065 -0.1156
 6850TIP3    H120503   4.934   4.593   6.185  2.3803 -0.2177 -0.1513
 6850TIP3    H220504   5.032   4.690   6.123  0.5848 -0.8115 -4.0894
 6851TIP3   OH220505   4.202   6.613   4.101  0.2139 -0.0022  0.0801
 6851TIP3    H120506   4.107   6.604   4.112  0.2208  1.1937  1.2803
 6851TIP3    H220507   4.238   6.600   4.189  1.0628  0.7240 -0.1523
 6852TIP3   OH220508   4.612   3.559   3.783  0.4462 -0.2030 -0.2789
 6852TIP3    H120509   4.645   3.587   3.869  0.3365 -0.6532 -0.0888
 6852TIP3    H220510   4.682   3.505   3.747  0.3817 -0.2298 -0.3644
 6853TIP3   OH220511   6.272   4.953   4.103 -0.1170 -0.4781  0.5006
 6853TIP3    H120512   6.245   5.010   4.176 -1.3644 -0.6161  0.1652
 6853TIP3    H220513   6.195   4.950   4.046  1.0423  0.1522 -1.1641
 6854TIP3   OH220514   5.868   5.489   5.307 -0.3045  0.2032 -0.9864
 6854TIP3    H120515   5.866   5.585   5.311 -2.4801  0.1850 -0.9745
 6854TIP3    H220516   5.912   5.470   5.224 -0.3270  1.2070 -1.2435
 6855TIP3   OH220517   5.256   5.361   3.361 -0.7485  0.4059 -0.0087
 6855TIP3    H120518   5.248   5.439   3.307 -1.8813  0.0234 -0.4117
 6855TIP3    H220519   5.233   5.390   3.449 -0.6413  0.6476 -0.0609
 6856TIP3   OH220520   5.752   2.095   4.105  1.3318 -0.1442  0.3501
 6856TIP3    H120521   5.737   2.033   4.034  1.0192 -2.1259  2.0924
 6856TIP3    H220522   5.716   2.178   4.073  1.1732 -0.9941 -1.7681
 6857TIP3   OH220523   5.115   4.034   1.992  0.4176  0.2060 -0.1892
 6857TIP3    H120524   5.196   3.995   1.959 -1.7076 -0.7036 -4.6201
 6857TIP3    H220525   5.080   3.969   2.053  2.2486  0.0288  0.7354
 6858TIP3   OH220526   3.602   6.259   4.840 -0.3536 -0.6243  0.6927
 6858TIP3    H120527   3.626   6.211   4.761  0.7774  0.1794  0.5471
 6858TIP3    H220528   3.506   6.253   4.843 -0.4030 -0.7307 -0.6898
 6859TIP3   OH220529   2.999   5.321   5.830 -0.1882  0.0122 -1.0172
 6859TIP3    H120530   2.972   5.230   5.818  0.9648 -0.7624  1.8248
 6859TIP3    H220531   2.917   5.369   5.841 -0.7169 -1.4349  1.9830
 6860TIP3   OH220532   4.681   4.556   4.500  0.2843  0.1732  0.1873
 6860TIP3    H120533   4.677   4.469   4.540  1.8188  0.0825  0.1942
 6860TIP3    H220534   4.747   4.603   4.553  1.8279  0.2821 -1.7848
 6861TIP3   OH220535   2.768   5.429   4.715 -0.1426 -0.1332  0.4971
 6861TIP3    H120536   2.839   5.491   4.734 -1.0505  0.9239  0.5028
 6861TIP3    H220537   2.803   5.344   4.741  0.7171  0.5251  1.5524
 6862TIP3   OH220538   4.570   3.344   6.024  0.2287  0.3663 -0.5297
 6862TIP3    H120539   4.553   3.421   6.077  3.2715  0.7238  0.0081
 6862TIP3    H220540   4.580   3.377   5.935  1.6005  0.6275 -0.2889
 6863TIP3   OH220541   2.395   5.185   5.326 -0.3643  0.5126 -0.3359
 6863TIP3    H120542   2.403   5.215   5.235  2.9114  0.9247  0.0310
 6863TIP3    H220543   2.471   5.223   5.370 -0.6441 -1.5980  2.0577
 6864TIP3   OH220544   3.755   4.995   3.181 -0.1035 -0.7204 -0.0767
 6864TIP3    H120545   3.832   5.006   3.125 -1.7938 -0.5183 -2.4203
 6864TIP3    H220546   3.710   5.079   3.177  0.8294  0.0268  3.3609
 6865TIP3   OH220547   5.183   4.514   4.093  0.4013 -0.5064  0.1220
 6865TIP3    H120548   5.196   4.516   3.998  0.5844  0.3041  0.1557
 6865TIP3    H220549   5.099   4.471   4.105 -0.0159  0.1296 -0.4541
 6866TIP3   OH220550   4.537   6.782   5.533  0.2321 -0.0253 -0.5949
 6866TIP3    H120551   4.470   6.726   5.494  0.6490 -1.3987  0.5931
 6866TIP3    H220552   4.618   6.758   5.488  0.2230  0.4417 -0.8675
 6867TIP3   OH220553   4.772   4.707   4.210 -0.6419  0.0946 -0.4356
 6867TIP3    H120554   4.802   4.739   4.125  1.2758  0.6000  0.4157
 6867TIP3    H220555   4.846   4.720   4.268 -1.9745 -0.1528  1.3525
 6868TIP3   OH220556   4.263   2.728   1.628 -0.1139  0.0460 -0.3363
 6868TIP3    H120557   4.196   2.681   1.677  0.2463  1.2767  1.3707
 6868TIP3    H220558   4.214   2.783   1.567 -0.6076 -0.3580 -0.3060
 6869TIP3   OH220559   5.635   6.924   4.362 -0.5000 -0.1069 -0.4149
 6869TIP3    H120560   5.560   6.924   4.422  0.9205 -1.2424  1.4062
 6869TIP3    H220561   5.654   6.832   4.347 -0.1255  0.1800 -1.7337
 6870TIP3   OH220562   4.253   5.009   4.962 -0.1550  0.7377  0.6850
 6870TIP3    H120563   4.304   5.090   4.961 -0.2593  0.8039  0.8093
 6870TIP3    H220564   4.223   5.000   5.052  1.2352 -0.3006  1.0488
 6871TIP3   OH220565   4.529   5.774   5.232 -0.6324  0.8378 -0.2064
 6871TIP3    H120566   4.512   5.803   5.142  2.1097 -1.2504 -1.4757
 6871TIP3    H220567   4.568   5.851   5.275 -2.6379  2.0752 -0.5421
 6872TIP3   OH220568   4.956   5.674   4.976  0.1198 -0.1224 -0.0343
 6872TIP3    H120569   5.041   5.631   4.968 -0.6295 -1.7779  0.6246
 6872TIP3    H220570   4.941   5.679   5.070  0.1323  1.5062 -0.1028
 6873TIP3   OH220571   5.013   5.607   4.491 -0.3060 -0.2395 -0.2403
 6873TIP3    H120572   4.984   5.686   4.444  1.2793  0.2903 -0.3602
 6873TIP3    H220573   4.985   5.621   4.581  0.4343  0.7080 -0.1526
 6874TIP3   OH220574   4.784   4.372   2.761 -0.0287  0.3206  0.4546
 6874TIP3    H120575   4.692   4.394   2.780 -0.1763 -1.6268  2.1013
 6874TIP3    H220576   4.829   4.384   2.844  0.8052 -0.8540  0.1824
 6875TIP3   OH220577   3.536   4.131   4.357  0.4890 -0.3683 -0.2933
 6875TIP3    H120578   3.496   4.047   4.379  0.4954 -0.5887 -1.1257
 6875TIP3    H220579   3.624   4.126   4.396 -0.3834  0.2410  1.8109
 6876TIP3   OH220580   4.848   3.683   3.546 -0.6597 -0.0337  0.1770
 6876TIP3    H120581   4.756   3.661   3.538 -0.5953 -0.7402  1.2659
 6876TIP3    H220582   4.894   3.600   3.534 -0.0583  0.5993 -2.0986
 6877TIP3   OH220583   5.332   5.133   2.808  0.7594  0.0893  0.6675
 6877TIP3    H120584   5.291   5.153   2.893 -1.5774  1.5239 -0.7308
 6877TIP3    H220585   5.404   5.195   2.802  1.3541 -0.4538  1.8679
 6878TIP3   OH220586   6.347   5.662   4.871  0.6028  0.1590 -0.1351
 6878TIP3    H120587   6.320   5.743   4.915 -1.2574  0.3789 -1.6058
 6878TIP3    H220588   6.407   5.691   4.803  0.3609  0.2470 -0.3119
 6879TIP3   OH220589   4.311   4.747   4.282 -0.2963  0.0421 -0.0915
 6879TIP3    H120590   4.391   4.757   4.334 -2.2004 -0.5576  3.0502
 6879TIP3    H220591   4.294   4.835   4.248  0.8745  0.4860  0.4463
 6880TIP3   OH220592   3.966   6.352   5.162 -0.0261 -0.4599  0.4850
 6880TIP3    H120593   3.907   6.393   5.098 -0.2876 -0.5249  0.6834
 6880TIP3    H220594   3.932   6.381   5.247 -1.3255 -2.5549  0.7239
 6881TIP3   OH220595   4.326   4.426   3.810 -0.0679 -0.3550 -0.0975
 6881TIP3    H120596   4.288   4.480   3.880  1.2435  0.6243 -0.1424
 6881TIP3    H220597   4.372   4.356   3.857  0.1996 -0.1098  0.0090
 6882TIP3   OH220598   4.385   3.432   3.722  0.0135 -0.2726 -0.0775
 6882TIP3    H120599   4.452   3.479   3.771 -0.1328  0.5117 -0.6151
 6882TIP3    H220600   4.427   3.411   3.638 -0.0399 -0.7826  0.0229
 6883TIP3   OH220601   4.304   3.047   4.566  0.3197 -0.0088  0.3297
 6883TIP3    H120602   4.345   2.967   4.596  1.3563 -0.6046 -2.4858
 6883TIP3    H220603   4.291   3.033   4.472 -0.9610  2.4878  0.0901
 6884TIP3   OH220604   2.552   3.719   2.796 -0.2711  0.0314 -0.0800
 6884TIP3    H120605   2.509   3.651   2.847  0.7229 -0.2668  0.3743
 6884TIP3    H220606   2.594   3.775   2.861  0.8111 -0.2206 -0.5585
 6885TIP3   OH220607   4.996   3.594   5.026 -0.4573 -0.0444  0.3026
 6885TIP3    H120608   5.029   3.681   5.047 -1.4876  0.1600  1.1225
 6885TIP3    H220609   5.068   3.552   4.979 -0.0733  1.3632 -0.4131
 6886TIP3   OH220610   5.649   7.326   0.562  0.3152  0.3614  0.1969
 6886TIP3    H120611   5.707   7.323   0.486 -0.2829  0.5909 -0.2725
 6886TIP3    H220612   5.704   7.298   0.635  1.4489  2.0964  0.0250
 6887TIP3   OH220613   6.219   1.730   3.725 -0.3498 -0.1373  0.2491
 6887TIP3    H120614   6.281   1.746   3.653  0.6770 -0.8411  0.9685
 6887TIP3    H220615   6.146   1.790   3.707 -0.0526 -0.2041 -1.3079
 6888TIP3   OH220616   4.666   4.448   4.245  0.2787  0.0738  0.6528
 6888TIP3    H120617   4.717   4.520   4.209  0.6278 -0.1850  0.6338
 6888TIP3    H220618   4.676   4.457   4.340 -0.4920  0.6463  0.6888
 6889TIP3   OH220619   5.957   6.726   0.386 -0.3898  0.8257  0.0257
 6889TIP3    H120620   5.917   6.681   0.461  0.9956 -0.6019 -0.0496
 6889TIP3    H220621   6.030   6.669   0.361 -0.5765  1.5039 -2.1560
 6890TIP3   OH220622   5.145   5.537   3.900 -0.1527 -0.2688 -0.7723
 6890TIP3    H120623   5.185   5.484   3.969 -0.0365  0.0284 -0.6071
 6890TIP3    H220624   5.142   5.625   3.937 -2.0731 -0.5055 -0.3169
 6891TIP3   OH220625   5.354   5.876   5.197 -0.0255  0.1687 -0.4725
 6891TIP3    H120626   5.297   5.942   5.156 -3.4761 -1.4464  1.5137
 6891TIP3    H220627   5.305   5.795   5.191  2.1540 -1.3337  1.2748
 6892TIP3   OH220628   4.876   4.695   3.559  0.0759  0.3928 -0.4474
 6892TIP3    H120629   4.877   4.666   3.651  0.3981  1.8611  0.0251
 6892TIP3    H220630   4.890   4.615   3.509 -0.3236 -0.4605  0.7772
 6893TIP3   OH220631   3.557   3.467   5.828  0.2793 -0.2618  0.3383
 6893TIP3    H120632   3.567   3.377   5.797 -1.1801 -0.8023  1.3801
 6893TIP3    H220633   3.563   3.460   5.924 -0.5127  0.6568  0.4666
 6894TIP3   OH220634   4.190   4.062   4.327 -0.2856  0.1266  0.0246
 6894TIP3    H120635   4.165   4.126   4.261 -0.4209  0.7098  0.6409
 6894TIP3    H220636   4.250   4.109   4.385 -0.9781 -0.0740  0.9193
 6895TIP3   OH220637   4.442   5.117   5.302  0.0985  0.2057 -0.4430
 6895TIP3    H120638   4.515   5.136   5.361  0.8549 -1.0851 -0.9637
 6895TIP3    H220639   4.450   5.024   5.282 -0.6637  0.4474 -1.9236
 6896TIP3   OH220640   5.745   5.563   3.892 -0.3819 -0.2378  0.1175
 6896TIP3    H120641   5.816   5.505   3.863 -1.1881 -0.9803 -0.4081
 6896TIP3    H220642   5.715   5.525   3.974  0.0605  0.2795  0.5211
 6897TIP3   OH220643   5.884   4.663   3.339 -0.6418 -0.5369  0.4745
 6897TIP3    H120644   5.813   4.687   3.398 -0.2369 -0.7801  1.0564
 6897TIP3    H220645   5.868   4.716   3.260 -0.6149  0.5186  1.1684
 6898TIP3   OH220646   3.820   2.802   2.622 -0.7691 -0.1028  0.3826
 6898TIP3    H120647   3.859   2.723   2.659  0.8303  0.7844  0.6527
 6898TIP3    H220648   3.810   2.783   2.529  0.5517 -0.2523  0.2683
 6899TIP3   OH220649   4.037   4.770   3.711  0.3228 -0.0748  0.1211
 6899TIP3    H120650   4.125   4.768   3.747 -0.2228  0.1594  1.4734
 6899TIP3    H220651   4.017   4.863   3.701 -0.7058 -0.0445  2.1741
 6900TIP3   OH220652   3.153   4.276   4.138 -0.3425 -0.4066  0.4217
 6900TIP3    H120653   3.230   4.224   4.161  0.2135 -0.0030 -0.4660
 6900TIP3    H220654   3.187   4.342   4.077 -1.3825 -0.1751  0.0853
 6901TIP3   OH220655   5.674   4.016   3.081 -0.3127  0.1195  0.5893
 6901TIP3    H120656   5.613   4.027   3.009  0.4906  2.5718  0.2516
 6901TIP3    H220657   5.749   3.971   3.043 -1.8998 -3.1322  1.0573
 6902TIP3   OH220658   3.291   3.539   3.380 -0.2421  0.2282 -0.1713
 6902TIP3    H120659   3.318   3.525   3.471 -1.2288 -0.1918  0.0724
 6902TIP3    H220660   3.365   3.582   3.339 -0.1729  1.3710  1.1067
 6903TIP3   OH220661   4.107   5.547   3.831  0.0287  0.0372 -0.5129
 6903TIP3    H120662   4.102   5.505   3.745 -1.6341  0.4926 -0.6636
 6903TIP3    H220663   4.015   5.560   3.856  0.4693 -1.0270  1.7779
 6904TIP3   OH220664   6.561   0.531   4.627 -0.2174  0.2875 -0.1134
 6904TIP3    H120665   6.640   0.567   4.668  1.1688 -0.2817 -2.1661
 6904TIP3    H220666   6.503   0.606   4.615 -0.3385  0.5831  2.1335
 6905TIP3   OH220667   7.786   3.654   2.961  0.2318 -0.2804 -0.1296
 6905TIP3    H120668   7.825   3.690   3.041  2.6601 -0.5417 -1.1547
 6905TIP3    H220669   7.852   3.594   2.927 -2.0785 -2.6395 -0.6482
 6906TIP3   OH220670   5.938   3.442   2.292 -0.2497 -0.0477 -0.5735
 6906TIP3    H120671   6.003   3.397   2.237  0.4123  1.8005 -1.3303
 6906TIP3    H220672   5.955   3.535   2.278 -2.2476  0.4526  0.2085
 6907TIP3   OH220673   6.718   6.179   6.348  0.4837 -0.0245  0.7355
 6907TIP3    H120674   6.786   6.127   6.392 -0.0295 -0.8253  0.5884
 6907TIP3    H220675   6.645   6.119   6.338  0.7787 -0.0273 -1.7302
 6908TIP3   OH220676   2.700   4.675   4.406  0.4309 -0.4493 -0.6869
 6908TIP3    H120677   2.744   4.591   4.393 -0.8685 -0.9215 -2.2300
 6908TIP3    H220678   2.705   4.718   4.320 -0.9159  0.0638 -0.5215
 6909TIP3   OH220679   3.955   4.383   4.406  0.3706 -0.3838 -0.5408
 6909TIP3    H120680   3.917   4.420   4.486  0.0781  2.1307 -1.8076
 6909TIP3    H220681   4.025   4.444   4.382 -1.0329  0.1457 -3.4439
 6910TIP3   OH220682   5.239   5.328   6.176 -0.3199 -0.0502  0.4215
 6910TIP3    H120683   5.257   5.413   6.215 -1.0966 -0.8084  2.4814
 6910TIP3    H220684   5.313   5.273   6.201 -0.7734 -0.5130  0.7726
 6911TIP3   OH220685   3.810   4.212   4.245 -0.1973 -0.2579  0.8397
 6911TIP3    H120686   3.887   4.247   4.289 -0.7533  0.1411  1.5002
 6911TIP3    H220687   3.748   4.285   4.241 -0.5241 -0.5532  0.2598
 6912TIP3   OH220688   4.891   3.977   2.429  0.4859  0.2567  0.0633
 6912TIP3    H120689   4.817   3.980   2.368  0.4599 -0.7599  0.0455
 6912TIP3    H220690   4.944   3.904   2.399  1.0286  0.4130  0.6286
 6913TIP3   OH220691   4.679   4.811   5.737  0.1796 -0.5053  0.0379
 6913TIP3    H120692   4.708   4.843   5.822  0.0001 -1.4235  0.4542
 6913TIP3    H220693   4.744   4.747   5.711  0.5894  0.2546 -0.8345
 6914TIP3   OH220694   3.943   3.777   3.286  0.0792 -0.1136  0.4166
 6914TIP3    H120695   3.857   3.734   3.282  0.4027 -0.6775 -0.6143
 6914TIP3    H220696   3.985   3.738   3.363 -0.6156  0.2101  0.9617
 6915TIP3   OH220697   3.225   6.558   6.004  0.2095 -0.4979 -0.7404
 6915TIP3    H120698   3.292   6.597   5.947  0.4615  0.6090  0.3022
 6915TIP3    H220699   3.145   6.607   5.982 -0.0859 -1.2735 -1.4065
 6916TIP3   OH220700   4.610   7.318   3.610 -0.7856 -0.8670 -0.0019
 6916TIP3    H120701   4.574   7.274   3.687 -1.2554  0.4136  0.5304
 6916TIP3    H220702   4.556   7.396   3.601  1.6105  0.9031  0.5595
 6917TIP3   OH220703   4.526   6.540   4.680 -0.0978  0.1769  0.0308
 6917TIP3    H120704   4.452   6.484   4.702  1.1251 -1.9363 -0.9951
 6917TIP3    H220705   4.539   6.527   4.586  1.0279  1.1639  0.0399
 6918TIP3   OH220706   3.556   2.959   3.226 -0.4771  0.2833  0.3022
 6918TIP3    H120707   3.555   2.884   3.284 -0.2000  0.7383  0.8958
 6918TIP3    H220708   3.542   2.922   3.138  0.9467 -0.5954  0.4353
 6919TIP3   OH220709   3.259   3.641   4.805 -0.0834  0.1438  0.2951
 6919TIP3    H120710   3.301   3.611   4.885  0.3081  1.4896  0.6135
 6919TIP3    H220711   3.325   3.696   4.763 -0.9107  0.8779 -0.0662
 6920TIP3   OH220712   4.425   4.129   5.181 -0.1283 -0.6057 -0.7002
 6920TIP3    H120713   4.349   4.073   5.166 -0.3255 -0.3573 -0.6419
 6920TIP3    H220714   4.407   4.171   5.265  1.0878 -2.1818  0.3683
 6921TIP3   OH220715   3.370   5.975   1.001  0.0236  0.0020  0.2022
 6921TIP3    H120716   3.357   5.916   0.927  0.3288  0.3817 -0.1609
 6921TIP3    H220717   3.284   5.981   1.043  0.2033 -1.4235  0.7935
 6922TIP3   OH220718   3.892   5.911   4.682 -0.2837  0.5198 -0.0355
 6922TIP3    H120719   3.798   5.909   4.696  0.0669  0.5518  2.5292
 6922TIP3    H220720   3.919   5.997   4.712  0.8501 -0.2955  1.3543
 6923TIP3   OH220721   4.430   4.419   4.121  0.5997 -0.0473 -0.6650
 6923TIP3    H120722   4.417   4.514   4.123 -0.1044 -0.1662  1.2721
 6923TIP3    H220723   4.514   4.405   4.163  0.3881 -0.3389 -0.3369
 6924TIP3   OH220724   3.180   4.428   3.888  0.6543  0.4954  0.3694
 6924TIP3    H120725   3.159   4.518   3.864 -2.6164 -0.1295  0.6141
 6924TIP3    H220726   3.161   4.377   3.810  0.2586 -0.2689  0.9588
 6925TIP3   OH220727   4.230   4.771   5.553  0.0084 -0.2623  0.0978
 6925TIP3    H120728   4.208   4.682   5.526 -0.0447 -0.2304  0.0359
 6925TIP3    H220729   4.191   4.780   5.640 -1.0975  0.1383 -0.4325
 6926TIP3   OH220730   3.788   2.424   2.452 -0.3432 -0.2622  0.1480
 6926TIP3    H120731   3.827   2.385   2.374  1.2291 -1.5328  1.5135
 6926TIP3    H220732   3.730   2.356   2.487 -0.4690  0.0136  0.4780
 6927TIP3   OH220733   4.461   4.367   3.550 -0.4275  0.3301 -0.0190
 6927TIP3    H120734   4.395   4.381   3.618 -1.1942  0.0367 -0.6961
 6927TIP3    H220735   4.518   4.298   3.585 -0.8798  0.1137  0.2808
 6928TIP3   OH220736   5.172   5.007   2.298 -0.0534  0.4344 -0.4649
 6928TIP3    H120737   5.162   5.102   2.303 -0.5628  0.2849  2.1815
 6928TIP3    H220738   5.250   4.988   2.351 -0.6287 -0.7115 -0.0128
 6929TIP3   OH220739   4.702   4.659   4.798 -0.1711  0.1942  0.4743
 6929TIP3    H120740   4.790   4.663   4.763 -0.4453 -2.9451 -0.6751
 6929TIP3    H220741   4.645   4.685   4.726 -0.3204  0.3759  0.6541
 6930TIP3   OH220742   4.630   3.431   3.438  0.1338 -0.0831  0.1428
 6930TIP3    H120743   4.595   3.344   3.459  0.1349  0.2738  1.6188
 6930TIP3    H220744   4.553   3.486   3.429  0.1399 -0.1972 -0.6802
 6931TIP3   OH220745   5.199   6.483   4.107  0.1160  0.1654  0.3739
 6931TIP3    H120746   5.126   6.533   4.071 -0.5580 -2.4637 -2.0417
 6931TIP3    H220747   5.270   6.547   4.113 -0.7647  1.5057 -2.4075
 6932TIP3   OH220748   3.162   5.368   4.289  0.2123  0.0174  0.3588
 6932TIP3    H120749   3.141   5.288   4.242  0.3107  0.1292  0.1223
 6932TIP3    H220750   3.196   5.339   4.373  2.2061 -0.2471 -0.5196
 6933TIP3   OH220751   4.980   4.754   4.383 -0.6406 -0.4822  0.4749
 6933TIP3    H120752   5.023   4.746   4.298 -1.5185 -2.1913  0.1673
 6933TIP3    H220753   5.033   4.818   4.431 -0.2110  0.5917 -1.3897
 6934TIP3   OH220754   3.458   4.483   3.158  0.2740 -0.2449 -0.8745
 6934TIP3    H120755   3.534   4.432   3.186 -0.4204 -1.0739 -0.4249
 6934TIP3    H220756   3.387   4.418   3.154 -0.4917  0.5834 -0.8874
 6935TIP3   OH220757   4.086   4.866   1.519 -0.1266 -0.1096 -0.3702
 6935TIP3    H120758   4.160   4.923   1.541  0.6530 -0.8038 -1.1506
 6935TIP3    H220759   4.051   4.838   1.603 -0.9330  2.0498  0.0435
 6936TIP3   OH220760   1.778   6.169   4.635  0.3591  0.0858 -0.1326
 6936TIP3    H120761   1.718   6.212   4.696  0.2378  1.3157 -1.1061
 6936TIP3    H220762   1.720   6.122   4.575  0.4949 -1.6701  1.0602
 6937TIP3   OH220763   3.652   5.492   4.991  0.2392  0.3640  0.2307
 6937TIP3    H120764   3.658   5.511   5.084  2.0351 -0.4583  0.2906
 6937TIP3    H220765   3.612   5.405   4.987  2.4503 -0.6682  0.3223
 6938TIP3   OH220766   5.017   3.566   4.653 -0.3692  0.0078  0.1305
 6938TIP3    H120767   4.968   3.642   4.620 -1.1666  0.0175  1.3019
 6938TIP3    H220768   5.074   3.602   4.720 -0.3755 -0.3566  0.3306
 6939TIP3   OH220769   3.623   3.094   4.157  0.5462  0.0425  0.3245
 6939TIP3    H120770   3.614   3.028   4.088  2.6962  0.4983 -0.4199
 6939TIP3    H220771   3.588   3.174   4.119  1.6122  0.2626 -0.1998
 6940TIP3   OH220772   5.107   4.740   3.774  1.0571 -0.2029 -0.1074
 6940TIP3    H120773   5.126   4.768   3.685  2.2791  0.6964  0.4316
 6940TIP3    H220774   5.023   4.695   3.767  0.4943  1.0224 -1.4763
 6941TIP3   OH220775   0.423   1.459   0.941  0.0304 -0.3329 -0.8741
 6941TIP3    H120776   0.413   1.464   1.036 -0.0708 -0.2348 -0.8894
 6941TIP3    H220777   0.369   1.385   0.915 -1.4508  0.8020 -1.0688
 6942TIP3   OH220778   4.732   2.250   3.513  0.2326  0.1082 -0.1931
 6942TIP3    H120779   4.695   2.163   3.495 -1.2197  0.7983 -0.6017
 6942TIP3    H220780   4.699   2.272   3.600 -0.2667  0.6908 -0.5276
 6943TIP3   OH220781   4.033   5.020   4.530  0.1730 -0.2188  0.1315
 6943TIP3    H120782   4.033   4.948   4.593  0.0969  1.1033  1.6765
 6943TIP3    H220783   3.945   5.018   4.492  0.2491 -1.0859 -0.0211
 6944TIP3   OH220784   5.588   4.953   2.905  0.0372  0.0381  0.2273
 6944TIP3    H120785   5.498   4.944   2.874 -0.0157  1.0840  0.0722
 6944TIP3    H220786   5.583   5.011   2.980  0.5775  0.0593  0.2512
 6945TIP3   OH220787   1.516   1.178   0.778 -0.1678 -0.2063 -0.4915
 6945TIP3    H120788   1.519   1.123   0.700 -1.2962 -1.9364  0.6400
 6945TIP3    H220789   1.598   1.160   0.824  0.0192 -0.0129 -0.7549
 6946TIP3   OH220790   5.600   3.815   3.253  0.3807  0.5230 -0.3022
 6946TIP3    H120791   5.671   3.751   3.254  0.7875  0.8725 -2.7066
 6946TIP3    H220792   5.631   3.884   3.194 -1.1762  1.6105  0.1169
 6947TIP3   OH220793   4.766   3.558   3.235  0.1352 -0.3388  0.4774
 6947TIP3    H120794   4.737   3.492   3.298  1.0466  0.5080  1.8288
 6947TIP3    H220795   4.740   3.641   3.275  1.6198  0.2620  0.2251
 6948TIP3   OH220796   6.189   6.604   0.346 -0.0139 -0.4035  0.1354
 6948TIP3    H120797   6.240   6.654   0.283 -0.7653  0.5884  0.3118
 6948TIP3    H220798   6.228   6.626   0.431 -0.3864 -0.0675  0.2187
 6949TIP3   OH220799   4.664   6.299   5.862 -0.3265  0.7066  0.2888
 6949TIP3    H120800   4.735   6.363   5.865 -0.2538  0.5579  2.2678
 6949TIP3    H220801   4.690   6.239   5.792  1.5192  0.6552  0.9797
 6950TIP3   OH220802   2.691   4.593   6.406 -0.1281 -1.0301  0.3100
 6950TIP3    H120803   2.643   4.559   6.331  0.4860  0.2301 -0.6644
 6950TIP3    H220804   2.661   4.540   6.480 -0.3637 -2.6121 -0.9065
 6951TIP3   OH220805   4.543   4.477   6.377 -0.0988 -0.0660 -0.4694
 6951TIP3    H120806   4.602   4.404   6.359  0.5535  0.5535 -0.8556
 6951TIP3    H220807   4.455   4.440   6.366  0.2209 -0.9467 -0.0473
 6952TIP3   OH220808   3.571   4.828   5.566  0.2920  0.4957  0.1739
 6952TIP3    H120809   3.507   4.789   5.507 -0.2160 -0.9464  1.6421
 6952TIP3    H220810   3.546   4.796   5.653  2.6111  0.4573  0.8471
 6953TIP3   OH220811   4.660   3.340   4.187 -0.0171  0.0340 -0.2422
 6953TIP3    H120812   4.602   3.266   4.204  1.6041 -1.1390  0.3209
 6953TIP3    H220813   4.735   3.325   4.244  2.1803 -0.0290 -3.0348
 6954TIP3   OH220814   1.377   0.914   1.592 -0.1559  0.8160 -0.3839
 6954TIP3    H120815   1.455   0.953   1.632  0.1357  0.1017 -0.2413
 6954TIP3    H220816   1.377   0.946   1.502  0.2227  0.9322 -0.3438
 6955TIP3   OH220817   6.178   5.091   4.332  0.2054  0.5348  0.1553
 6955TIP3    H120818   6.131   5.031   4.389  0.7692  0.5137  0.6102
 6955TIP3    H220819   6.132   5.174   4.341 -1.4623 -0.1684 -1.5937
 6956TIP3   OH220820   6.794   7.341   0.246 -0.4408  0.2284 -0.0072
 6956TIP3    H120821   6.827   7.288   0.173 -0.3119 -0.8280  0.8016
 6956TIP3    H220822   6.873   7.374   0.288 -0.4645 -0.4121  0.5521
 6957TIP3   OH220823   3.589   2.232   4.544  0.3765  0.9602  0.0452
 6957TIP3    H120824   3.596   2.140   4.569  0.5047  1.1897  0.8569
 6957TIP3    H220825   3.495   2.247   4.533  0.4194  0.4625 -1.1384
 6958TIP3   OH220826   0.311   1.775   1.094  0.3520  0.0811 -0.7334
 6958TIP3    H120827   0.247   1.844   1.078  0.3381  0.0343 -0.8797
 6958TIP3    H220828   0.326   1.736   1.008 -1.1661 -1.4318 -0.3331
 6959TIP3   OH220829   5.770   5.029   5.076  0.0918 -0.0082  0.0126
 6959TIP3    H120830   5.685   4.988   5.061 -0.0010 -0.0801  0.7236
 6959TIP3    H220831   5.759   5.119   5.046  0.0158 -0.2398 -0.6684
 6960TIP3   OH220832   3.725   5.169   2.599 -0.2533  0.4654 -0.6809
 6960TIP3    H120833   3.735   5.081   2.636  1.6384  1.0154  0.2063
 6960TIP3    H220834   3.779   5.167   2.519  1.4557  1.3988  0.4207
 6961TIP3   OH220835   3.237   4.335   4.920 -0.4565 -0.1264  0.3817
 6961TIP3    H120836   3.331   4.318   4.909 -0.2418  0.6913  0.9266
 6961TIP3    H220837   3.229   4.430   4.910 -1.3642 -0.3056 -0.6457
 6962TIP3   OH220838   3.999   5.883   3.601 -0.0802 -0.0346  0.0762
 6962TIP3    H120839   4.057   5.867   3.676 -1.1696  0.0102  0.9382
 6962TIP3    H220840   3.983   5.977   3.603 -0.7719 -0.1501  0.2926
 6963TIP3   OH220841   7.865   0.234   4.407 -0.4244 -0.3109  0.0229
 6963TIP3    H120842   7.803   0.298   4.371 -0.5691 -0.4355  0.0486
 6963TIP3    H220843   7.820   0.150   4.397 -0.7193 -0.2799  1.0493
 6964TIP3   OH220844   5.935   5.394   4.618 -0.3561 -0.4708 -0.5006
 6964TIP3    H120845   5.987   5.363   4.544  0.9052  0.1540  0.1092
 6964TIP3    H220846   5.995   5.450   4.667 -1.2207 -0.7660  0.9082
 6965TIP3   OH220847   6.056   5.473   5.071  0.6334  0.2002  0.1338
 6965TIP3    H120848   6.060   5.401   5.007  2.6860 -0.4544  0.9510
 6965TIP3    H220849   6.148   5.492   5.091  0.0574  1.6926  1.4602
 6966TIP3   OH220850   4.703   4.912   4.668 -0.5368  0.4293  0.3408
 6966TIP3    H120851   4.653   4.957   4.600 -2.1451 -0.4006  0.9391
 6966TIP3    H220852   4.672   4.949   4.750  0.8721  0.9124  0.6625
 6967TIP3   OH220853   5.997   6.692   6.116  0.0604 -0.1240 -0.1692
 6967TIP3    H120854   6.085   6.722   6.137  0.2398 -1.7214  1.4940
 6967TIP3    H220855   5.991   6.699   6.021  2.3122 -0.8912 -0.3914
 6968TIP3   OH220856   4.898   4.104   4.474 -0.3886 -0.1151  0.2225
 6968TIP3    H120857   4.946   4.078   4.552  0.4484 -0.4849 -0.4057
 6968TIP3    H220858   4.948   4.067   4.402 -0.5656  1.1173 -0.5505
 6969TIP3   OH220859   4.874   4.580   2.265  0.5507 -0.3562  0.4617
 6969TIP3    H120860   4.792   4.547   2.227  1.1453 -0.5607 -0.6595
 6969TIP3    H220861   4.857   4.581   2.359 -0.8890  0.0127  0.2147
 6970TIP3   OH220862   6.421   6.536   4.917 -0.9423  0.0355 -0.3633
 6970TIP3    H120863   6.385   6.613   4.961 -0.7220  0.5263 -1.0275
 6970TIP3    H220864   6.359   6.516   4.848 -0.6817 -0.0042 -0.5869
 6971TIP3   OH220865   5.117   5.194   2.623  0.2728  0.1111  0.2031
 6971TIP3    H120866   5.173   5.146   2.684  0.0416  0.7043  0.8989
 6971TIP3    H220867   5.046   5.133   2.601  0.4227 -0.1483  0.4400
 6972TIP3   OH220868   2.829   3.431   2.959 -0.2914  0.1203  0.3152
 6972TIP3    H120869   2.776   3.465   2.886  0.8567 -1.3796 -1.2443
 6972TIP3    H220870   2.806   3.488   3.033 -1.4280  1.7223 -1.2146
 6973TIP3   OH220871   2.564   6.321   2.769  0.2146  0.1889 -0.3530
 6973TIP3    H120872   2.498   6.390   2.771  1.2232  1.1604  0.3299
 6973TIP3    H220873   2.571   6.290   2.859 -0.2746 -0.8646 -0.6656
 6974TIP3   OH220874   7.876   4.475   3.824  0.3466  0.6662 -0.5550
 6974TIP3    H120875   7.901   4.460   3.733 -1.2254 -1.5894 -0.6468
 6974TIP3    H220876   7.791   4.519   3.819  0.4149  0.8474 -0.1871
 6975TIP3   OH220877   3.509   4.300   4.958  0.3577 -0.3369  0.6280
 6975TIP3    H120878   3.578   4.319   4.894  1.2132  0.2504  1.7029
 6975TIP3    H220879   3.550   4.242   5.022 -0.5088 -0.9781  0.6091
 6976TIP3   OH220880   4.990   4.818   3.315  0.1571  0.3495  0.0437
 6976TIP3    H120881   4.939   4.781   3.387  1.5181 -0.1841  0.7620
 6976TIP3    H220882   4.977   4.913   3.323  0.0083  0.2745  0.7747
 6977TIP3   OH220883   2.396   3.364   3.661  0.1825  0.5778  0.6438
 6977TIP3    H120884   2.419   3.339   3.571 -0.8918 -1.4932  0.9209
 6977TIP3    H220885   2.377   3.458   3.655  0.4172  0.5326 -1.2365
 6978TIP3   OH220886   7.113   4.175   5.752  0.0798  0.1692 -0.2590
 6978TIP3    H120887   7.093   4.126   5.673 -1.3096 -0.6665  0.6034
 6978TIP3    H220888   7.199   4.144   5.778  0.1436 -0.2218 -0.9236
 6979TIP3   OH220889   4.483   3.829   4.450  0.0422 -0.3420  0.0309
 6979TIP3    H120890   4.447   3.773   4.381  1.6768 -1.6191  0.1688
 6979TIP3    H220891   4.508   3.909   4.405 -1.6984  0.0435 -0.2976
 6980TIP3   OH220892   7.745   4.114   3.696 -0.2641  0.3242 -0.3222
 6980TIP3    H120893   7.682   4.136   3.765 -1.3319 -0.8486 -0.9016
 6980TIP3    H220894   7.804   4.188   3.694 -2.3045  1.9967 -0.5240
 6981TIP3   OH220895   3.536   5.668   4.523  0.0256 -0.3824 -0.2752
 6981TIP3    H120896   3.465   5.657   4.460  0.6180 -0.8682 -0.8640
 6981TIP3    H220897   3.504   5.625   4.602 -1.4379  1.7214  0.3207
 6982TIP3   OH220898   2.798   5.037   3.259  0.2285 -0.7105  0.0092
 6982TIP3    H120899   2.838   4.997   3.181  1.0183 -0.5596  0.3267
 6982TIP3    H220900   2.840   4.992   3.333  0.1363 -0.2322  0.3541
 6983TIP3   OH220901   4.760   6.158   5.117 -0.1598 -0.0627 -0.2721
 6983TIP3    H120902   4.795   6.238   5.077 -0.3481 -0.2837 -0.8738
 6983TIP3    H220903   4.805   6.087   5.072  1.1271 -0.2775  1.2993
 6984TIP3   OH220904   2.951   6.636   3.213 -0.0470 -0.8310 -0.1054
 6984TIP3    H120905   3.035   6.636   3.259  0.1592  0.6298 -0.4423
 6984TIP3    H220906   2.889   6.601   3.276  0.6791 -1.1782  0.4257
 6985TIP3   OH220907   4.157   4.071   5.393  0.3005 -0.6790  0.2923
 6985TIP3    H120908   4.241   4.083   5.437 -0.7012  0.7800  1.8493
 6985TIP3    H220909   4.094   4.118   5.448 -1.3406 -0.7366 -1.5011
 6986TIP3   OH220910   1.108   0.684   0.632 -0.0363 -0.2555 -0.5122
 6986TIP3    H120911   1.190   0.697   0.678 -1.5497  0.2732  2.1430
 6986TIP3    H220912   1.122   0.605   0.579  1.9208 -0.5899  0.4609
 6987TIP3   OH220913   4.625   7.354   5.112  0.0654 -0.0231  0.0009
 6987TIP3    H120914   4.645   7.373   5.020  0.8099 -1.1401 -0.0826
 6987TIP3    H220915   4.685   7.408   5.162  0.6974 -0.5444 -0.1946
 6988TIP3   OH220916   2.564   4.327   4.203 -0.3506 -0.1146  0.1879
 6988TIP3    H120917   2.641   4.370   4.239 -0.4129 -0.6337  0.9441
 6988TIP3    H220918   2.592   4.238   4.182 -0.3720  0.1158 -0.8539
 6989TIP3   OH220919   3.194   4.641   4.811  0.6764  0.2333  0.2557
 6989TIP3    H120920   3.280   4.675   4.789  0.3872  1.9128  1.6909
 6989TIP3    H220921   3.134   4.690   4.755  0.3779  1.1923  1.4107
 6990TIP3   OH220922   4.466   2.834   6.424  0.0615 -0.9912  0.1367
 6990TIP3    H120923   4.479   2.899   6.493  0.4784 -1.1331  0.1931
 6990TIP3    H220924   4.532   2.855   6.358  0.7987 -1.8921  0.5638
 6991TIP3   OH220925   3.446   6.985   4.536 -0.5732 -0.1386  0.5223
 6991TIP3    H120926   3.518   6.972   4.598  0.0775 -0.3137 -0.2604
 6991TIP3    H220927   3.434   6.900   4.494  0.8597  0.6359 -1.5698
 6992TIP3   OH220928   1.642   6.707   2.196  0.0091 -0.3895  0.8139
 6992TIP3    H120929   1.722   6.736   2.239  0.2263  0.2576 -0.0117
 6992TIP3    H220930   1.576   6.706   2.266  0.4354  0.3486  1.2256
 6993TIP3   OH220931   3.760   4.591   2.621 -0.4645  0.0805  0.2580
 6993TIP3    H120932   3.718   4.675   2.637 -0.4297  0.4204 -1.3793
 6993TIP3    H220933   3.688   4.534   2.593 -0.4116 -0.3098  0.9165
 6994TIP3   OH220934   6.126   5.528   4.779  0.1461  0.1826  0.0039
 6994TIP3    H120935   6.102   5.605   4.727  0.5750  1.1676  1.2277
 6994TIP3    H220936   6.188   5.562   4.844  1.9685 -1.5933 -0.7411
 6995TIP3   OH220937   4.683   6.778   3.754 -0.6700 -0.5096  0.1563
 6995TIP3    H120938   4.652   6.749   3.668  0.7746 -0.7908 -0.2797
 6995TIP3    H220939   4.715   6.867   3.739  0.1432 -0.7789  0.2597
 6996TIP3   OH220940   4.154   7.080   3.780  0.3100 -0.2362  0.6295
 6996TIP3    H120941   4.142   7.140   3.853  2.4124 -0.4631  1.1917
 6996TIP3    H220942   4.190   7.001   3.820 -0.3207 -1.0608 -0.4075
 6997TIP3   OH220943   3.371   3.890   3.258 -0.3347  0.2497 -0.1580
 6997TIP3    H120944   3.374   3.852   3.346  1.2572 -1.2020 -0.8171
 6997TIP3    H220945   3.407   3.822   3.201 -1.0045  1.3150 -1.8918
 6998TIP3   OH220946   2.314   4.393   2.095 -0.1450 -0.0262  0.6329
 6998TIP3    H120947   2.378   4.367   2.028  0.7442  0.6132  1.2144
 6998TIP3    H220948   2.238   4.337   2.080  0.8143 -1.2558  0.3534
 6999TIP3   OH220949   4.114   3.452   4.116  0.2740  0.6121  0.0237
 6999TIP3    H120950   4.204   3.446   4.148  0.1541  1.0253  0.4313
 6999TIP3    H220951   4.122   3.440   4.021  0.6897  0.0028  0.1315
 7000TIP3   OH220952   5.789   2.880   0.869  0.0053 -0.0370 -0.0319
 7000TIP3    H120953   5.736   2.860   0.947  0.3628  0.9937  0.4909
 7000TIP3    H220954   5.786   2.800   0.817  0.1295 -0.9054  1.2579
 7001TIP3   OH220955   3.493   4.022   4.780 -0.5438  0.0082  0.1608
 7001TIP3    H120956   3.567   4.083   4.788  0.6283 -1.6729  2.9207
 7001TIP3    H220957   3.423   4.063   4.831 -0.3434 -0.0794  0.5115
 7002TIP3   OH220958   3.460   3.113   3.863 -0.6307  0.5819  0.2279
 7002TIP3    H120959   3.503   3.162   3.793 -2.4396 -0.0029 -1.3557
 7002TIP3    H220960   3.452   3.175   3.935  1.2560  1.2044 -0.0746
 7003TIP3   OH220961   4.996   3.414   5.514 -0.1586 -0.0260 -0.4574
 7003TIP3    H120962   4.956   3.499   5.529 -1.1375 -0.5521 -0.0516
 7003TIP3    H220963   4.932   3.365   5.462  1.8617  0.6793 -3.7869
 7004TIP3   OH220964   4.152   2.940   3.302  1.0010  0.6031 -0.0024
 7004TIP3    H120965   4.071   2.921   3.257  0.5051 -0.4969  1.3003
 7004TIP3    H220966   4.195   3.006   3.249 -1.9972  3.2268  0.6876
 7005TIP3   OH220967   2.405   5.394   1.442 -0.0713  0.8189  0.3021
 7005TIP3    H120968   2.360   5.346   1.511  1.0263 -2.6296 -1.2696
 7005TIP3    H220969   2.496   5.401   1.472 -0.0289  1.1478  0.1150
 7006TIP3   OH220970   1.791   2.206   2.042  0.3808  0.1914 -0.1125
 7006TIP3    H120971   1.831   2.179   1.959 -1.1604  0.2173 -0.8773
 7006TIP3    H220972   1.703   2.233   2.018 -0.0802  0.1936  1.5569
 7007TIP3   OH220973   4.386   3.581   3.372  0.3455 -0.1375  0.0650
 7007TIP3    H120974   4.340   3.497   3.360 -0.1033  0.3586 -1.7676
 7007TIP3    H220975   4.392   3.618   3.284 -0.8873  2.5265  1.0509
 7008TIP3   OH220976   4.191   4.334   4.693 -0.2620  0.0982 -0.3290
 7008TIP3    H120977   4.129   4.395   4.654  1.1501  0.5675 -1.8983
 7008TIP3    H220978   4.250   4.389   4.744 -1.2629 -0.3768  1.3952
 7009TIP3   OH220979   5.818   5.862   4.501 -0.6287  0.0681  0.2635
 7009TIP3    H120980   5.867   5.870   4.419 -1.1720 -0.2756 -0.0950
 7009TIP3    H220981   5.756   5.935   4.499 -1.6420 -0.7937 -0.3209
 7010TIP3   OH220982   3.558   6.224   4.117  0.1246 -0.2361  0.3197
 7010TIP3    H120983   3.521   6.303   4.079 -0.4106 -0.7891 -0.3206
 7010TIP3    H220984   3.647   6.219   4.083 -0.1646 -0.4239 -0.4162
 7011TIP3   OH220985   4.125   2.639   6.253  0.1077  0.2081 -0.1487
 7011TIP3    H120986   4.070   2.564   6.275 -1.4041  0.9545 -1.2910
 7011TIP3    H220987   4.097   2.707   6.314  1.2834 -0.0682  0.7037
 7012TIP3   OH220988   4.939   3.160   1.669  0.4879 -0.1093 -0.0002
 7012TIP3    H120989   4.997   3.158   1.593  0.3380  0.6778 -0.1382
 7012TIP3    H220990   4.880   3.086   1.657  2.2367 -1.6582  0.7514
 7013TIP3   OH220991   3.463   3.670   5.342  0.2113 -0.3330 -1.0440
 7013TIP3    H120992   3.444   3.595   5.399  0.9166  0.2779  0.0297
 7013TIP3    H220993   3.525   3.637   5.278  0.1791 -0.7809 -0.8439
 7014TIP3   OH220994   5.932   5.471   4.224  0.5278 -0.0526 -0.1077
 7014TIP3    H120995   5.994   5.529   4.180  0.6790  0.0959  0.2962
 7014TIP3    H220996   5.858   5.528   4.248  0.3868 -0.1593 -0.2909
 7015TIP3   OH220997   4.772   3.894   1.053  0.3344 -0.2348 -0.4177
 7015TIP3    H120998   4.713   3.819   1.043 -2.3676  1.6443  0.7509
 7015TIP3    H220999   4.759   3.922   1.144  1.9187  1.1415 -0.5986
 7016TIP3   OH221000   1.869   3.530   4.633 -0.1530  0.3762  0.0371
 7016TIP3    H121001   1.888   3.480   4.712 -1.8457 -0.6772 -0.2188
 7016TIP3    H221002   1.886   3.621   4.658 -0.6465  0.0527  1.6103
 7017TIP3   OH221003   3.876   0.322   0.324 -0.0700 -0.3173  0.2081
 7017TIP3    H121004   3.944   0.293   0.263 -0.2265  0.1447 -0.1833
 7017TIP3    H221005   3.922   0.329   0.408  0.0708 -1.2686  0.2256
 7018TIP3   OH221006   5.368   4.309   2.274  0.1267  0.3720 -0.1846
 7018TIP3    H121007   5.317   4.241   2.318  0.4061 -0.2662 -0.8323
 7018TIP3    H221008   5.308   4.383   2.266  0.3131  0.7738  1.9381
 7019TIP3   OH221009   5.844   5.257   4.056 -1.0641  0.2666  0.4071
 7019TIP3    H121010   5.863   5.298   4.140  1.3513  0.0387  0.0023
 7019TIP3    H221011   5.906   5.297   3.995 -1.9413 -0.4891 -1.0161
 7020TIP3   OH221012   6.768   3.284   3.989  0.1116  0.4829 -0.7882
 7020TIP3    H121013   6.685   3.330   4.003  0.3436  0.3403  1.1013
 7020TIP3    H221014   6.795   3.310   3.901 -1.3555  1.4480 -0.9648
 7021TIP3   OH221015   6.073   4.200   2.293 -0.4332 -0.3165  0.7951
 7021TIP3    H121016   6.135   4.272   2.282 -0.3464 -0.5013  0.0865
 7021TIP3    H221017   6.019   4.227   2.367  0.3393 -0.0497  1.2733
 7022TIP3   OH221018   6.157   5.032   1.502 -0.2630  0.1424 -0.2042
 7022TIP3    H121019   6.133   4.945   1.532  0.6780 -0.0758 -0.0706
 7022TIP3    H221020   6.079   5.085   1.517 -0.7941 -0.6458 -0.1679
 7023TIP3   OH221021   1.970   5.653   0.098  0.2980 -0.1318  0.0737
 7023TIP3    H121022   1.976   5.713   0.173 -1.0733  0.5121 -0.3317
 7023TIP3    H221023   1.991   5.567   0.135  0.3972  0.2987  1.0383
 7024TIP3   OH221024   0.620   4.689   3.531 -0.0206  0.3755  0.1763
 7024TIP3    H121025   0.653   4.749   3.597 -0.5757 -0.2415  1.0143
 7024TIP3    H221026   0.678   4.613   3.536 -0.1770  0.2502  0.0844
 7025TIP3   OH221027   7.514   4.141   3.885 -0.1979 -0.7039  0.0264
 7025TIP3    H121028   7.474   4.199   3.950 -1.5837 -3.3829  1.6575
 7025TIP3    H221029   7.442   4.113   3.829  0.4506 -0.8237 -0.7597
 7026TIP3   OH221030   6.358   4.819   4.393  0.3548 -0.4029 -0.2887
 7026TIP3    H121031   6.287   4.824   4.328 -1.3336 -1.7076  1.4062
 7026TIP3    H221032   6.371   4.725   4.407  1.1073 -0.1393  0.8316
 7027TIP3   OH221033   6.933   4.219   4.328 -0.6378  0.5160  0.3583
 7027TIP3    H121034   6.923   4.150   4.263  0.3599  0.2219  0.5159
 7027TIP3    H221035   6.855   4.274   4.317 -1.0398 -0.1862 -0.2939
 7028TIP3   OH221036   7.160   4.699   1.799  0.5616 -0.3467  0.0097
 7028TIP3    H121037   7.120   4.731   1.880  1.4009 -2.6268  1.3599
 7028TIP3    H221038   7.201   4.777   1.761  0.3863  0.7106  1.9110
 7029TIP3   OH221039   5.450   4.156   3.788 -0.2863 -0.1026  0.3807
 7029TIP3    H121040   5.372   4.136   3.736  0.4757  0.7400 -1.1075
 7029TIP3    H221041   5.421   4.144   3.879 -2.4500  1.1875 -0.0939
 7030TIP3   OH221042   6.451   2.927   1.673 -0.3678 -0.3552  0.6918
 7030TIP3    H121043   6.422   2.993   1.610  0.0372  0.0823  0.9596
 7030TIP3    H221044   6.377   2.917   1.734 -0.3839 -0.0666  0.7172
 7031TIP3   OH221045   6.442   5.685   3.730  0.0394 -0.2361  0.1345
 7031TIP3    H121046   6.470   5.777   3.735 -1.5821  0.1936  2.8365
 7031TIP3    H221047   6.524   5.635   3.729  0.9375  1.1818  0.7831
 7032TIP3   OH221048   7.260   4.129   6.354  0.7835  0.2103  0.2380
 7032TIP3    H121049   7.321   4.093   6.291  1.3135 -1.0119  1.4142
 7032TIP3    H221050   7.276   4.223   6.353  1.0601  0.1485 -1.1452
 7033TIP3   OH221051   5.886   4.322   2.918  0.0945  0.0293 -0.1074
 7033TIP3    H121052   5.868   4.236   2.957 -1.1456  0.4826  0.3420
 7033TIP3    H221053   5.903   4.303   2.826 -0.6327 -0.6596 -0.1084
 7034TIP3   OH221054   7.154   3.315   1.499 -0.3009 -0.3424  0.4277
 7034TIP3    H121055   7.188   3.252   1.435  1.2840  1.4925 -0.5833
 7034TIP3    H221056   7.100   3.375   1.448  0.1779  0.5447  0.9477
 7035TIP3   OH221057   3.209   6.778   3.686 -0.1059 -0.5584  0.2082
 7035TIP3    H121058   3.139   6.775   3.620 -0.7390  2.5550  0.6476
 7035TIP3    H221059   3.193   6.860   3.734  3.0766 -0.4428  1.1916
 7036TIP3   OH221060   7.376   4.805   2.645 -0.5909 -0.0820  0.4302
 7036TIP3    H121061   7.451   4.856   2.614  1.3082 -1.3442  2.7306
 7036TIP3    H221062   7.409   4.759   2.722 -3.3618 -1.7802  0.6745
 7037TIP3   OH221063   0.277   4.606   2.338 -0.4142 -0.1474 -0.0211
 7037TIP3    H121064   0.321   4.619   2.422 -0.5612 -0.8195  0.1609
 7037TIP3    H221065   0.187   4.585   2.361 -1.1729  2.4811 -0.4262
 7038TIP3   OH221066   6.366   3.873   2.999 -0.1007 -0.0137  0.1951
 7038TIP3    H121067   6.414   3.827   3.068 -1.5841 -0.9493  0.6211
 7038TIP3    H221068   6.274   3.851   3.014 -0.7273  2.0780 -0.3754
 7039TIP3   OH221069   5.202   5.506   4.956 -0.2311 -0.0769  0.6154
 7039TIP3    H121070   5.273   5.457   4.915 -0.2159  0.5068 -0.0769
 7039TIP3    H221071   5.212   5.490   5.049  0.6928 -0.1686  0.5075
 7040TIP3   OH221072   6.683   5.493   2.335  0.1102  0.4323 -0.8517
 7040TIP3    H121073   6.706   5.507   2.243  1.2694 -1.3214 -0.8456
 7040TIP3    H221074   6.619   5.562   2.355 -0.1094  0.8476 -2.9490
 7041TIP3   OH221075   6.401   5.258   2.252  0.0893 -0.0720  0.2078
 7041TIP3    H121076   6.419   5.341   2.207 -1.0377 -0.0893 -0.3029
 7041TIP3    H221077   6.390   5.195   2.180 -0.5087 -0.3553  0.5490
 7042TIP3   OH221078   5.561   4.734   1.600  0.0233  0.6250 -0.9635
 7042TIP3    H121079   5.575   4.819   1.559 -0.3892  1.4073  0.5094
 7042TIP3    H221080   5.499   4.751   1.671 -1.1099 -1.1399 -1.4980
 7043TIP3   OH221081   4.471   4.165   2.148 -0.0506 -0.5030  0.1967
 7043TIP3    H121082   4.447   4.074   2.132 -0.9769  0.2185 -2.9386
 7043TIP3    H221083   4.561   4.172   2.115  0.0332 -0.2809  0.4697
 7044TIP3   OH221084   0.638   4.715   4.734 -0.4365  0.5431 -0.3393
 7044TIP3    H121085   0.572   4.646   4.727 -1.9414  1.8618  0.3006
 7044TIP3    H221086   0.594   4.793   4.700  0.9499  1.3739 -0.2705
 7045TIP3   OH221087   2.005   4.233   2.149 -0.7394  0.2336 -0.0241
 7045TIP3    H121088   1.943   4.255   2.080  0.1496  1.3445 -0.4838
 7045TIP3    H221089   2.061   4.165   2.110  0.9999  2.2408 -1.1157
 7046TIP3   OH221090   6.180   4.242   5.321  0.2975  0.0718 -0.2649
 7046TIP3    H121091   6.273   4.260   5.310  0.7544 -0.6053  2.0950
 7046TIP3    H221092   6.177   4.175   5.390 -1.9379  0.1193 -0.2765
 7047TIP3   OH221093   5.279   4.657   2.941 -0.0958 -0.0126 -0.1101
 7047TIP3    H121094   5.291   4.743   2.900 -1.3346 -1.4331 -3.6063
 7047TIP3    H221095   5.362   4.611   2.925  0.0043 -0.0129  0.4041
 7048TIP3   OH221096   3.777   4.199   2.579 -0.5947 -0.0514  0.1206
 7048TIP3    H121097   3.854   4.174   2.631  0.7005 -0.3753 -1.8715
 7048TIP3    H221098   3.719   4.243   2.641  1.6116  1.0410  1.4808
 7049TIP3   OH221099   3.867   5.458   4.808 -0.2683  0.5626 -0.2430
 7049TIP3    H121100   3.776   5.468   4.838 -0.5857  0.7797 -1.2399
 7049TIP3    H221101   3.907   5.543   4.823 -0.6788  0.9409 -1.2415
 7050TIP3   OH221102   4.803   6.179   2.189 -0.1599  0.2525 -0.5363
 7050TIP3    H121103   4.854   6.120   2.244  2.3311  2.4121 -0.4090
 7050TIP3    H221104   4.756   6.235   2.250  0.7337  1.0925 -0.6097
 7051TIP3   OH221105   5.205   3.379   5.295  0.1211 -0.1868  0.1239
 7051TIP3    H121106   5.179   3.375   5.203 -0.0150 -1.7009  0.2144
 7051TIP3    H221107   5.123   3.373   5.343  0.1431  1.1430  0.3587
 7052TIP3   OH221108   6.359   4.461   0.936  0.2175  0.2788  0.1321
 7052TIP3    H121109   6.406   4.465   0.852 -0.4556  0.6615 -0.2314
 7052TIP3    H221110   6.275   4.502   0.918 -0.8542 -1.7385  0.4046
 7053TIP3   OH221111   4.597   4.530   5.371  0.1335 -0.3776 -0.0170
 7053TIP3    H121112   4.572   4.581   5.448 -1.2852  0.1032 -0.7849
 7053TIP3    H221113   4.624   4.596   5.307  1.4515 -0.7846  0.1012
 7054TIP3   OH221114   4.689   4.894   1.317  0.1937 -0.1987 -0.2580
 7054TIP3    H121115   4.593   4.892   1.311  0.1171 -0.4859  0.9177
 7054TIP3    H221116   4.711   4.987   1.311 -0.2275 -0.0531  0.3256
 7055TIP3   OH221117   3.673   0.128   0.272  0.4776 -0.8307  0.3466
 7055TIP3    H121118   3.589   0.168   0.294 -0.6643 -3.0617  0.2133
 7055TIP3    H221119   3.738   0.192   0.300 -1.2646  1.1978 -0.0734
 7056TIP3   OH221120   1.578   4.040   3.676 -0.8307 -0.0168  0.0081
 7056TIP3    H121121   1.539   4.097   3.742 -1.3315  0.2683 -0.5304
 7056TIP3    H221122   1.598   3.959   3.723  0.2485  0.7405  0.8727
 7057TIP3   OH221123   6.857   4.218   2.365  0.0966  0.1318  0.1151
 7057TIP3    H121124   6.902   4.225   2.281  1.3039  2.1117  0.9011
 7057TIP3    H221125   6.782   4.161   2.347  0.3308  0.5225 -2.2880
 7058TIP3   OH221126   6.456   4.496   2.938 -0.2638 -0.2511  0.0269
 7058TIP3    H121127   6.504   4.526   2.861  0.2497 -0.4375  0.2764
 7058TIP3    H221128   6.364   4.500   2.911  0.0088 -2.5367 -1.3868
 7059TIP3   OH221129   6.133   6.239   4.907 -0.5753  0.0008 -0.3205
 7059TIP3    H121130   6.182   6.289   4.842 -0.1349  1.4106  1.0543
 7059TIP3    H221131   6.070   6.301   4.942 -1.7372 -1.1311 -0.3633
 7060TIP3   OH221132   4.478   6.999   3.153  0.4507 -0.2485 -0.2053
 7060TIP3    H121133   4.446   7.089   3.143  0.2054 -0.6150 -3.1013
 7060TIP3    H221134   4.553   7.007   3.212 -1.6886  1.3336  2.4492
 7061TIP3   OH221135   7.459   4.666   2.889  0.7350  0.1127  0.3905
 7061TIP3    H121136   7.429   4.576   2.904 -0.1902  0.2084 -0.8291
 7061TIP3    H221137   7.420   4.716   2.961 -2.3488  0.2863 -1.3394
 7062TIP3   OH221138   7.019   3.983   1.938 -0.0010 -0.4349 -0.2150
 7062TIP3    H121139   6.958   4.022   1.876 -0.9527 -2.0378 -0.2863
 7062TIP3    H221140   7.006   4.033   2.019 -1.1319 -0.5277 -0.3406
 7063TIP3   OH221141   5.974   6.486   2.215  0.5769  1.1390  0.5745
 7063TIP3    H121142   6.040   6.423   2.187 -1.6245 -0.7035 -0.6595
 7063TIP3    H221143   5.991   6.563   2.161 -0.5526 -0.6447 -2.4644
 7064TIP3   OH221144   4.623   3.600   1.456 -0.0622  0.1565 -0.1727
 7064TIP3    H121145   4.654   3.509   1.460  0.5237  0.3463 -0.3690
 7064TIP3    H221146   4.549   3.603   1.516  1.3116  0.1048  1.5640
 7065TIP3   OH221147   5.863   5.241   1.909  0.0027 -0.4060  0.4108
 7065TIP3    H121148   5.770   5.261   1.896 -0.1067 -0.1669  1.4380
 7065TIP3    H221149   5.894   5.311   1.968  0.5028 -1.2389  1.1423
 7066TIP3   OH221150   5.528   5.046   1.375  0.1341  0.2890 -0.1746
 7066TIP3    H121151   5.600   5.042   1.438 -0.0431 -0.1938  0.0057
 7066TIP3    H221152   5.570   5.063   1.291  0.4318  0.3150 -0.0211
 7067TIP3   OH221153   6.147   5.297   6.184 -0.0845  0.4119 -0.5567
 7067TIP3    H121154   6.187   5.212   6.168 -0.2742  0.2045  0.0461
 7067TIP3    H221155   6.124   5.296   6.277  0.7000  1.4556 -0.3444
 7068TIP3   OH221156   5.370   4.781   3.833  0.3491  0.4229 -0.7904
 7068TIP3    H121157   5.284   4.737   3.836 -0.4720  2.1245  1.3990
 7068TIP3    H221158   5.353   4.864   3.788  1.2295  0.0104 -1.9160
 7069TIP3   OH221159   6.209   4.704   5.182  0.3451  0.5647 -0.6754
 7069TIP3    H121160   6.183   4.644   5.112 -0.5458  0.2463 -0.0747
 7069TIP3    H221161   6.132   4.710   5.239  0.6194  1.8208 -0.4171
 7070TIP3   OH221162   6.651   4.102   3.462 -0.2378 -0.4140 -0.0305
 7070TIP3    H121163   6.736   4.058   3.450 -0.1427 -0.2673  0.1013
 7070TIP3    H221164   6.673   4.186   3.502 -0.3605  0.0307 -0.8993
 7071TIP3   OH221165   6.229   4.495   3.797  0.0770  0.6353 -0.2965
 7071TIP3    H121166   6.315   4.524   3.826  0.3837 -1.4991  0.9876
 7071TIP3    H221167   6.247   4.424   3.736 -0.7743  0.3019 -0.1613
 7072TIP3   OH221168   2.830   1.770   6.150  0.5616  0.4488 -0.1272
 7072TIP3    H121169   2.905   1.797   6.098  0.8136  1.1470  0.5884
 7072TIP3    H221170   2.868   1.745   6.235  0.1787 -0.8295 -0.3261
 7073TIP3   OH221171   6.728   4.010   4.166 -0.4285  0.0823  0.6686
 7073TIP3    H121172   6.728   3.987   4.259 -0.9205 -1.3535  0.3273
 7073TIP3    H221173   6.714   3.927   4.121 -0.1603  0.7675 -0.6948
 7074TIP3   OH221174   7.275   4.653   5.664 -0.1687  0.2754  0.0746
 7074TIP3    H121175   7.213   4.607   5.607  0.1101  0.0852 -0.0810
 7074TIP3    H221176   7.329   4.583   5.702 -0.0451  0.4382  0.1987
 7075TIP3   OH221177   0.224   5.019   3.132  0.3014  0.1871 -0.5452
 7075TIP3    H121178   0.310   5.061   3.131  0.7525 -0.6923  0.1969
 7075TIP3    H221179   0.206   4.997   3.040  1.3347 -0.5375 -0.5878
 7076TIP3   OH221180   7.188   4.559   4.503  0.2720  0.5032 -0.2810
 7076TIP3    H121181   7.213   4.642   4.462 -0.1244  0.7851  0.0377
 7076TIP3    H221182   7.093   4.558   4.498  0.3548 -0.7712 -1.8805
 7077TIP3   OH221183   6.901   3.579   3.601 -0.5698  0.5578 -0.1736
 7077TIP3    H121184   6.971   3.528   3.560 -0.9760 -0.2715  0.1533
 7077TIP3    H221185   6.856   3.517   3.657  0.0734  1.7113  1.6683
 7078TIP3   OH221186   0.467   6.179   1.584  0.3238 -0.2097  0.3353
 7078TIP3    H121187   0.540   6.229   1.622 -1.3374  1.1126  1.8314
 7078TIP3    H221188   0.451   6.221   1.500 -0.4537  1.2413  1.1835
 7079TIP3   OH221189   4.375   5.517   2.473  0.1682 -0.4615 -0.3719
 7079TIP3    H121190   4.419   5.565   2.543 -1.8629 -0.8303  1.1845
 7079TIP3    H221191   4.307   5.577   2.442 -2.7508 -2.4425  1.9617
 7080TIP3   OH221192   7.514   3.265   2.776  0.2666 -0.0443  0.8149
 7080TIP3    H121193   7.570   3.192   2.749 -1.7224 -2.1205  2.1077
 7080TIP3    H221194   7.449   3.273   2.706  0.7327  0.8089  0.4668
 7081TIP3   OH221195   5.484   4.629   3.214 -0.3775  0.4255  0.2513
 7081TIP3    H121196   5.394   4.656   3.231 -0.1862  1.6059 -0.5253
 7081TIP3    H221197   5.536   4.674   3.281 -0.5603 -1.8486  1.9719
 7082TIP3   OH221198   5.441   5.163   4.744  0.1113  0.6980  0.0806
 7082TIP3    H121199   5.445   5.232   4.810 -0.9199  1.9728 -1.1573
 7082TIP3    H221200   5.516   5.180   4.686  1.1915 -0.5976  1.0743
 7083TIP3   OH221201   5.510   3.402   2.523 -0.5790  0.1574  1.2032
 7083TIP3    H121202   5.489   3.480   2.574 -1.3941  1.7919 -1.5164
 7083TIP3    H221203   5.603   3.412   2.501 -0.6413  0.2742  0.9935
 7084TIP3   OH221204   6.063   4.468   1.984 -0.1642  0.3814 -0.0955
 7084TIP3    H121205   6.141   4.474   2.040 -0.4208 -0.1828  0.3284
 7084TIP3    H221206   5.990   4.464   2.046 -0.3650 -1.7761 -0.4331
 7085TIP3   OH221207   6.901   4.663   3.118 -0.3171  0.2717  0.0091
 7085TIP3    H121208   6.836   4.602   3.082 -0.6442  0.5357  0.1496
 7085TIP3    H221209   6.849   4.738   3.147 -0.3973 -0.9287  3.2496
 7086TIP3   OH221210   6.418   4.055   4.818  0.0162 -0.3295  0.1510
 7086TIP3    H121211   6.425   4.108   4.739 -0.7918 -2.5588 -1.4684
 7086TIP3    H221212   6.435   4.116   4.890 -0.4026  1.9832 -1.6720
 7087TIP3   OH221213   5.943   3.136   4.526 -0.3272 -0.6542  0.3295
 7087TIP3    H121214   5.974   3.212   4.576 -0.7209  0.0228 -0.4229
 7087TIP3    H221215   5.857   3.163   4.493 -0.4374 -1.4054 -0.0107
 7088TIP3   OH221216   7.165   4.627   3.135 -0.3707  0.6194  0.2080
 7088TIP3    H121217   7.070   4.637   3.138 -0.3603  1.4212 -1.2776
 7088TIP3    H221218   7.179   4.543   3.092 -0.4121  0.9564 -0.4718
 7089TIP3   OH221219   6.416   5.438   2.063  0.0519  0.4059  0.1130
 7089TIP3    H121220   6.332   5.419   2.022 -0.9765  1.6909  1.5103
 7089TIP3    H221221   6.408   5.530   2.090  1.8145  0.4642  0.4593
 7090TIP3   OH221222   6.022   3.264   0.992  0.1974  0.3964  0.3658
 7090TIP3    H121223   6.032   3.315   0.911  1.0630 -0.6199 -0.1799
 7090TIP3    H221224   5.988   3.179   0.963 -0.6472  0.4331  1.2087
 7091TIP3   OH221225   0.412   4.540   4.721  0.1317 -0.4087  0.1044
 7091TIP3    H121226   0.322   4.536   4.688  0.3027 -1.7965 -0.2023
 7091TIP3    H221227   0.403   4.542   4.816 -0.2209 -0.4022  0.0716
 7092TIP3   OH221228   7.419   3.471   2.929  0.2071 -0.3135  0.7487
 7092TIP3    H121229   7.476   3.419   2.872  1.0972  0.6552  0.7391
 7092TIP3    H221230   7.337   3.422   2.932  0.3000 -0.5959 -1.0001
 7093TIP3   OH221231   4.385   5.333   5.819 -0.4857  0.1764 -0.5110
 7093TIP3    H121232   4.359   5.293   5.902 -1.1537  1.3157 -0.1582
 7093TIP3    H221233   4.464   5.383   5.839 -0.5615  0.3304 -0.5904
 7094TIP3   OH221234   7.114   4.987   3.510 -0.3278  0.4852  0.0970
 7094TIP3    H121235   7.136   4.943   3.592 -0.7252  0.6693  0.3030
 7094TIP3    H221236   7.023   4.961   3.492  0.3504 -1.0812 -1.2675
 7095TIP3   OH221237   5.160   4.306   4.378 -0.5380  0.2876 -0.3247
 7095TIP3    H121238   5.198   4.267   4.299  0.2258  0.4262 -0.0299
 7095TIP3    H221239   5.066   4.288   4.371 -0.1094 -2.2138  0.1638
 7096TIP3   OH221240   5.835   4.843   5.299  0.1898 -0.9227  0.7073
 7096TIP3    H121241   5.825   4.847   5.204 -1.4988 -0.0046  0.8936
 7096TIP3    H221242   5.908   4.783   5.313  0.6460 -0.8515 -1.1725
 7097TIP3   OH221243   6.798   5.065   3.484  0.1046 -0.1773 -0.5715
 7097TIP3    H121244   6.708   5.031   3.485  0.7200 -1.8832 -2.0791
 7097TIP3    H221245   6.787   5.160   3.488 -1.7126 -0.4123  1.0416
 7098TIP3   OH221246   6.215   4.684   2.791  0.1537  0.1757 -0.1062
 7098TIP3    H121247   6.121   4.704   2.797 -0.0485 -1.1952  1.6970
 7098TIP3    H221248   6.258   4.766   2.812 -0.6639 -0.2504  3.5393
 7099TIP3   OH221249   6.213   6.460   4.135  0.6010 -0.2432 -0.0153
 7099TIP3    H121250   6.126   6.421   4.140  0.6584 -0.2912  0.7258
 7099TIP3    H221251   6.213   6.510   4.053 -0.0431 -0.4215 -0.1267
 7100TIP3   OH221252   5.308   3.951   2.748 -0.4294 -0.1787 -0.5885
 7100TIP3    H121253   5.228   3.900   2.756  0.1544 -1.1085 -0.5164
 7100TIP3    H221254   5.319   3.964   2.654 -0.9250  0.3725 -0.5689
 7101TIP3   OH221255   7.137   4.288   5.375 -0.0622 -0.0271 -0.4217
 7101TIP3    H121256   7.059   4.237   5.399 -1.3104  1.9492 -0.1979
 7101TIP3    H221257   7.121   4.316   5.285  0.2329  0.6636 -0.2629
 7102TIP3   OH221258   2.853   4.474   6.132  0.0386 -0.6437 -0.3213
 7102TIP3    H121259   2.778   4.449   6.188 -0.2160  1.3129  0.2463
 7102TIP3    H221260   2.813   4.502   6.050  0.1199  0.4969  0.0159
 7103TIP3   OH221261   4.677   3.599   4.442 -0.2327  0.1422 -0.0039
 7103TIP3    H121262   4.651   3.545   4.517  0.1006  0.3689  0.2834
 7103TIP3    H221263   4.622   3.677   4.448 -1.2484 -0.5055 -0.8628
 7104TIP3   OH221264   5.743   4.986   4.714 -0.6320 -0.4321 -0.4464
 7104TIP3    H121265   5.683   5.055   4.685 -0.4564  0.2568  0.8006
 7104TIP3    H221266   5.828   5.030   4.722  0.0564 -1.3985 -2.1848
 7105TIP3   OH221267   1.231   4.064   3.963  0.5451  0.1480  0.5846
 7105TIP3    H121268   1.176   4.115   4.022 -1.4303  0.2273 -1.2445
 7105TIP3    H221269   1.303   4.123   3.939  0.0218  0.9572  0.9879
 7106TIP3   OH221270   4.235   6.544   3.381  0.4961 -0.1427 -0.0433
 7106TIP3    H121271   4.286   6.602   3.324  0.4258 -0.8627 -0.8575
 7106TIP3    H221272   4.153   6.591   3.394  0.2397 -0.2672 -1.1141
 7107TIP3   OH221273   6.838   4.135   2.105 -0.3647  0.1852 -0.2027
 7107TIP3    H121274   6.762   4.079   2.092 -0.1687  0.1036 -0.9940
 7107TIP3    H221275   6.834   4.200   2.034 -0.0476  0.5660  0.1220
 7108TIP3   OH221276   6.651   6.010   2.809 -0.1103 -0.6204  0.2637
 7108TIP3    H121277   6.626   6.102   2.800 -3.2221 -1.4220  0.1311
 7108TIP3    H221278   6.657   5.996   2.904 -0.5589 -0.5082  0.3095
 7109TIP3   OH221279   7.361   4.384   2.092  0.2404 -0.1965 -0.3136
 7109TIP3    H121280   7.328   4.471   2.115  0.3554 -0.1835 -0.1955
 7109TIP3    H221281   7.302   4.353   2.024  0.5683  0.2368 -0.8069
 7110TIP3   OH221282   0.699   3.622   3.086  0.2524 -0.3158  0.3123
 7110TIP3    H121283   0.718   3.622   2.993  0.6236 -1.8699  0.3718
 7110TIP3    H221284   0.785   3.624   3.128  0.0779  0.7056  0.6205
 7111TIP3   OH221285   5.635   3.461   4.389  0.0374 -0.7714  0.0662
 7111TIP3    H121286   5.643   3.556   4.381 -2.8714 -0.5611 -0.8004
 7111TIP3    H221287   5.540   3.445   4.395  0.4438 -3.6737 -0.5429
 7112TIP3   OH221288   5.755   5.972   2.765 -0.5371 -0.2285 -0.3936
 7112TIP3    H121289   5.674   5.962   2.715 -1.5619 -0.6626  1.2782
 7112TIP3    H221290   5.824   5.942   2.706 -1.4511  1.2523 -2.2548
 7113TIP3   OH221291   6.580   5.324   1.861  0.2448  0.1707 -0.8033
 7113TIP3    H121292   6.540   5.383   1.925  0.1888  0.2347 -0.8970
 7113TIP3    H221293   6.514   5.314   1.793  1.2565  2.1493 -2.1270
 7114TIP3   OH221294   5.951   5.398   3.829  0.0671 -0.0823 -0.0489
 7114TIP3    H121295   6.043   5.396   3.801 -0.4774  0.4972 -1.9393
 7114TIP3    H221296   5.901   5.396   3.747 -1.6332 -1.7298  1.0042
 7115TIP3   OH221297   5.234   6.075   3.750 -0.0887 -0.0270  0.5128
 7115TIP3    H121298   5.292   6.012   3.793  0.6892 -0.1615 -0.7088
 7115TIP3    H221299   5.252   6.158   3.795 -0.8255 -0.5663  1.8509
 7116TIP3   OH221300   5.779   4.593   3.987  0.2452  0.4136 -0.3989
 7116TIP3    H121301   5.701   4.625   4.031 -0.4309 -0.3756 -1.0106
 7116TIP3    H221302   5.753   4.582   3.895  1.4118  1.2885 -0.8484
 7117TIP3   OH221303   6.095   4.260   2.700 -0.1973  0.0919 -0.0757
 7117TIP3    H121304   6.026   4.219   2.648 -0.8288  0.1876  0.6621
 7117TIP3    H221305   6.175   4.245   2.651 -0.6754 -0.4736 -0.6919
 7118TIP3   OH221306   0.637   3.622   3.592 -0.2525  0.6022  0.1877
 7118TIP3    H121307   0.589   3.704   3.601  0.1082  0.7709  0.5643
 7118TIP3    H221308   0.682   3.630   3.508  0.1172  0.9658  0.4180
 7119TIP3   OH221309   2.745   3.867   2.508 -0.2348  0.2090  0.3585
 7119TIP3    H121310   2.840   3.855   2.499  0.3333  1.1844  4.0076
 7119TIP3    H221311   2.727   3.951   2.466  0.7815  0.7159  0.9144
 7120TIP3   OH221312   6.329   4.478   2.596  0.2169 -0.2280  0.1022
 7120TIP3    H121313   6.357   4.388   2.616 -1.5344 -0.9016 -0.4030
 7120TIP3    H221314   6.298   4.512   2.680 -0.4018 -0.5702  0.0137
 7121TIP3   OH221315   0.559   5.397   4.359 -0.3290  0.0898  0.3965
 7121TIP3    H121316   0.549   5.351   4.276 -1.4967  0.1699  0.4846
 7121TIP3    H221317   0.626   5.347   4.406  1.5913  1.0348 -1.2692
 7122TIP3   OH221318   3.788   3.538   3.309  0.3012  0.3267  0.7597
 7122TIP3    H121319   3.860   3.476   3.320 -0.3173 -0.5467 -0.0516
 7122TIP3    H221320   3.712   3.484   3.286 -0.1378  1.4275 -0.4465
 7123TIP3   OH221321   6.087   3.003   1.529  0.1704  0.2294  0.1557
 7123TIP3    H121322   6.032   3.019   1.452 -0.8469  0.7042  0.9689
 7123TIP3    H221323   6.110   2.911   1.523  0.0358  0.2457 -0.6807
 7124TIP3   OH221324   5.053   2.449   3.224  0.4176  0.0515 -0.1771
 7124TIP3    H121325   4.983   2.385   3.214  0.6241 -0.0397 -1.0960
 7124TIP3    H221326   5.125   2.414   3.171  1.2849 -0.0367  1.0382
 7125TIP3   OH221327   6.697   4.942   5.878 -0.6086  0.0458 -0.4648
 7125TIP3    H121328   6.654   5.023   5.854 -0.9637 -0.0701 -0.2189
 7125TIP3    H221329   6.627   4.878   5.887 -0.3787 -0.1718 -0.1828
 7126TIP3   OH221330   7.518   5.404   2.507 -0.3544  0.0594 -0.2099
 7126TIP3    H121331   7.557   5.424   2.592  0.1219  0.6199 -0.5616
 7126TIP3    H221332   7.589   5.417   2.444 -0.9045  0.3535 -0.7724
 7127TIP3   OH221333   6.121   6.773   4.468 -0.6163  0.1909  0.1705
 7127TIP3    H121334   6.149   6.686   4.440 -0.3171 -0.3407  2.0415
 7127TIP3    H221335   6.162   6.833   4.405  1.7039 -0.8213  0.6685
 7128TIP3   OH221336   5.578   5.405   2.389 -0.0428 -0.0626 -0.6125
 7128TIP3    H121337   5.507   5.465   2.366 -0.3134  0.0863  0.6304
 7128TIP3    H221338   5.641   5.415   2.317 -1.1970 -0.0873 -1.6524
 7129TIP3   OH221339   1.254   7.090   2.554 -0.1242  0.1291  0.3350
 7129TIP3    H121340   1.208   7.017   2.596 -1.7726  2.1173  2.0902
 7129TIP3    H221341   1.186   7.153   2.534  1.2140  0.9941 -1.6679
 7130TIP3   OH221342   5.131   2.804   3.474 -0.2040 -0.1821 -0.0901
 7130TIP3    H121343   5.058   2.777   3.530  0.9128  0.8556  1.8992
 7130TIP3    H221344   5.191   2.730   3.474  0.3193  0.2400  0.9952
 7131TIP3   OH221345   3.858   6.301   2.254  0.3343 -0.1354 -0.0849
 7131TIP3    H121346   3.839   6.343   2.338 -1.4377 -0.0787 -0.4876
 7131TIP3    H221347   3.773   6.295   2.210  1.0202 -1.4241 -1.2987
 7132TIP3   OH221348   6.192   4.060   6.280 -0.6004 -0.3009  0.5420
 7132TIP3    H121349   6.225   4.090   6.195 -0.4455 -1.5297  0.1593
 7132TIP3    H221350   6.227   4.123   6.342 -1.2805  1.0111 -0.3714
 7133TIP3   OH221351   7.345   5.688   2.875  0.7131  0.5214 -0.5212
 7133TIP3    H121352   7.317   5.780   2.870 -1.1985  0.0360  0.7925
 7133TIP3    H221353   7.266   5.638   2.861  1.6973 -0.9503 -0.9238
 7134TIP3   OH221354   7.327   4.755   0.218  0.6445  0.2725 -0.0774
 7134TIP3    H121355   7.397   4.693   0.240  0.3853  0.2555  0.7009
 7134TIP3    H221356   7.357   4.839   0.254  1.4403  0.8136 -1.9661
 7135TIP3   OH221357   6.117   6.581   3.484 -0.2978 -0.0481  0.0216
 7135TIP3    H121358   6.186   6.645   3.465 -0.7162  0.7405  1.1252
 7135TIP3    H221359   6.118   6.572   3.579 -1.4326 -0.3520  0.0104
 7136TIP3   OH221360   7.256   0.092   3.395  0.1100 -0.1945  0.4423
 7136TIP3    H121361   7.222   0.118   3.309 -0.8331 -0.6048  0.6863
 7136TIP3    H221362   7.350   0.104   3.388  0.1986 -1.5823 -1.1247
 7137TIP3   OH221363   6.329   3.398   4.460 -0.6749  0.0153  0.1534
 7137TIP3    H121364   6.285   3.440   4.534  0.1803  1.8246 -0.3383
 7137TIP3    H221365   6.288   3.436   4.383  1.0711  1.0355 -0.3068
 7138TIP3   OH221366   5.277   3.407   3.279  0.0280  0.6770 -0.4151
 7138TIP3    H121367   5.269   3.502   3.290 -0.7491  0.5939 -0.2236
 7138TIP3    H221368   5.216   3.387   3.207  1.4282  0.5496 -1.5914
 7139TIP3   OH221369   7.488   3.561   5.915 -0.0709 -0.7051  0.2767
 7139TIP3    H121370   7.402   3.560   5.958 -0.1373  2.4306  0.3216
 7139TIP3    H221371   7.510   3.469   5.905 -3.0564 -1.5729  1.0448
 7140TIP3   OH221372   2.732   3.807   2.985  0.4192  0.1080  0.2151
 7140TIP3    H121373   2.754   3.745   3.054 -1.5753 -0.5098  0.3267
 7140TIP3    H221374   2.816   3.835   2.950  1.3678 -2.2990  0.4963
 7141TIP3   OH221375   5.869   4.492   3.712  0.4099 -0.0312  0.0262
 7141TIP3    H121376   5.784   4.459   3.683 -0.6263  2.5183 -0.0452
 7141TIP3    H221377   5.897   4.431   3.781 -1.4157 -0.9795 -0.0507
 7142TIP3   OH221378   6.549   5.433   1.378 -0.4014  0.3155  0.1703
 7142TIP3    H121379   6.471   5.386   1.409 -0.6204 -0.0218 -0.8386
 7142TIP3    H221380   6.553   5.411   1.285  0.5070  0.9002  0.0714
 7143TIP3   OH221381   3.732   6.506   3.631  0.3750 -0.5292 -0.7056
 7143TIP3    H121382   3.770   6.501   3.543 -0.7050 -5.5051 -1.0595
 7143TIP3    H221383   3.805   6.487   3.690 -0.0066 -2.9306 -0.9512
 7144TIP3   OH221384   7.011   4.026   1.027 -0.2195  0.0142 -0.0598
 7144TIP3    H121385   6.923   4.063   1.033 -0.5731 -0.8636  0.2985
 7144TIP3    H221386   7.069   4.098   1.054 -1.0825 -0.4970  3.3872
 7145TIP3   OH221387   6.052   3.507   3.697  0.4594 -0.0942 -0.4454
 7145TIP3    H121388   6.094   3.428   3.661  0.2480 -0.6993  0.6161
 7145TIP3    H221389   6.118   3.576   3.686  1.7685 -1.0313  1.1923
 7146TIP3   OH221390   7.090   4.056   2.437  0.3125 -0.5626 -0.2170
 7146TIP3    H121391   7.095   4.010   2.353 -0.1989  0.4026 -0.7825
 7146TIP3    H221392   7.023   4.123   2.424  1.4698  0.7443  0.3916
 7147TIP3   OH221393   2.686   2.125   0.136 -0.5692 -0.5447 -0.5207
 7147TIP3    H121394   2.649   2.112   0.223 -1.0658 -1.3144 -0.8485
 7147TIP3    H221395   2.677   2.219   0.121 -0.0847 -0.3311  0.4273
 7148TIP3   OH221396   6.483   4.294   4.647  0.0652 -0.4518  0.0549
 7148TIP3    H121397   6.468   4.263   4.558  1.7248  1.7318 -1.0324
 7148TIP3    H221398   6.577   4.314   4.650 -0.0255 -0.1640  2.2065
 7149TIP3   OH221399   7.648   4.628   2.567  0.0034  0.1953  0.0603
 7149TIP3    H121400   7.599   4.549   2.548  1.4202 -0.3130 -1.6440
 7149TIP3    H221401   7.670   4.622   2.660 -0.0118 -1.3531 -0.0292
 7150TIP3   OH221402   7.625   6.200   3.446 -0.4190 -0.8192  0.4799
 7150TIP3    H121403   7.561   6.266   3.474 -0.6132 -0.5881 -0.4843
 7150TIP3    H221404   7.574   6.136   3.397  0.4425  0.7474 -2.6208
 7151TIP3   OH221405   7.462   5.103   2.176 -0.3573 -0.3734 -0.2658
 7151TIP3    H121406   7.416   5.186   2.162  0.3619  0.3324  1.4908
 7151TIP3    H221407   7.397   5.047   2.219  0.0102  0.2021  1.0578
 7152TIP3   OH221408   6.096   5.359   4.396  0.0328  0.2559 -0.3611
 7152TIP3    H121409   6.187   5.385   4.408 -0.0674  0.5189 -0.1686
 7152TIP3    H221410   6.067   5.406   4.318  0.9614 -2.1756 -2.2726
 7153TIP3   OH221411   6.910   5.188   4.661  0.1346  0.1499 -0.3094
 7153TIP3    H121412   6.891   5.263   4.605  1.8614 -0.8598 -2.3252
 7153TIP3    H221413   6.885   5.112   4.609 -1.2170 -0.7251  1.5511
 7154TIP3   OH221414   0.799   3.225   4.974 -0.2283  0.1911  0.2795
 7154TIP3    H121415   0.822   3.137   4.944 -1.4545 -0.1453  0.3173
 7154TIP3    H221416   0.705   3.222   4.991 -0.7562  2.1339 -1.9160
 7155TIP3   OH221417   5.955   2.538   6.300  0.0958  0.0952  0.1600
 7155TIP3    H121418   5.956   2.498   6.213  2.5602 -1.3914  0.8285
 7155TIP3    H221419   5.890   2.608   6.293 -0.8573 -0.9745 -2.4184
 7156TIP3   OH221420   6.673   5.155   1.666  0.1903 -0.2787  0.4724
 7156TIP3    H121421   6.722   5.233   1.639  0.4864 -0.9556 -0.9517
 7156TIP3    H221422   6.603   5.147   1.602 -0.0797 -0.9649  0.8482
 7157TIP3   OH221423   7.337   4.428   5.186  0.5562  0.4296 -0.2432
 7157TIP3    H121424   7.357   4.343   5.224  0.0690  0.0734 -0.7686
 7157TIP3    H221425   7.420   4.475   5.184  0.6657  0.2890  0.8500
 7158TIP3   OH221426   4.187   1.809   1.747 -0.2700 -0.2744 -0.1231
 7158TIP3    H121427   4.184   1.899   1.715 -1.5509  0.3150  1.5518
 7158TIP3    H221428   4.226   1.816   1.834 -1.5519 -1.1734  0.5334
 7159TIP3   OH221429   4.246   4.600   4.021 -0.3255  0.1385 -0.1295
 7159TIP3    H121430   4.270   4.644   4.102 -1.8960  0.5067  0.1548
 7159TIP3    H221431   4.159   4.563   4.038 -0.4738 -0.1714 -1.4847
 7160TIP3   OH221432   5.563   4.417   2.442  0.1097 -0.1805 -0.0835
 7160TIP3    H121433   5.608   4.501   2.435 -2.3541  1.2117 -0.0413
 7160TIP3    H221434   5.493   4.422   2.377  1.8495 -3.5308 -2.3687
 7161TIP3   OH221435   7.067   4.411   1.751 -0.3426 -0.2125 -0.1007
 7161TIP3    H121436   7.063   4.502   1.778  0.6704 -0.3421  0.5268
 7161TIP3    H221437   7.000   4.402   1.683  1.4863  1.6966 -2.2220
 7162TIP3   OH221438   6.891   0.342   2.556  0.0523  0.2018  0.1830
 7162TIP3    H121439   6.863   0.366   2.645 -0.5088  0.6801 -0.1246
 7162TIP3    H221440   6.959   0.276   2.570 -1.1231 -0.8664  0.9315
 7163TIP3   OH221441   7.244   4.192   2.645 -0.3242 -0.5989  0.1627
 7163TIP3    H121442   7.219   4.283   2.634 -1.4069 -0.8733  0.2700
 7163TIP3    H221443   7.210   4.148   2.567  2.9220 -0.3973 -1.4394
 7164TIP3   OH221444   5.630   5.966   3.154 -0.0174 -0.3267 -0.1544
 7164TIP3    H121445   5.568   5.912   3.203 -1.3099  1.9751  0.8189
 7164TIP3    H221446   5.575   6.023   3.100  1.3358 -0.4771 -1.7230
 7165TIP3   OH221447   7.855   5.143   2.392  0.5361 -0.0759  0.3461
 7165TIP3    H121448   7.888   5.064   2.349  0.5293  0.1637 -0.1064
 7165TIP3    H221449   7.901   5.215   2.348  0.6312  0.1661  0.8331
 7166TIP3   OH221450   0.893   4.659   4.783 -0.0455 -0.0142 -0.3063
 7166TIP3    H121451   0.901   4.728   4.849  0.2054 -0.6107  0.2916
 7166TIP3    H221452   0.802   4.665   4.753 -0.6065 -0.7408  1.2070
 7167TIP3   OH221453   0.336   4.641   1.821  0.1920  0.2664  0.2864
 7167TIP3    H121454   0.306   4.648   1.912 -1.3592 -0.5985 -0.1539
 7167TIP3    H221455   0.266   4.595   1.775  1.7033 -0.8254 -0.9962
 7168TIP3   OH221456   6.549   3.020   3.161  0.2802 -0.4609 -0.0903
 7168TIP3    H121457   6.457   3.040   3.140  0.5955 -0.6589 -1.6997
 7168TIP3    H221458   6.570   2.944   3.107  1.7846  0.3843 -0.6991
 7169TIP3   OH221459   6.880   3.952   3.440  0.0660  0.2162  0.0610
 7169TIP3    H121460   6.895   3.915   3.353 -1.4644  0.0433 -0.1288
 7169TIP3    H221461   6.958   3.927   3.490  0.8968  0.2159 -1.2188
 7170TIP3   OH221462   7.210   3.789   2.845  0.0326  0.1244 -0.5116
 7170TIP3    H121463   7.299   3.773   2.813 -0.4644 -1.4763 -1.1569
 7170TIP3    H221464   7.154   3.774   2.768 -0.9241 -0.3951  0.2752
 7171TIP3   OH221465   6.529   4.850   2.089 -0.0988 -0.3208 -0.1213
 7171TIP3    H121466   6.476   4.925   2.117 -0.2278 -0.3271 -0.3458
 7171TIP3    H221467   6.469   4.797   2.038  0.4266  0.2577 -1.3648
 7172TIP3   OH221468   3.440   4.674   3.695  0.2713  0.0093 -0.3729
 7172TIP3    H121469   3.527   4.701   3.665 -0.0127  0.4985 -0.7667
 7172TIP3    H221470   3.441   4.578   3.688  1.4168 -0.1333  1.3979
 7173TIP3   OH221471   6.121   4.366   5.083  0.1129 -0.9142 -0.4742
 7173TIP3    H121472   6.137   4.298   5.017  0.6984 -0.2021 -1.0664
 7173TIP3    H221473   6.136   4.322   5.167  2.7571 -0.9209 -0.9271
 7174TIP3   OH221474   7.811   3.368   1.913 -0.3270  0.3297  0.1717
 7174TIP3    H121475   7.777   3.333   1.831  0.3112 -2.2487  0.9316
 7174TIP3    H221476   7.741   3.423   1.948 -2.4830 -2.2705  0.1338
 7175TIP3   OH221477   7.357   5.036   0.329  0.0400 -0.1051  0.4169
 7175TIP3    H121478   7.330   5.075   0.412 -0.1926  0.1697  0.2142
 7175TIP3    H221479   7.450   5.060   0.320 -0.5930  2.1075 -0.6447
 7176TIP3   OH221480   6.043   4.640   4.422 -0.3065  0.1045 -0.3123
 7176TIP3    H121481   5.970   4.583   4.446 -1.1030  1.2642  0.0912
 7176TIP3    H221482   6.048   4.635   4.327 -1.5044  0.7299 -0.4109
 7177TIP3   OH221483   7.372   4.381   4.569 -0.2055  0.1140 -0.2536
 7177TIP3    H121484   7.298   4.420   4.523 -1.0060  1.6653  2.2649
 7177TIP3    H221485   7.449   4.423   4.532 -0.6080 -0.8153 -2.2137
 7178TIP3   OH221486   2.882   4.521   4.734  0.5790  0.1039  0.0872
 7178TIP3    H121487   2.969   4.492   4.709  1.0758  1.4551  0.1868
 7178TIP3    H221488   2.889   4.543   4.827 -0.2977 -1.3439  0.5135
 7179TIP3   OH221489   5.446   4.703   4.679 -0.0260 -0.0036 -0.4048
 7179TIP3    H121490   5.401   4.777   4.719 -0.5149 -0.1292 -0.7095
 7179TIP3    H221491   5.397   4.687   4.598 -0.9626 -1.7295  0.4809
 7180TIP3   OH221492   5.522   4.388   5.668 -0.6991  0.5356  0.5054
 7180TIP3    H121493   5.527   4.296   5.692 -1.5435  0.3160 -0.1749
 7180TIP3    H221494   5.546   4.390   5.575 -2.9451  0.7258 -0.0820
 7181TIP3   OH221495   6.147   2.326   1.434  0.1652 -0.6063  0.0072
 7181TIP3    H121496   6.076   2.387   1.452  0.4830 -0.4038  0.5795
 7181TIP3    H221497   6.167   2.338   1.341 -0.8103 -0.9455 -0.2480
 7182TIP3   OH221498   7.369   3.202   4.344  0.5149  0.1612 -0.2190
 7182TIP3    H121499   7.414   3.123   4.373  0.5150 -0.4069 -1.7075
 7182TIP3    H221500   7.439   3.259   4.312  0.3118 -0.2499 -1.4421
 7183TIP3   OH221501   5.358   5.159   4.310 -0.4796  0.1569 -0.3748
 7183TIP3    H121502   5.322   5.192   4.392  0.5169  1.1767 -0.3356
 7183TIP3    H221503   5.283   5.127   4.261 -0.8959 -2.4557  1.8294
 7184TIP3   OH221504   6.997   3.539   5.869  0.2764  0.1605 -0.3255
 7184TIP3    H121505   6.971   3.468   5.811 -0.7577 -0.6331  1.0614
 7184TIP3    H221506   7.013   3.613   5.811  1.6609 -1.2737 -1.8230
 7185TIP3   OH221507   6.623   6.310   2.242 -0.3984 -0.9192  0.0980
 7185TIP3    H121508   6.657   6.360   2.317  1.8729 -2.2822  0.0206
 7185TIP3    H221509   6.661   6.353   2.165 -1.9367 -0.1363 -0.2587
 7186TIP3   OH221510   4.795   4.956   3.674 -0.0178 -0.3605  0.0969
 7186TIP3    H121511   4.823   4.888   3.613 -0.2409  0.1428 -0.5865
 7186TIP3    H221512   4.875   4.984   3.718  0.2902 -0.1245 -0.6000
 7187TIP3   OH221513   5.782   3.642   3.590 -0.2374  0.1967 -0.2089
 7187TIP3    H121514   5.865   3.626   3.635  0.2235  0.5636 -0.9262
 7187TIP3    H221515   5.738   3.557   3.589  0.1629 -0.0125  0.1024
 7188TIP3   OH221516   4.871   5.663   4.714  0.0540 -0.5198 -0.2084
 7188TIP3    H121517   4.779   5.689   4.705  0.7899  2.2076 -0.2346
 7188TIP3    H221518   4.887   5.664   4.809  0.6473  1.2008 -0.3196
 7189TIP3   OH221519   7.509   4.013   3.198  0.3306 -0.7234 -0.0800
 7189TIP3    H121520   7.495   4.069   3.274  0.0592 -0.8404 -0.0412
 7189TIP3    H221521   7.485   3.925   3.228 -1.7978 -0.4567 -0.8936
 7190TIP3   OH221522   5.454   5.799   3.271  0.5747  0.0938 -0.2369
 7190TIP3    H121523   5.400   5.811   3.193  1.6215  2.0516 -0.6931
 7190TIP3    H221524   5.410   5.851   3.338  0.5423 -0.3261  0.0718
 7191TIP3   OH221525   7.504   6.450   2.500  0.4402 -0.2516  0.3273
 7191TIP3    H121526   7.574   6.417   2.556  1.3407 -0.0350 -0.6405
 7191TIP3    H221527   7.542   6.448   2.412 -1.2211 -1.3239 -0.3792
 7192TIP3   OH221528   0.554   4.042   4.863  1.0864  0.2425 -0.2672
 7192TIP3    H121529   0.610   4.120   4.863 -0.1112  1.1055  0.6811
 7192TIP3    H221530   0.489   4.058   4.931  0.9841 -1.7136  0.1384
 7193TIP3   OH221531   4.657   5.983   4.749 -0.8578 -0.0839 -0.2159
 7193TIP3    H121532   4.594   5.926   4.704  0.4506 -0.6157 -1.4301
 7193TIP3    H221533   4.658   6.063   4.697 -1.2862  0.3274  0.3995
 7194TIP3   OH221534   6.218   5.370   3.750  0.1028  0.2230  0.0398
 7194TIP3    H121535   6.290   5.384   3.812 -0.9775 -0.2523  1.4323
 7194TIP3    H221536   6.190   5.280   3.767 -1.1784  0.5883 -0.1167
 7195TIP3   OH221537   6.707   4.989   2.759 -0.1304  0.4412 -0.0990
 7195TIP3    H121538   6.616   4.980   2.730 -0.1621 -1.7086  0.6071
 7195TIP3    H221539   6.704   4.966   2.852  1.5585 -2.2350 -0.6655
 7196TIP3   OH221540   6.270   5.066   3.680 -0.0966 -0.1781 -0.2211
 7196TIP3    H121541   6.306   4.978   3.673  0.3917  0.1336 -1.7947
 7196TIP3    H221542   6.328   5.120   3.626  1.6029  1.7435  3.3951
 7197TIP3   OH221543   5.415   7.005   4.695 -0.0795  0.4290  0.4782
 7197TIP3    H121544   5.336   6.951   4.695 -0.0979  0.4247  1.9306
 7197TIP3    H221545   5.424   7.034   4.786  1.5922  0.4010  0.3459
 7198TIP3   OH221546   5.400   6.369   5.177  0.4853 -0.3735  0.2106
 7198TIP3    H121547   5.385   6.307   5.249  0.3528  0.4889  0.9398
 7198TIP3    H221548   5.326   6.429   5.183  1.6086  0.9803  0.6996
 7199TIP3   OH221549   7.617   5.989   1.416 -0.1803 -0.1882 -0.6142
 7199TIP3    H121550   7.563   5.981   1.337  0.6479 -0.0523 -1.2063
 7199TIP3    H221551   7.669   6.068   1.401  0.9750 -0.9330 -0.5474
 7200TIP3   OH221552   5.891   5.923   3.976 -0.1976  0.3459 -0.7142
 7200TIP3    H121553   5.939   5.898   3.898 -0.3041  1.1181 -1.0325
 7200TIP3    H221554   5.800   5.897   3.958 -0.0859 -0.1618 -0.5395
 7201TIP3   OH221555   6.847   1.973   2.885 -0.1528 -0.3513  0.2663
 7201TIP3    H121556   6.893   2.030   2.822 -1.0832  1.6493  1.3343
 7201TIP3    H221557   6.902   1.896   2.892 -0.2067 -0.7925 -3.2851
 7202TIP3   OH221558   6.196   4.399   2.918 -0.0222  0.0860 -0.4214
 7202TIP3    H121559   6.118   4.451   2.899  1.0317  1.6118 -0.6468
 7202TIP3    H221560   6.187   4.321   2.862 -1.1984  0.4201 -0.7054
 7203TIP3   OH221561   0.240   3.057   1.773 -0.1254 -0.0261 -0.1071
 7203TIP3    H121562   0.274   3.008   1.698 -0.7322  0.0307 -0.4199
 7203TIP3    H221563   0.150   3.025   1.783 -1.1125  2.2865 -1.3917
 7204TIP3   OH221564   4.238   3.763   6.341 -0.2644 -0.5318 -0.3317
 7204TIP3    H121565   4.219   3.803   6.255  1.0781  0.3797 -0.2209
 7204TIP3    H221566   4.224   3.835   6.403  1.3795 -0.4493 -0.0506
 7205TIP3   OH221567   7.831   4.594   3.265  0.5256 -0.1608 -0.0787
 7205TIP3    H121568   7.824   4.512   3.216  0.1402  0.1222 -0.4887
 7205TIP3    H221569   7.922   4.594   3.297  0.5801 -0.6631 -0.2201
 7206TIP3   OH221570   6.342   5.446   4.570 -0.0762 -0.3865  0.2167
 7206TIP3    H121571   6.275   5.451   4.638 -0.5603 -2.1666 -0.1090
 7206TIP3    H221572   6.425   5.455   4.617 -0.5182  1.6837  0.6413
 7207TIP3   OH221573   6.936   2.278   2.797 -0.2807 -0.4669 -0.3172
 7207TIP3    H121574   7.007   2.278   2.861 -0.3658  2.1512 -0.1550
 7207TIP3    H221575   6.973   2.321   2.720 -1.1034 -0.8229 -0.9172
 7208TIP3   OH221576   5.473   5.830   4.574  0.2046  0.1069  0.3156
 7208TIP3    H121577   5.439   5.753   4.618 -0.1028  0.2881  0.3989
 7208TIP3    H221578   5.399   5.891   4.572  0.8793  1.0059  1.6647
 7209TIP3   OH221579   6.444   3.177   0.397  0.0190  0.7596 -0.5224
 7209TIP3    H121580   6.454   3.245   0.464 -1.5888  1.6317 -1.1438
 7209TIP3    H221581   6.350   3.159   0.395  0.5400 -2.4614  0.5544
 7210TIP3   OH221582   6.527   4.524   3.272 -0.8970  0.4925  0.8901
 7210TIP3    H121583   6.456   4.531   3.209  0.7204  0.4825 -0.9724
 7210TIP3    H221584   6.579   4.449   3.243  0.6004  1.2716  1.4620
 7211TIP3   OH221585   6.535   5.029   4.372  0.7986  0.9099  0.3269
 7211TIP3    H121586   6.470   4.967   4.405  2.4201 -1.3079 -0.4551
 7211TIP3    H221587   6.534   5.015   4.277  0.4392  2.8950  0.0121
 7212TIP3   OH221588   5.253   6.857   3.527  0.3893  0.0319  0.0635
 7212TIP3    H121589   5.272   6.792   3.459  0.7047 -0.2923  0.4576
 7212TIP3    H221590   5.314   6.836   3.598 -1.6665 -1.2317  1.5047
 7213TIP3   OH221591   7.059   3.357   5.429  0.5745  0.1952  0.1070
 7213TIP3    H121592   7.092   3.446   5.445  1.9568  0.1311 -2.2490
 7213TIP3    H221593   6.969   3.370   5.401  0.2279  0.7280  1.4248
 7214TIP3   OH221594   6.193   3.321   5.523  0.4144  0.0807  0.3026
 7214TIP3    H121595   6.231   3.325   5.611  0.4198  1.1443  0.2682
 7214TIP3    H221596   6.111   3.274   5.534  0.2806  0.4501  0.9401
 7215TIP3   OH221597   5.415   5.096   3.615  0.5488 -0.0370 -0.8581
 7215TIP3    H121598   5.369   5.071   3.536  0.7001  1.0142 -1.2857
 7215TIP3    H221599   5.346   5.128   3.674  0.4614 -0.6176 -0.6481
 7216TIP3   OH221600   5.325   5.020   5.024 -0.4870  0.7018 -0.0950
 7216TIP3    H121601   5.260   5.086   5.050 -1.5280 -0.7074  0.9652
 7216TIP3    H221602   5.324   4.956   5.095  1.4522  0.1984 -0.4943
 7217TIP3   OH221603   4.637   5.779   2.552  0.5106  0.1012 -0.4180
 7217TIP3    H121604   4.569   5.804   2.490  0.3109  0.0428 -0.2253
 7217TIP3    H221605   4.711   5.837   2.532 -0.3360  1.6362  0.7526
 7218TIP3   OH221606   0.248   4.663   4.415  0.3676 -0.0487  0.1294
 7218TIP3    H121607   0.163   4.679   4.455 -0.0242 -0.3614 -0.5685
 7218TIP3    H221608   0.234   4.676   4.321  1.2655  0.6475  0.0779
 7219TIP3   OH221609   0.577   5.067   4.864  0.2932 -0.0989 -0.0571
 7219TIP3    H121610   0.660   5.059   4.817 -0.0223 -0.5538 -0.5383
 7219TIP3    H221611   0.588   5.145   4.919  1.2483 -0.4792  0.3078
 7220TIP3   OH221612   7.066   5.934   3.638 -0.2692  0.2048  0.4910
 7220TIP3    H121613   7.134   5.956   3.702  0.1835  0.0041  0.0873
 7220TIP3    H221614   7.114   5.890   3.567 -0.9802 -1.0377  0.7591
 7221TIP3   OH221615   7.007   3.680   2.983  0.3039  0.5249  0.2713
 7221TIP3    H121616   6.947   3.686   2.909 -1.2028  1.5948  1.5500
 7221TIP3    H221617   7.091   3.709   2.948 -0.1851  0.1975 -1.2209
 7222TIP3   OH221618   6.601   3.849   4.833  0.2932  0.1066 -0.4894
 7222TIP3    H121619   6.559   3.769   4.864  1.6382  0.1069  1.4182
 7222TIP3    H221620   6.530   3.914   4.829 -0.8333 -1.1709 -2.1859
 7223TIP3   OH221621   1.675   6.277   3.520 -0.0048  0.3083 -0.2977
 7223TIP3    H121622   1.710   6.312   3.438 -0.4375 -0.0649 -0.6447
 7223TIP3    H221623   1.684   6.182   3.511  0.2304  0.2797  0.2182
 7224TIP3   OH221624   5.900   3.554   3.902 -0.0304 -1.1900  1.1572
 7224TIP3    H121625   5.962   3.515   3.841  0.9131 -0.1612  1.4435
 7224TIP3    H221626   5.815   3.519   3.875  0.3891 -0.8906 -0.6241
 7225TIP3   OH221627   7.700   4.790   1.738 -0.5542  0.4571  0.4793
 7225TIP3    H121628   7.675   4.868   1.689 -0.8600  0.0218 -0.0650
 7225TIP3    H221629   7.750   4.738   1.676 -0.0351  0.3832  0.9519
 7226TIP3   OH221630   6.317   4.228   3.434  0.2248  0.5247 -0.6460
 7226TIP3    H121631   6.286   4.244   3.345  1.0387  2.3959 -0.6281
 7226TIP3    H221632   6.278   4.298   3.487 -1.4460 -1.4194  0.7817
 7227TIP3   OH221633   6.807   5.560   2.811  0.0146 -0.5887  0.5456
 7227TIP3    H121634   6.725   5.558   2.860 -0.9304  0.7875 -0.9020
 7227TIP3    H221635   6.789   5.511   2.731  0.9746 -1.2960  0.7599
 7228TIP3   OH221636   6.772   6.393   3.555 -0.3257  0.1431 -0.1483
 7228TIP3    H121637   6.783   6.486   3.572 -2.4152  0.3773 -0.0021
 7228TIP3    H221638   6.726   6.389   3.471  0.6832 -0.7863 -0.6683
 7229TIP3   OH221639   0.048   5.049   4.084 -0.1471  0.1148 -0.3816
 7229TIP3    H121640  -0.037   5.010   4.103  0.3462 -0.0058  1.7868
 7229TIP3    H221641   0.076   5.087   4.168  2.0046 -0.0037 -1.0026
 7230TIP3   OH221642   0.075   3.300   2.143  0.6113  0.3109  0.8481
 7230TIP3    H121643   0.150   3.355   2.124  0.3111  0.3832 -0.1434
 7230TIP3    H221644   0.009   3.325   2.079  0.3353 -0.9277  0.6221
 7231TIP3   OH221645   6.823   7.249   3.826  0.6005  0.0136 -0.3431
 7231TIP3    H121646   6.911   7.254   3.789  0.8402 -0.5207  0.1606
 7231TIP3    H221647   6.766   7.281   3.756  1.2049  0.4940 -0.6214
 7232TIP3   OH221648   6.791   5.319   5.176  0.5165  0.4187  0.0117
 7232TIP3    H121649   6.761   5.385   5.240  0.7719 -0.2842  0.8650
 7232TIP3    H221650   6.866   5.361   5.133 -0.6454  1.5306 -0.9719
 7233TIP3   OH221651   6.822   3.422   0.518 -0.4491 -0.6807  0.6752
 7233TIP3    H121652   6.786   3.333   0.512 -1.8256 -0.1738  1.1367
 7233TIP3    H221653   6.890   3.425   0.452 -1.6457 -1.5231 -0.6289
 7234TIP3   OH221654   0.766   5.952   1.642  0.2250  0.0984  0.3796
 7234TIP3    H121655   0.709   5.888   1.599 -0.1747  0.9968 -0.4435
 7234TIP3    H221656   0.851   5.910   1.644  0.5269  0.4787 -2.3750
 7235TIP3   OH221657   7.767   3.522   3.474  0.4565 -0.4791  0.0880
 7235TIP3    H121658   7.773   3.497   3.382  1.7896 -2.8121  0.7754
 7235TIP3    H221659   7.851   3.498   3.511 -0.1530  0.2310  1.9816
 7236TIP3   OH221660   6.398   5.195   3.257 -0.1587 -0.4211 -0.3143
 7236TIP3    H121661   6.319   5.248   3.258 -0.6608 -1.1595 -1.2743
 7236TIP3    H221662   6.369   5.107   3.281  0.5816 -0.4216  0.6539
 7237TIP3   OH221663   2.084   6.454   2.834 -0.4190  0.2690  0.3836
 7237TIP3    H121664   2.013   6.420   2.779 -0.2529 -0.9124  0.8812
 7237TIP3    H221665   2.162   6.408   2.802 -0.0726  0.6955  0.6151
 7238TIP3   OH221666   6.387   5.746   1.923  0.2402  0.4932  1.1363
 7238TIP3    H121667   6.307   5.713   1.881  0.2161  0.4424  1.2206
 7238TIP3    H221668   6.453   5.745   1.854  0.2441  0.2462  1.1439
 7239TIP3   OH221669   5.653   7.041   3.493  0.5714 -0.6745 -0.5141
 7239TIP3    H121670   5.664   7.111   3.557 -0.2907 -1.5111  0.5533
 7239TIP3    H221671   5.563   7.050   3.463  0.7870 -0.6665 -1.1644
 7240TIP3   OH221672   6.996   4.665   5.049  0.0040  0.4323 -0.5007
 7240TIP3    H121673   7.070   4.621   5.007 -0.4367 -0.1182 -0.7182
 7240TIP3    H221674   6.996   4.753   5.013  0.1239  0.2126 -1.0443
 7241TIP3   OH221675   6.342   4.700   1.342  0.6147  0.5328 -0.1853
 7241TIP3    H121676   6.412   4.735   1.397 -1.1202 -0.0505  2.4624
 7241TIP3    H221677   6.292   4.777   1.315  1.1577  0.7614 -0.5630
 7242TIP3   OH221678   7.537   5.649   4.360  0.6876 -0.0576 -0.6294
 7242TIP3    H121679   7.469   5.583   4.368  1.7941 -1.2276 -0.7249
 7242TIP3    H221680   7.526   5.684   4.271 -1.5875  1.7974  0.3419
 7243TIP3   OH221681   7.222   5.693   1.003 -0.1223  0.0049 -0.1098
 7243TIP3    H121682   7.182   5.671   0.919 -0.6045  0.4956 -0.0092
 7243TIP3    H221683   7.279   5.767   0.984 -1.3593  1.0645  0.2799
 7244TIP3   OH221684   6.370   3.952   2.262 -0.6558  0.5316  0.0234
 7244TIP3    H121685   6.290   3.979   2.216  0.4009  0.5297 -1.8552
 7244TIP3    H221686   6.436   3.945   2.193  0.3418 -1.9718  1.1883
 7245TIP3   OH221687   5.784   4.824   5.790  0.1390 -0.0155 -0.6369
 7245TIP3    H121688   5.765   4.741   5.746 -0.3498 -0.5947  0.6709
 7245TIP3    H221689   5.844   4.869   5.730  0.6980 -1.4630 -1.1795
 7246TIP3   OH221690   7.749   4.073   1.717  0.1848 -0.2891 -0.6113
 7246TIP3    H121691   7.737   4.130   1.641  0.1488  0.3639 -0.1202
 7246TIP3    H221692   7.843   4.062   1.724  0.3706  1.8924  0.8725
 7247TIP3   OH221693   6.460   4.718   3.983 -0.0770 -0.9899 -0.3746
 7247TIP3    H121694   6.455   4.623   3.984 -0.0506 -0.9891 -0.0846
 7247TIP3    H221695   6.393   4.747   4.044  1.5166 -0.9007  1.3777
 7248TIP3   OH221696   0.808   4.888   2.212 -0.2192 -0.2411 -0.0799
 7248TIP3    H121697   0.736   4.872   2.272  0.3848  0.0673  0.7353
 7248TIP3    H221698   0.766   4.916   2.131 -1.0176 -0.2458  0.3314
 7249TIP3   OH221699   0.931   3.302   4.042  0.1408 -0.3869 -0.1916
 7249TIP3    H121700   0.939   3.375   4.103  1.2189  0.4079 -1.2797
 7249TIP3    H221701   0.846   3.262   4.064 -0.6883  1.4758  0.0624
 7250TIP3   OH221702   0.984   4.147   2.303 -0.4519 -0.0375  0.1364
 7250TIP3    H121703   1.060   4.207   2.304 -1.6449  1.5007  0.4379
 7250TIP3    H221704   0.951   4.152   2.213 -0.7409 -0.0040  0.2441
 7251TIP3   OH221705   7.161   3.516   3.177 -0.2899 -0.7962  0.0853
 7251TIP3    H121706   7.209   3.471   3.107 -0.4535 -0.2207 -0.4016
 7251TIP3    H221707   7.097   3.571   3.131 -0.7192 -0.7780  0.7016
 7252TIP3   OH221708   1.719   3.186   2.999 -0.0005  0.1703 -0.6929
 7252TIP3    H121709   1.771   3.114   2.964  0.4923 -0.2543  0.8797
 7252TIP3    H221710   1.641   3.143   3.036 -0.2111  0.5478 -0.6982
 7253TIP3   OH221711   6.724   6.943   5.606  0.1154  0.0594  0.1525
 7253TIP3    H121712   6.695   6.895   5.528 -0.5523  0.8721 -0.1011
 7253TIP3    H221713   6.654   6.931   5.669  0.2690  0.1170  0.3334
 7254TIP3   OH221714   0.188   3.893   2.858 -0.0182  0.1624  0.5634
 7254TIP3    H121715   0.212   3.926   2.944  2.3341  0.8800 -0.3200
 7254TIP3    H221716   0.186   3.970   2.802  1.4784 -0.6354 -0.6447
 7255TIP3   OH221717   7.761   5.119   1.865  0.3448  0.3257 -0.0622
 7255TIP3    H121718   7.746   5.041   1.918  0.3165  0.3614 -0.0177
 7255TIP3    H221719   7.722   5.098   1.780  1.6090 -0.2857 -0.5212
 7256TIP3   OH221720   6.851   7.105   4.956  0.0242  0.2246 -0.2346
 7256TIP3    H121721   6.843   7.101   4.860  1.0746  1.8014 -0.4051
 7256TIP3    H221722   6.767   7.073   4.988  0.2207 -1.8381 -1.6513
 7257TIP3   OH221723   0.587   4.871   5.142 -0.3402 -0.3301  0.4503
 7257TIP3    H121724   0.586   4.898   5.050 -0.4563  0.5135  0.7012
 7257TIP3    H221725   0.509   4.816   5.152 -0.7536  0.2179  0.2406
 7258TIP3   OH221726   0.212   4.527   4.003 -0.5870 -0.2575  0.1374
 7258TIP3    H121727   0.169   4.583   4.068 -1.0371  0.7986 -1.0545
 7258TIP3    H221728   0.140   4.483   3.958 -0.2022 -2.6766  1.8122
 7259TIP3   OH221729   7.065   5.279   3.004 -0.2939  0.2210  0.6081
 7259TIP3    H121730   7.038   5.227   3.079 -0.7687 -0.2808  0.0896
 7259TIP3    H221731   6.989   5.280   2.946  0.4468 -0.3384 -0.3896
 7260TIP3   OH221732   0.020   3.651   0.792  0.0555  0.7195  0.1578
 7260TIP3    H121733   0.077   3.725   0.812 -0.8254  0.3137  4.6982
 7260TIP3    H221734  -0.066   3.690   0.774 -0.3626  0.8302  2.3532
 7261TIP3   OH221735   6.436   5.868   3.421 -0.2391  0.5041  0.1005
 7261TIP3    H121736   6.498   5.845   3.491 -0.7595  0.6777  0.6249
 7261TIP3    H221737   6.476   5.944   3.378 -0.1414  0.6978  0.5219
 7262TIP3   OH221738   0.375   4.164   1.967  0.0344 -0.5535 -0.0084
 7262TIP3    H121739   0.348   4.247   2.005  0.3426 -0.0032 -0.9983
 7262TIP3    H221740   0.304   4.103   1.989 -1.1935  0.4676 -1.0867
 7263TIP3   OH221741   0.222   7.195   5.033 -0.0174 -0.4017 -0.1265
 7263TIP3    H121742   0.298   7.143   5.059 -0.3255 -1.6638 -1.6293
 7263TIP3    H221743   0.255   7.254   4.965  0.1720  0.8527  1.0541
 7264TIP3   OH221744   7.444   4.292   4.135 -0.2408 -0.0784 -0.2113
 7264TIP3    H121745   7.523   4.296   4.189  1.0569  0.0360 -2.0942
 7264TIP3    H221746   7.372   4.298   4.198  1.2374 -0.2802  1.5342
 7265TIP3   OH221747   0.564   7.017   2.474  0.7496  0.0861 -0.3633
 7265TIP3    H121748   0.559   6.973   2.390 -1.4731 -0.1514 -0.1518
 7265TIP3    H221749   0.552   7.110   2.454 -0.7099 -0.0626 -0.2495
 7266TIP3   OH221750   6.688   6.691   2.823 -0.0797 -0.4722 -0.1313
 7266TIP3    H121751   6.617   6.735   2.868  0.8302  0.5194  0.3663
 7266TIP3    H221752   6.748   6.762   2.798  0.1559 -1.1563 -1.5908
 7267TIP3   OH221753   7.649   4.164   1.260 -0.8393  0.1700 -0.2145
 7267TIP3    H121754   7.689   4.131   1.180 -1.7069  0.7508 -0.8905
 7267TIP3    H221755   7.561   4.127   1.260 -1.0462  0.6647  0.1637
 7268TIP3   OH221756   0.429   4.765   3.917  0.1948  0.0999  0.0074
 7268TIP3    H121757   0.487   4.773   3.992 -0.0471 -1.6727  0.4189
 7268TIP3    H221758   0.446   4.842   3.864  2.5014 -0.1098  0.4187
 7269TIP3   OH221759   1.272   3.827   3.024 -0.2933 -0.4297  0.3149
 7269TIP3    H121760   1.188   3.861   3.056 -0.4235 -0.6357  0.1912
 7269TIP3    H221761   1.325   3.815   3.103  0.6599  2.4660  0.1747
 7270TIP3   OH221762   0.458   4.369   3.402  0.2389 -0.0028  0.1855
 7270TIP3    H121763   0.541   4.414   3.385 -0.1024  0.1496 -1.0632
 7270TIP3    H221764   0.391   4.437   3.396 -0.1802 -0.4931 -0.7503
 7271TIP3   OH221765   6.901   5.041   3.939  0.0282  0.1083 -0.3897
 7271TIP3    H121766   6.904   4.961   3.991  3.2113  0.5468  0.2076
 7271TIP3    H221767   6.817   5.037   3.893 -1.4676 -1.7995  2.3778
 7272TIP3   OH221768   7.145   4.348   3.896 -0.8087 -0.4666 -0.3072
 7272TIP3    H121769   7.131   4.335   3.989 -4.5116  0.3386 -0.6803
 7272TIP3    H221770   7.173   4.439   3.888 -0.3937 -0.5670  0.0173
 7273TIP3   OH221771   3.404   2.210   5.359 -0.5101  0.0604 -0.1382
 7273TIP3    H121772   3.364   2.133   5.319 -0.6059 -0.5653  1.1330
 7273TIP3    H221773   3.489   2.217   5.316 -0.9756 -0.0484 -1.1060
 7274TIP3   OH221774   6.509   3.366   2.518 -0.5691 -0.2119 -0.0357
 7274TIP3    H121775   6.513   3.390   2.611 -3.3134  0.0484  0.0601
 7274TIP3    H221776   6.483   3.447   2.474  0.9174 -0.2882 -1.0795
 7275TIP3   OH221777   1.389   4.548   3.567  0.2318 -0.0696  0.3790
 7275TIP3    H121778   1.356   4.624   3.519  0.2398 -1.5578 -2.1223
 7275TIP3    H221779   1.414   4.486   3.498  0.3672 -2.2664  2.3337
 7276TIP3   OH221780   6.817   6.077   3.332  0.2353  0.2230 -0.3707
 7276TIP3    H121781   6.872   6.155   3.332  0.4066  0.1231 -1.7085
 7276TIP3    H221782   6.728   6.110   3.320  0.3201  0.2080 -1.0478
 7277TIP3   OH221783   0.828   4.296   2.978  0.3944  0.5156 -0.1056
 7277TIP3    H121784   0.760   4.332   3.034 -0.8688  1.1421 -1.9923
 7277TIP3    H221785   0.804   4.325   2.889  1.6616 -1.4492 -1.1272
 7278TIP3   OH221786   6.883   3.834   0.358 -0.1356  0.7059 -0.5391
 7278TIP3    H121787   6.819   3.771   0.324 -0.2245  1.0708 -1.0556
 7278TIP3    H221788   6.890   3.814   0.451  1.1603 -1.2381 -1.0214
 7279TIP3   OH221789   7.902   4.583   2.401  0.2829 -0.2008  0.4662
 7279TIP3    H121790   7.843   4.629   2.460 -0.5940 -0.5736 -0.1031
 7279TIP3    H221791   7.870   4.603   2.314  1.3609  0.0637  0.1224
 7280TIP3   OH221792   7.129   5.079   0.475  0.0842 -0.3284 -0.0028
 7280TIP3    H121793   7.038   5.050   0.481 -0.7520  2.1429 -0.2527
 7280TIP3    H221794   7.137   5.117   0.387  1.2299 -0.0872  0.1908
 7281TIP3   OH221795   7.133   3.774   2.561  0.2480  0.3671 -0.4011
 7281TIP3    H121796   7.218   3.760   2.520  0.1079  1.0439 -0.9388
 7281TIP3    H221797   7.098   3.853   2.518 -1.6058 -1.1429 -1.7386
 7282TIP3   OH221798   1.557   3.296   4.020  0.3274  0.2044 -0.1496
 7282TIP3    H121799   1.583   3.383   4.049  2.0968 -0.1356 -0.6772
 7282TIP3    H221800   1.464   3.305   3.998  0.2639  1.7200  0.6458
 7283TIP3   OH221801   0.342   4.785   3.481  0.7022 -0.4495  0.1747
 7283TIP3    H121802   0.316   4.878   3.479 -1.1181 -0.9482 -1.0177
 7283TIP3    H221803   0.435   4.786   3.460 -0.0834  0.8826 -3.7807
 7284TIP3   OH221804   6.943   6.111   2.970  0.2444  0.2680  0.4951
 7284TIP3    H121805   6.946   6.020   2.940 -1.0104  0.6394 -0.8143
 7284TIP3    H221806   6.867   6.114   3.028 -0.7789  0.8458 -0.8286
 7285TIP3   OH221807   6.719   5.441   3.996 -0.2737 -0.2791 -0.4278
 7285TIP3    H121808   6.624   5.443   3.998 -0.2934 -1.2415 -0.2447
 7285TIP3    H221809   6.745   5.456   4.087 -0.2452  0.0199 -0.4841
 7286TIP3   OH221810   4.224   1.349   6.227  0.7308 -0.1643  0.0279
 7286TIP3    H121811   4.250   1.259   6.245  3.3033  0.5627  0.0812
 7286TIP3    H221812   4.301   1.389   6.186 -0.7130  1.7419 -0.9262
 7287TIP3   OH221813   4.886   5.714   3.788 -0.2175  0.4868  0.1071
 7287TIP3    H121814   4.932   5.681   3.711  0.3487  2.1658 -0.3139
 7287TIP3    H221815   4.860   5.636   3.837  1.8097 -0.5133 -0.3910
 7288TIP3   OH221816   1.390   7.065   1.329 -0.0078 -0.1293 -1.2248
 7288TIP3    H121817   1.443   6.986   1.327  0.1963 -0.0150 -0.4632
 7288TIP3    H221818   1.381   7.086   1.422 -0.0557  0.7461 -1.4183
 7289TIP3   OH221819   1.691   6.177   3.106  0.2677 -0.7389 -0.1162
 7289TIP3    H121820   1.744   6.099   3.121  0.3889 -0.4430  1.1027
 7289TIP3    H221821   1.614   6.164   3.161 -0.7831 -1.0179 -1.6368
 7290TIP3   OH221822   1.089   5.470   2.154  0.1717  0.2337  0.4732
 7290TIP3    H121823   1.030   5.450   2.226 -1.1156  0.2713 -0.5554
 7290TIP3    H221824   1.107   5.564   2.163 -1.1450  0.5443 -0.0985
 7291TIP3   OH221825   5.178   4.497   4.770 -0.3943  0.3232 -0.4494
 7291TIP3    H121826   5.083   4.492   4.761 -0.5341  2.2887 -0.2082
 7291TIP3    H221827   5.211   4.427   4.712 -1.9960 -1.1211  0.3245
 7292TIP3   OH221828   2.433   2.945   4.589 -0.1424 -0.1209 -0.2950
 7292TIP3    H121829   2.500   2.985   4.645 -0.6820  0.3414  0.0246
 7292TIP3    H221830   2.436   2.997   4.509  0.1771 -0.3688 -0.4430
 7293TIP3   OH221831   0.528   6.934   3.192 -0.0857 -0.3944 -0.0821
 7293TIP3    H121832   0.580   6.960   3.116 -1.0018 -0.1369 -0.6279
 7293TIP3    H221833   0.465   7.005   3.204  0.5547 -0.0417  1.4226
 7294TIP3   OH221834   3.896   0.218   6.383 -0.3513  0.1459  0.7583
 7294TIP3    H121835   3.989   0.231   6.406 -0.4057 -0.8831  1.5931
 7294TIP3    H221836   3.870   0.301   6.343  0.7555  0.6875  1.1204
 7295TIP3   OH221837   1.050   3.908   3.169 -0.5526  0.1210 -0.1693
 7295TIP3    H121838   1.109   3.963   3.222 -1.0182  0.4325  0.0238
 7295TIP3    H221839   0.977   3.888   3.227  0.1124 -1.6037  0.1355
 7296TIP3   OH221840   1.125   4.158   4.679 -0.0714 -0.0817 -0.0815
 7296TIP3    H121841   1.205   4.118   4.645 -0.4470 -0.2761 -0.7494
 7296TIP3    H221842   1.155   4.225   4.740  0.5860 -0.6386  0.2055
 7297TIP3   OH221843   7.433   4.966   4.493 -0.0042 -0.0689  0.1668
 7297TIP3    H121844   7.373   5.001   4.560  1.3764  0.6785  1.0338
 7297TIP3    H221845   7.481   5.042   4.462  2.1154 -0.9585  1.1425
 7298TIP3   OH221846   0.061   4.986   4.635  0.2083  0.1978 -0.6721
 7298TIP3    H121847   0.109   4.939   4.703 -1.4441  0.9098  1.0281
 7298TIP3    H221848   0.103   5.071   4.630 -1.1559  1.0108  1.1861
 7299TIP3   OH221849   2.465   6.126   4.277 -0.1662 -0.3866  0.0368
 7299TIP3    H121850   2.394   6.136   4.214 -0.5161 -2.5221  0.0712
 7299TIP3    H221851   2.529   6.069   4.233  1.4593  1.3306  0.0831
 7300TIP3   OH221852   1.872   5.548   3.509  0.0392  0.2873 -0.3182
 7300TIP3    H121853   1.871   5.641   3.532 -3.1222  0.2973 -0.2144
 7300TIP3    H221854   1.871   5.546   3.414  2.3982  0.3087 -0.3703
 7301TIP3   OH221855   3.340   6.973   0.383 -0.5687  0.1863 -0.7264
 7301TIP3    H121856   3.274   6.909   0.355  1.1748 -2.1542  0.3856
 7301TIP3    H221857   3.409   6.967   0.317 -0.3888  0.9453 -0.6170
 7302TIP3   OH221858   7.691   4.977   4.134  0.1863  0.5715  0.2402
 7302TIP3    H121859   7.681   5.002   4.226  1.0377 -0.6807  0.6947
 7302TIP3    H221860   7.644   5.044   4.085 -2.3506 -0.0542  1.7390
 7303TIP3   OH221861   0.858   5.071   4.742  0.1720  0.0781  0.0389
 7303TIP3    H121862   0.847   5.153   4.791  1.2617 -0.7820  1.7758
 7303TIP3    H221863   0.864   5.004   4.810  2.1330 -1.1046 -1.2592
 7304TIP3   OH221864   0.361   5.664   2.898  0.7086  0.2039  0.2456
 7304TIP3    H121865   0.305   5.647   2.974 -0.3743 -0.5442 -0.6917
 7304TIP3    H221866   0.444   5.694   2.935  0.0176  0.3624  1.6972
 7305TIP3   OH221867   7.365   0.160   4.147 -0.2063  0.3933 -0.1227
 7305TIP3    H121868   7.368   0.065   4.151  0.4503  0.4824  2.5982
 7305TIP3    H221869   7.406   0.183   4.064 -0.4187 -1.6960 -0.8115
 7306TIP3   OH221870   7.803   6.593   1.237  0.0289 -0.8715  0.1900
 7306TIP3    H121871   7.747   6.624   1.309  0.2693 -1.0265  0.4466
 7306TIP3    H221872   7.816   6.669   1.181  1.2838 -0.2992  1.2414
 7307TIP3   OH221873   6.253   3.943   5.196  0.0801 -0.2651 -0.0135
 7307TIP3    H121874   6.176   3.932   5.252 -0.1796 -0.0720 -0.3359
 7307TIP3    H221875   6.309   3.868   5.219 -0.2415 -0.4575  0.1542
 7308TIP3   OH221876   0.652   6.054   3.747 -0.2771 -0.1052  0.5263
 7308TIP3    H121877   0.581   6.046   3.683 -0.5268  0.5562  0.7120
 7308TIP3    H221878   0.645   5.975   3.800  0.6779 -1.2445 -0.9970
 7309TIP3   OH221879   7.852   5.668   3.507  0.0343 -0.4420 -0.0488
 7309TIP3    H121880   7.817   5.594   3.556 -1.4218 -0.7149 -1.4916
 7309TIP3    H221881   7.818   5.658   3.418  1.2229  1.0102 -0.7083
 7310TIP3   OH221882   0.529   5.258   3.925 -0.0065 -0.3002  0.4287
 7310TIP3    H121883   0.455   5.296   3.877  0.0078 -0.5841  0.1831
 7310TIP3    H221884   0.601   5.319   3.909  0.0616 -0.5186 -0.1060
 7311TIP3   OH221885   6.731   4.481   3.972  0.0990 -0.0278  0.2101
 7311TIP3    H121886   6.781   4.424   4.030 -0.3550  0.2965  0.9275
 7311TIP3    H221887   6.643   4.482   4.009  0.3331  1.8879  0.7584
 7312TIP3   OH221888   6.020   4.668   4.141  0.1262  0.1209 -0.0016
 7312TIP3    H121889   5.965   4.607   4.091  1.6556 -0.3139 -1.1785
 7312TIP3    H221890   5.970   4.749   4.141 -0.7549 -0.4040 -0.6423
 7313TIP3   OH221891   7.790   4.872   4.980 -0.6403 -0.5430 -0.1368
 7313TIP3    H121892   7.783   4.869   4.885 -0.2280  0.5818 -0.2148
 7313TIP3    H221893   7.748   4.955   5.005 -0.1033 -0.4790  0.5906
 7314TIP3   OH221894   7.153   6.716   4.182  0.7898  0.0694 -0.2108
 7314TIP3    H121895   7.140   6.802   4.222  1.2697  0.4700 -0.9147
 7314TIP3    H221896   7.064   6.684   4.164  0.6130  0.4273  0.0266
 7315TIP3   OH221897   7.038   7.097   3.154 -0.3240  0.4088  0.1268
 7315TIP3    H121898   7.000   7.155   3.221 -0.4486  0.4226  0.0448
 7315TIP3    H221899   6.963   7.068   3.103 -0.2617  0.1676  0.1724
 7316TIP3   OH221900   7.036   4.148   3.672  0.5443  0.0757 -0.2851
 7316TIP3    H121901   6.988   4.173   3.593 -1.6780 -0.9997  0.7013
 7316TIP3    H221902   7.028   4.224   3.730  0.5530  0.1390 -0.3677
 7317TIP3   OH221903   1.045   6.942   4.650  0.1746  0.3497 -0.1205
 7317TIP3    H121904   1.078   6.951   4.561  2.8407  2.9317  1.0341
 7317TIP3    H221905   0.950   6.940   4.641  0.4062  0.4470 -2.9903
 7318TIP3   OH221906   0.062   5.873   4.988 -0.5340  0.5424 -0.4165
 7318TIP3    H121907  -0.009   5.813   5.010 -1.3177  1.8521  0.6647
 7318TIP3    H221908   0.064   5.936   5.060  3.0298 -0.6109  0.6404
 7319TIP3   OH221909   6.791   6.582   3.981 -0.1016 -0.0972  0.2213
 7319TIP3    H121910   6.813   6.628   4.062 -1.8316  0.3780  0.4541
 7319TIP3    H221911   6.859   6.515   3.972  0.0793 -0.2085  2.1217
 7320TIP3   OH221912   7.784   3.875   4.359 -0.4760  0.2066 -0.5775
 7320TIP3    H121913   7.871   3.912   4.346  0.6124 -2.5133 -1.5341
 7320TIP3    H221914   7.732   3.947   4.394  1.9922  2.0536 -0.5583
 7321TIP3   OH221915   0.537   3.917   2.183  0.0728  0.6983 -0.3066
 7321TIP3    H121916   0.449   3.894   2.155 -0.1901  0.5036  0.6813
 7321TIP3    H221917   0.594   3.880   2.115 -0.6732  2.0602 -1.6941
 7322TIP3   OH221918   7.119   2.086   3.413 -0.0545 -0.4348  0.2910
 7322TIP3    H121919   7.151   2.171   3.385  0.0052 -0.9707 -1.3709
 7322TIP3    H221920   7.106   2.094   3.507 -0.2824  1.4771  0.1150
 7323TIP3   OH221921   7.521   6.714   2.297 -0.8493 -0.3128 -0.0098
 7323TIP3    H121922   7.514   6.620   2.279 -0.5759 -0.1104 -1.2393
 7323TIP3    H221923   7.492   6.756   2.217  0.3145  0.6371  0.0424
 7324TIP3   OH221924   7.293   5.803   3.929  0.5050 -0.4381  0.4708
 7324TIP3    H121925   7.367   5.827   3.985 -0.2734  0.7446  1.0102
 7324TIP3    H221926   7.333   5.771   3.848  1.6654 -2.4487  1.7774
 7325TIP3   OH221927   1.434   2.109   4.098  0.3276  0.0280  0.7741
 7325TIP3    H121928   1.352   2.075   4.064  0.7530  2.1296 -2.5499
 7325TIP3    H221929   1.502   2.057   4.056  0.7580 -0.1087  1.6296
 7326TIP3   OH221930   7.284   4.241   1.824  0.3646  0.0957 -0.3437
 7326TIP3    H121931   7.213   4.296   1.791 -0.7797 -1.0008  0.2583
 7326TIP3    H221932   7.268   4.155   1.785  0.0958 -0.7201  1.5131
 7327TIP3   OH221933   7.420   6.100   4.361  0.4514 -0.2007  0.5767
 7327TIP3    H121934   7.477   6.127   4.289 -1.2714 -0.2500 -0.8285
 7327TIP3    H221935   7.380   6.182   4.391  0.3086 -0.3291  0.7374
 7328TIP3   OH221936   0.007   4.794   5.198  0.1129 -0.2925  0.1042
 7328TIP3    H121937  -0.049   4.804   5.122 -0.4303 -1.2269  0.3775
 7328TIP3    H221938   0.087   4.841   5.175 -0.2087 -0.2168 -0.8786
 7329TIP3   OH221939   7.612   3.268   2.438 -0.2971 -0.4882 -0.0816
 7329TIP3    H121940   7.633   3.265   2.345 -0.0423 -0.2652 -0.0330
 7329TIP3    H221941   7.618   3.178   2.467 -0.0225 -0.5098 -0.2042
 7330TIP3   OH221942   6.459   6.076   5.557  0.2073  0.0035 -0.0760
 7330TIP3    H121943   6.550   6.072   5.526  0.6949 -2.0863  1.4563
 7330TIP3    H221944   6.466   6.061   5.651 -1.5365  2.4042  0.4735
 7331TIP3   OH221945   3.977   0.697   1.006 -0.1069 -0.0970  0.1764
 7331TIP3    H121946   3.962   0.791   0.992 -2.1342 -0.4741 -0.2721
 7331TIP3    H221947   3.891   0.657   0.998  0.2651 -1.6675  3.1887
 7332TIP3   OH221948   2.953   4.957   4.476 -0.2086  0.0014 -0.1521
 7332TIP3    H121949   3.023   5.022   4.479 -0.1203 -0.0554 -0.9638
 7332TIP3    H221950   2.981   4.888   4.536  0.2773  0.1285 -0.2347
 7333TIP3   OH221951   2.885   6.106   5.287 -0.2650  0.4820 -0.1474
 7333TIP3    H121952   2.815   6.078   5.228  0.0116  0.1538 -0.3202
 7333TIP3    H221953   2.872   6.201   5.296 -2.0989  0.1165  1.5916
 7334TIP3   OH221954   5.907   1.955   1.101  0.2147  0.0763  0.4497
 7334TIP3    H121955   5.874   1.865   1.107 -0.6828  0.4608  1.2927
 7334TIP3    H221956   5.829   2.009   1.092  0.7298  0.8199  0.4012
 7335TIP3   OH221957   1.189   4.516   5.402 -0.6139  0.0386  0.2704
 7335TIP3    H121958   1.158   4.431   5.434 -0.0952 -0.1797  0.1895
 7335TIP3    H221959   1.255   4.543   5.466 -0.8106  0.4079  0.3224
 7336TIP3   OH221960   3.782   5.898   5.003  0.2770 -0.6053  0.2123
 7336TIP3    H121961   3.862   5.948   4.985 -0.0011 -0.7794 -1.5050
 7336TIP3    H221962   3.789   5.877   5.096  3.5765 -2.9264 -0.4625
 7337TIP3   OH221963   2.504   6.339   4.482 -0.0734  0.2569  0.4306
 7337TIP3    H121964   2.502   6.261   4.427  0.7665 -0.4993  1.4431
 7337TIP3    H221965   2.517   6.305   4.571  0.2015  1.5400  0.8887
 7338TIP3   OH221966   0.609   4.734   5.936 -0.7662 -0.0005 -0.1093
 7338TIP3    H121967   0.673   4.748   6.005 -1.8128 -0.4010  0.9631
 7338TIP3    H221968   0.649   4.772   5.858  1.2367 -1.2185  0.2983
 7339TIP3   OH221969   1.246   0.869   5.675 -0.4730  0.0191 -0.1094
 7339TIP3    H121970   1.193   0.843   5.750  0.2657  1.0573  0.8031
 7339TIP3    H221971   1.183   0.894   5.608 -1.1565  1.7554  1.1419
 7340TIP3   OH221972   6.219   1.890   0.215 -0.0268  0.1966  0.3130
 7340TIP3    H121973   6.206   1.961   0.152 -1.7643 -0.0382  0.3873
 7340TIP3    H221974   6.173   1.918   0.294  0.5324 -0.3502  0.8363
 7341TIP3   OH221975   0.301   5.440   6.215 -0.0049  0.4367  0.1524
 7341TIP3    H121976   0.276   5.362   6.165  1.7117  0.6175 -1.0473
 7341TIP3    H221977   0.372   5.410   6.272  0.0456  0.9147  0.3399
 7342TIP3   OH221978   1.838   5.399   3.730  0.0764 -0.2158  0.7122
 7342TIP3    H121979   1.837   5.468   3.664 -3.2914  0.3132  1.1973
 7342TIP3    H221980   1.896   5.433   3.799  1.8467  0.1990 -0.9424
 7343TIP3   OH221981   0.785   6.588   3.148 -0.4724  0.3163  0.3562
 7343TIP3    H121982   0.715   6.525   3.131 -2.5794  3.0317 -1.6156
 7343TIP3    H221983   0.743   6.658   3.199  0.7339  1.9937 -0.8639
 7344TIP3   OH221984   2.874   6.365   4.522  0.3279  0.5952 -0.4584
 7344TIP3    H121985   2.823   6.285   4.512  0.8548  0.0196  1.1661
 7344TIP3    H221986   2.810   6.435   4.518 -0.7325 -0.1425  2.1503
 7345TIP3   OH221987   2.391   6.580   4.462 -0.5469 -0.1491 -0.3045
 7345TIP3    H121988   2.383   6.605   4.554  0.1432 -0.7817 -0.0712
 7345TIP3    H221989   2.437   6.496   4.463 -1.8229 -0.8742 -1.1510
 7346TIP3   OH221990   0.268   4.977   4.294  0.4671 -0.0926  0.2432
 7346TIP3    H121991   0.314   4.983   4.377 -1.9898  1.1089  1.5560
 7346TIP3    H221992   0.317   5.035   4.235  0.8274  0.9064  1.5061
 7347TIP3   OH221993   6.176   3.061   0.330 -0.0024  0.2904  0.6498
 7347TIP3    H121994   6.202   3.062   0.237 -1.1832 -0.4223  0.3036
 7347TIP3    H221995   6.135   3.146   0.343  0.3513  0.4765  0.5835
 7348TIP3   OH221996   7.125   5.321   5.134  0.1719  0.2622  0.0387
 7348TIP3    H121997   7.106   5.347   5.224  1.1654 -0.7265  0.5587
 7348TIP3    H221998   7.216   5.349   5.121  0.9211 -1.9709  0.2723
 7349TIP3   OH221999   1.995   5.633   6.203 -0.2378 -0.8295  0.0471
 7349TIP3    H122000   1.948   5.550   6.199 -1.2728 -0.3325  1.4605
 7349TIP3    H222001   2.020   5.643   6.294 -0.4432  0.5759 -0.0291
 7350TIP3   OH222002   6.856   6.420   5.426  0.3358  0.4108 -0.7692
 7350TIP3    H122003   6.796   6.477   5.474 -0.7358 -0.2159 -1.3603
 7350TIP3    H222004   6.834   6.332   5.456  1.2473  0.2116 -0.6828
 7351TIP3   OH222005   3.647   7.082   4.067  0.2058 -0.1243 -0.4029
 7351TIP3    H122006   3.612   7.124   4.146  1.9794 -0.8561  0.8125
 7351TIP3    H222007   3.570   7.065   4.013 -1.2502 -0.8969  1.8081
 7352TIP3   OH222008   3.158   5.256   5.062  0.1957  0.0355 -0.4842
 7352TIP3    H122009   3.068   5.271   5.093  0.5937  2.8365 -0.6035
 7352TIP3    H222010   3.210   5.251   5.142  0.0639 -0.7476 -0.4449
 7353TIP3   OH222011   1.465   6.939   5.067  0.3439  0.1777  0.8233
 7353TIP3    H122012   1.392   6.970   5.014 -0.0826 -0.0262  1.2912
 7353TIP3    H222013   1.424   6.891   5.139  1.0277 -2.3982 -0.4415
 7354TIP3   OH222014   1.835   6.777   3.753  0.7358  0.2408  0.6679
 7354TIP3    H122015   1.785   6.835   3.810 -0.0295  2.4740 -2.1744
 7354TIP3    H222016   1.924   6.811   3.755  0.5532  0.7666 -0.0218
 7355TIP3   OH222017   3.066   5.259   2.974 -0.5082 -0.7112  0.5080
 7355TIP3    H122018   3.159   5.240   2.991 -0.1603  1.7931  1.5954
 7355TIP3    H222019   3.030   5.176   2.944  1.9878 -1.8502  0.5318
 7356TIP3   OH222020   1.167   0.355   3.872 -0.1578 -0.5553 -0.2080
 7356TIP3    H122021   1.144   0.288   3.808  1.2311 -0.5886 -0.6841
 7356TIP3    H222022   1.186   0.433   3.820 -1.0029  0.0082  0.3009
 7357TIP3   OH222023   1.701   5.393   4.112  0.1163 -0.1136  0.1623
 7357TIP3    H122024   1.655   5.362   4.034  2.6879 -1.4826 -0.8739
 7357TIP3    H222025   1.701   5.318   4.171  2.1637 -0.5843 -0.4044
 7358TIP3   OH222026   6.757   2.000   0.184  0.2637  0.3998  0.0642
 7358TIP3    H122027   6.744   1.909   0.211 -1.2500  0.9187  1.1653
 7358TIP3    H222028   6.768   2.047   0.267 -1.4074  1.5748 -0.3605
 7359TIP3   OH222029   4.481   6.287   0.976 -0.1119  0.7233  0.1107
 7359TIP3    H122030   4.575   6.305   0.969  0.0170  0.2766  0.6609
 7359TIP3    H222031   4.442   6.373   0.991  0.2363  0.8756  0.1495
 7360TIP3   OH222032   6.262   6.986   3.338  0.2874 -0.5609  0.5636
 7360TIP3    H122033   6.195   7.022   3.396  0.1439 -0.6194  0.4316
 7360TIP3    H222034   6.341   6.982   3.393  0.1351 -0.6792  0.7741
 7361TIP3   OH222035   0.554   6.620   5.351 -0.0279 -0.4023 -0.0925
 7361TIP3    H122036   0.641   6.581   5.360  0.6530  0.5087 -2.4172
 7361TIP3    H222037   0.535   6.614   5.258 -2.1437  0.0910  0.2946
 7362TIP3   OH222038   1.535   6.051   4.507 -0.3261 -0.7542 -0.0654
 7362TIP3    H122039   1.526   6.060   4.412  0.6154 -0.4770 -0.1347
 7362TIP3    H222040   1.520   5.959   4.524 -0.6690 -0.7739 -0.4674
 7363TIP3   OH222041   6.179   4.605   4.932  1.0275 -0.3681 -0.0318
 7363TIP3    H122042   6.149   4.519   4.960  2.3013 -1.2420 -1.2340
 7363TIP3    H222043   6.184   4.598   4.836 -2.0951  2.1446 -0.4368
 7364TIP3   OH222044   1.172   4.192   5.973 -0.1467  0.4588 -0.0324
 7364TIP3    H122045   1.153   4.099   5.987  0.7748 -0.0080 -1.7806
 7364TIP3    H222046   1.237   4.214   6.040 -2.9996  0.7901  2.7298
 7365TIP3   OH222047   4.299   0.899   0.689  0.2420  0.4140  0.1646
 7365TIP3    H122048   4.330   0.935   0.772 -0.3659  1.1482  0.0777
 7365TIP3    H222049   4.371   0.844   0.658  1.2791  1.7423  0.1794
 7366TIP3   OH222050   4.906   1.171   1.883 -0.0204  0.1835  0.1100
 7366TIP3    H122051   4.996   1.193   1.903  0.1415 -0.8802  0.5669
 7366TIP3    H222052   4.889   1.212   1.798  0.9703  0.1654 -0.0933
 7367TIP3   OH222053   1.807   5.609   4.217 -0.2225 -0.3010 -0.6524
 7367TIP3    H122054   1.791   5.693   4.174  2.8186 -0.0407 -1.4003
 7367TIP3    H222055   1.766   5.544   4.160 -1.2190  0.5191 -0.8835
 7368TIP3   OH222056   6.374   1.716   5.921 -0.9052  0.3386 -0.4776
 7368TIP3    H122057   6.455   1.716   5.972 -0.3278  1.0411 -1.3908
 7368TIP3    H222058   6.307   1.692   5.984 -0.1856  1.1304  0.6049
 7369TIP3   OH222059   0.962   5.482   6.338  0.7456 -0.2011  0.0148
 7369TIP3    H122060   0.997   5.512   6.422 -1.2904  2.1201  0.0910
 7369TIP3    H222061   0.982   5.552   6.277  0.8602 -1.2006 -1.1230
 7370TIP3   OH222062   1.626   4.157   3.448  0.0975 -0.4600  0.1087
 7370TIP3    H122063   1.652   4.087   3.389 -0.0541 -0.3137 -0.1335
 7370TIP3    H222064   1.620   4.116   3.534 -0.6797 -0.8958 -0.1570
 7371TIP3   OH222065   7.141   5.375   5.614 -0.0983 -0.3020 -0.1228
 7371TIP3    H122066   7.089   5.424   5.550  0.4502 -0.9448 -1.0840
 7371TIP3    H222067   7.226   5.418   5.615 -0.2876  0.0661  0.6237
 7372TIP3   OH222068   3.220   5.700   2.571 -0.1301  0.5295  0.5417
 7372TIP3    H122069   3.241   5.749   2.651 -0.4477 -1.4617  1.8644
 7372TIP3    H222070   3.219   5.767   2.502 -0.7117  2.4241  2.3332
 7373TIP3   OH222071   1.947   6.728   3.276  0.4891 -0.2451 -0.2126
 7373TIP3    H122072   1.957   6.636   3.251  0.6302 -0.2550 -0.1177
 7373TIP3    H222073   2.011   6.775   3.222 -0.1665 -0.0949 -0.8845
 7374TIP3   OH222074   6.868   0.554   5.109 -0.1900 -0.7652 -0.1056
 7374TIP3    H122075   6.779   0.524   5.094 -0.6025  0.2734  0.2428
 7374TIP3    H222076   6.883   0.621   5.042  0.5903 -1.4527 -0.6378
 7375TIP3   OH222077   3.018   0.071   3.091  0.3301 -0.1802 -0.3122
 7375TIP3    H122078   3.079   0.141   3.114 -0.4291  0.8346 -1.3008
 7375TIP3    H222079   3.058   0.030   3.014  0.3931 -0.3119 -0.2071
 7376TIP3   OH222080   1.060   4.603   5.729  0.1704  0.0023 -0.7107
 7376TIP3    H122081   0.979   4.577   5.774 -0.4437  3.7559  0.5018
 7376TIP3    H222082   1.129   4.555   5.774 -1.0983 -1.1713  0.0244
 7377TIP3   OH222083   0.596   5.914   5.714 -0.5602 -0.1745  0.8858
 7377TIP3    H122084   0.577   5.946   5.802 -0.3962  0.3515  0.7254
 7377TIP3    H222085   0.531   5.957   5.659  0.9630  1.4923  0.3544
 7378TIP3   OH222086   7.731   4.168   4.498 -0.7676 -0.5208  0.6324
 7378TIP3    H122087   7.702   4.241   4.443  1.3152  0.3745  0.6431
 7378TIP3    H222088   7.653   4.115   4.513 -1.7407  0.2011 -1.7098
 7379TIP3   OH222089   7.414   5.379   6.029 -0.4841 -0.2619  0.0936
 7379TIP3    H122090   7.497   5.397   6.074 -1.9228  2.5955  1.7774
 7379TIP3    H222091   7.411   5.444   5.959 -1.2895 -0.3165  0.0707
 7380TIP3   OH222092   2.954   0.150   3.933 -0.1244  0.1441  0.2517
 7380TIP3    H122093   3.034   0.194   3.961 -0.1714  0.6749 -0.4568
 7380TIP3    H222094   2.947   0.074   3.991  1.5374 -0.5726 -0.4733
 7381TIP3   OH222095   3.249   6.262   1.959  0.5703  0.3872 -0.0574
 7381TIP3    H122096   3.173   6.230   1.910 -0.2903 -0.5493  1.8217
 7381TIP3    H222097   3.322   6.254   1.897 -0.4167 -1.0567 -1.0911
 7382TIP3   OH222098   4.115   3.261   0.540  0.1059  0.0473  0.2384
 7382TIP3    H122099   4.021   3.261   0.521  0.0634 -2.1589  0.2902
 7382TIP3    H222100   4.156   3.281   0.456 -0.3615 -1.1073 -0.2797
 7383TIP3   OH222101   2.127   5.497   3.133  0.0337 -0.5403  0.2574
 7383TIP3    H122102   2.133   5.474   3.041 -0.8176  0.2401 -0.0094
 7383TIP3    H222103   2.151   5.418   3.180  0.0784 -1.0626 -0.6382
 7384TIP3   OH222104   3.045   7.321   0.429 -0.2843 -0.1235  0.1624
 7384TIP3    H122105   2.955   7.306   0.402 -0.9137 -0.4767  2.3070
 7384TIP3    H222106   3.064   7.250   0.491  0.4791  1.5458  1.9158
 7385TIP3   OH222107   2.416   0.229   5.339  0.1816  0.0979  0.0953
 7385TIP3    H122108   2.332   0.272   5.325  0.1535 -0.1711 -0.5862
 7385TIP3    H222109   2.466   0.290   5.392 -0.5664  0.1124  0.7909
 7386TIP3   OH222110   0.620   3.516   4.636  0.1014 -0.1858  0.3526
 7386TIP3    H122111   0.682   3.446   4.656 -2.3536 -2.0221  1.8205
 7386TIP3    H222112   0.616   3.569   4.715 -1.0775 -0.7849  0.7112
 7387TIP3   OH222113   1.805   3.353   4.899  0.2024 -0.0799  0.1448
 7387TIP3    H122114   1.761   3.311   4.972  0.6034  0.1984  0.5517
 7387TIP3    H222115   1.788   3.296   4.824 -0.5446 -0.1568  0.3721
 7388TIP3   OH222116   5.099   3.296   0.763  0.2390 -0.0938  0.3923
 7388TIP3    H122117   5.178   3.285   0.815  0.7943  0.2544 -0.3696
 7388TIP3    H222118   5.130   3.331   0.679 -0.7772  0.6445  0.3086
 7389TIP3   OH222119   4.468   1.479   0.507  0.4371  0.0118  0.1543
 7389TIP3    H122120   4.419   1.406   0.546  0.9982 -1.5085 -1.8598
 7389TIP3    H222121   4.529   1.506   0.576  0.7674 -1.9695  0.6847
 7390TIP3   OH222122   0.390   7.410   4.224 -0.4415  0.4743  0.1793
 7390TIP3    H122123   0.449   7.415   4.299  0.6928  2.1851 -0.7836
 7390TIP3    H222124   0.432   7.347   4.165 -0.9892 -0.3649  0.6801
 7391TIP3   OH222125   0.093   5.814   1.845  0.4154 -0.6369  0.4096
 7391TIP3    H122126   0.171   5.869   1.841  1.1912 -1.7498 -0.1860
 7391TIP3    H222127   0.061   5.824   1.935  0.4524  0.8918  0.2584
 7392TIP3   OH222128   2.468   6.442   3.246  0.5076  0.4735  0.2528
 7392TIP3    H122129   2.505   6.412   3.329  0.8827  0.9818  0.2718
 7392TIP3    H222130   2.377   6.462   3.266 -0.5191 -3.1822 -0.3576
 7393TIP3   OH222131   1.895   4.292   5.355  0.0445  0.4488 -0.7074
 7393TIP3    H122132   1.845   4.371   5.334 -0.2811  0.3848 -0.1785
 7393TIP3    H222133   1.932   4.310   5.442 -1.3152 -0.6195  0.1021
 7394TIP3   OH222134   7.334   2.415   0.419 -0.2569  0.0915 -0.3236
 7394TIP3    H122135   7.418   2.392   0.461  0.0306  1.4079 -0.1611
 7394TIP3    H222136   7.274   2.429   0.493  0.1209  1.9272 -0.3495
 7395TIP3   OH222137   2.349   1.196   6.299  0.1455 -0.1743 -0.4633
 7395TIP3    H122138   2.292   1.221   6.372  0.7634 -0.4479  0.1246
 7395TIP3    H222139   2.373   1.279   6.258  0.6131  0.0546  0.2709
 7396TIP3   OH222140   1.453   4.674   5.721 -0.3373  0.2379 -0.7694
 7396TIP3    H122141   1.491   4.759   5.698 -1.7115  0.5547 -1.9335
 7396TIP3    H222142   1.509   4.610   5.678  0.3742  0.5753 -0.3543
 7397TIP3   OH222143   0.379   4.474   5.456  0.3337 -0.3383  0.2811
 7397TIP3    H122144   0.439   4.406   5.488  0.8798 -0.1240 -0.2823
 7397TIP3    H222145   0.344   4.438   5.374  2.3497  0.9956 -1.2229
 7398TIP3   OH222146   1.464   4.611   3.948  0.3960 -0.1394 -0.1910
 7398TIP3    H122147   1.402   4.682   3.959  1.7215  0.7375  1.9855
 7398TIP3    H222148   1.517   4.637   3.873 -0.7924 -0.0927 -1.0156
 7399TIP3   OH222149   6.692   4.701   5.357  0.3067  0.0177 -0.1041
 7399TIP3    H122150   6.751   4.771   5.383  0.2143 -0.0897  0.3910
 7399TIP3    H222151   6.699   4.698   5.261  0.8950  0.1813 -0.0655
 7400TIP3   OH222152   1.371   1.172   5.350 -0.1766  0.4049  0.1154
 7400TIP3    H122153   1.305   1.104   5.364  0.8368 -0.4229  1.0198
 7400TIP3    H222154   1.380   1.214   5.435  1.2577 -0.2464  0.3072
 7401TIP3   OH222155   1.531   3.964   4.366  0.2304  0.1937 -0.3178
 7401TIP3    H122156   1.512   4.030   4.432  1.3686  2.3279 -2.0729
 7401TIP3    H222157   1.622   3.938   4.382 -0.1895 -0.9252  0.3224
 7402TIP3   OH222158   6.335   0.766   0.062  0.1371  0.0246  0.6146
 7402TIP3    H122159   6.283   0.789   0.139  1.7522 -0.6848  1.9436
 7402TIP3    H222160   6.274   0.720   0.004 -0.3619 -2.2130  2.8498
 7403TIP3   OH222161   7.684   4.296   6.030 -0.5648  0.5117 -0.2799
 7403TIP3    H122162   7.753   4.233   6.050 -1.0196  0.1027  0.0258
 7403TIP3    H222163   7.723   4.356   5.966  0.3443  0.7941  0.5284
 7404TIP3   OH222164   4.290   2.635   1.122  0.2040  0.0315  0.5034
 7404TIP3    H122165   4.325   2.673   1.042 -0.9825  0.6664  0.2783
 7404TIP3    H222166   4.222   2.574   1.093  0.5082 -0.5441  0.9808
 7405TIP3   OH222167   2.884   5.277   5.150 -0.1432  0.0360 -0.0852
 7405TIP3    H122168   2.907   5.320   5.232  1.4346  0.4962 -0.7645
 7405TIP3    H222169   2.814   5.331   5.113 -1.1908 -0.4373  1.1734
 7406TIP3   OH222170   2.170   6.367   5.106  0.3695  0.1544  0.4265
 7406TIP3    H122171   2.221   6.442   5.138  1.1188 -0.9582  1.9220
 7406TIP3    H222172   2.187   6.298   5.170  0.6461 -1.6713 -1.5486
 7407TIP3   OH222173   2.101   5.254   4.655 -0.3467 -0.3447  0.0484
 7407TIP3    H122174   2.064   5.269   4.742 -0.1808 -2.8470  0.5884
 7407TIP3    H222175   2.122   5.342   4.623 -0.4093  0.6303  2.5324
 7408TIP3   OH222176   6.608   2.343   0.542  0.4323 -0.1911 -0.3249
 7408TIP3    H122177   6.685   2.336   0.486  0.9891 -0.6394  0.4950
 7408TIP3    H222178   6.534   2.346   0.481  0.9664 -1.6080 -1.0487
 7409TIP3   OH222179   6.339   2.552   2.902 -0.3041 -0.5455 -0.1647
 7409TIP3    H122180   6.428   2.573   2.931 -0.2473 -0.4228 -0.4295
 7409TIP3    H222181   6.351   2.493   2.828 -0.3639  2.0987 -2.3497
 7410TIP3   OH222182   1.825   0.782   5.341 -0.1627  0.4447  0.0359
 7410TIP3    H122183   1.772   0.703   5.355  1.6952 -0.9378 -0.5101
 7410TIP3    H222184   1.875   0.793   5.422  0.5262  0.3148 -0.3660
 7411TIP3   OH222185   6.581   6.870   4.633 -0.2009  0.1023  0.0264
 7411TIP3    H122186   6.593   6.781   4.666  0.2848  0.2796  0.3365
 7411TIP3    H222187   6.515   6.908   4.690  0.7364  0.4519  0.8940
 7412TIP3   OH222188   2.432   0.720   3.066  0.2319 -0.1354 -0.0263
 7412TIP3    H122189   2.446   0.809   3.100 -0.1501  0.1602 -0.6280
 7412TIP3    H222190   2.497   0.711   2.997  1.5602 -1.0403  1.3250
 7413TIP3   OH222191   2.189   5.975   5.636  0.2190  0.2884 -0.9661
 7413TIP3    H122192   2.172   5.963   5.543  1.8538  0.1905 -1.2712
 7413TIP3    H222193   2.160   5.893   5.677  1.0510 -0.3312 -1.6050
 7414TIP3   OH222194   5.812   1.310   0.271  0.1164  0.4714  0.2960
 7414TIP3    H122195   5.900   1.294   0.236  0.0544  0.5167  0.1184
 7414TIP3    H222196   5.796   1.402   0.253  0.5914  0.8195  1.5779
 7415TIP3   OH222197   1.575   6.213   6.255 -0.0150  0.2162  0.2328
 7415TIP3    H122198   1.598   6.203   6.163  1.0175 -2.4070  0.7449
 7415TIP3    H222199   1.480   6.199   6.258 -0.3721  2.1808 -0.6354
 7416TIP3   OH222200   0.392   4.879   4.883  0.2883 -0.5575  0.2191
 7416TIP3    H122201   0.397   4.833   4.799  1.0743 -2.3534  1.2330
 7416TIP3    H222202   0.433   4.964   4.866  2.7084 -1.8530 -0.5782
 7417TIP3   OH222203   7.139   1.735   0.124 -0.7658 -0.5174 -0.5067
 7417TIP3    H122204   7.119   1.641   0.127 -1.5635 -0.3533 -0.6513
 7417TIP3    H222205   7.130   1.764   0.215  0.6060 -0.8076 -0.2691
 7418TIP3   OH222206   6.212   3.680   4.375  0.2638 -0.2658  0.1352
 7418TIP3    H122207   6.237   3.741   4.444  1.7252 -1.7647  0.9825
 7418TIP3    H222208   6.138   3.722   4.330  1.3940  2.2119  0.5210
 7419TIP3   OH222209   0.316   6.861   4.512  0.1344  0.1580  0.0497
 7419TIP3    H122210   0.257   6.901   4.576  0.1348 -1.0579  0.8265
 7419TIP3    H222211   0.351   6.784   4.557 -0.6477 -1.2992 -1.7757
 7420TIP3   OH222212   6.374   1.155   0.828 -0.1787 -0.3152 -0.0731
 7420TIP3    H122213   6.393   1.062   0.816 -1.1041 -0.8893  2.4976
 7420TIP3    H222214   6.342   1.161   0.918 -1.0236  2.3503 -0.5070
 7421TIP3   OH222215   2.433   6.198   3.728  0.0758  0.6396  0.2542
 7421TIP3    H122216   2.396   6.274   3.683  0.2798  0.3478 -0.4115
 7421TIP3    H222217   2.405   6.123   3.675  0.1685  0.2820  0.7141
 7422TIP3   OH222218   2.120   4.576   5.298 -0.1446 -0.1917 -0.0016
 7422TIP3    H122219   2.157   4.488   5.294  1.6161  0.5661 -0.5874
 7422TIP3    H222220   2.041   4.571   5.243  0.2241 -1.2566 -0.4520
 7423TIP3   OH222221   3.599   4.616   1.878 -0.0560  0.2730 -0.0581
 7423TIP3    H122222   3.521   4.642   1.829 -0.5700 -1.4990 -0.2254
 7423TIP3    H222223   3.654   4.695   1.880 -1.3884  1.2422 -0.8154
 7424TIP3   OH222224   1.581   5.273   3.870 -0.2102  0.5062 -0.3916
 7424TIP3    H122225   1.569   5.216   3.945  1.1898 -2.0267 -2.0359
 7424TIP3    H222226   1.502   5.328   3.869 -0.1960  0.7033  2.9493
 7425TIP3   OH222227   7.552   0.953   0.773  0.2415  0.2068 -0.1375
 7425TIP3    H122228   7.602   0.991   0.846  0.8782 -0.9098  0.0298
 7425TIP3    H222229   7.469   0.927   0.812  0.2914  0.2984  0.0319
 7426TIP3   OH222230   1.826   6.665   2.605  0.3248 -0.4550 -0.2775
 7426TIP3    H122231   1.745   6.675   2.656  0.9168  1.1479  0.3815
 7426TIP3    H222232   1.863   6.582   2.636 -0.2502 -0.3975  0.5990
 7427TIP3   OH222233   7.583   5.240   4.848 -0.1331  0.0068  0.3915
 7427TIP3    H122234   7.579   5.326   4.891 -0.4031  0.4342 -0.4686
 7427TIP3    H222235   7.649   5.251   4.779 -0.6811 -0.2682 -0.1804
 7428TIP3   OH222236   1.564   3.540   4.618 -0.2378 -0.1480 -0.1273
 7428TIP3    H122237   1.657   3.561   4.614  0.1940 -1.4162  2.5163
 7428TIP3    H222238   1.556   3.455   4.576 -0.2470  0.0573 -0.5442
 7429TIP3   OH222239   0.463   5.932   4.144  0.4134 -0.0730 -0.3241
 7429TIP3    H122240   0.437   6.012   4.098  0.6326 -0.6994 -1.5496
 7429TIP3    H222241   0.454   5.863   4.079 -0.0753 -1.0960  0.8288
 7430TIP3   OH222242   5.983   3.348   4.743  0.1072  0.3327  0.2895
 7430TIP3    H122243   5.896   3.346   4.782 -0.1288 -0.0205 -0.2489
 7430TIP3    H222244   6.039   3.302   4.806 -0.6151 -1.8260 -0.6121
 7431TIP3   OH222245   0.966   5.635   4.251 -0.4287 -0.7087  0.0911
 7431TIP3    H122246   1.053   5.637   4.290 -0.1584  1.7815 -0.5395
 7431TIP3    H222247   0.906   5.644   4.325 -0.0185  1.1510  0.2027
 7432TIP3   OH222248   2.085   4.471   4.394 -0.0615 -0.4028 -0.2844
 7432TIP3    H122249   2.155   4.405   4.392  0.6374  0.3603 -3.0588
 7432TIP3    H222250   2.100   4.518   4.476  1.5744 -1.4348  0.0508
 7433TIP3   OH222251   0.023   6.486   4.226 -0.2953  1.1191  0.3854
 7433TIP3    H122252  -0.071   6.488   4.244 -0.4591 -1.5550 -0.0409
 7433TIP3    H222253   0.063   6.467   4.311 -0.3737 -1.0334 -0.0460
 7434TIP3   OH222254   1.063   4.493   4.067 -0.6636  0.0422 -0.2661
 7434TIP3    H122255   1.015   4.496   3.984  0.7864  1.1986 -1.0900
 7434TIP3    H222256   1.089   4.584   4.083  0.4930 -0.4278  0.6105
 7435TIP3   OH222257   7.434   0.817   0.388 -0.2596  0.1019 -0.1076
 7435TIP3    H122258   7.380   0.892   0.415 -0.6925 -0.4798  0.6559
 7435TIP3    H222259   7.400   0.792   0.302 -1.0237 -0.0835  0.2470
 7436TIP3   OH222260   6.144   2.731   1.555  0.7868 -0.1279  0.4322
 7436TIP3    H122261   6.119   2.642   1.581  0.2604 -0.2318 -0.4330
 7436TIP3    H222262   6.238   2.725   1.539  0.6245 -0.6965 -0.3208
 7437TIP3   OH222263   1.745   6.894   3.985  0.4566 -0.0805 -0.1101
 7437TIP3    H122264   1.756   6.836   4.061 -0.9414  0.9392  0.8968
 7437TIP3    H222265   1.808   6.964   3.999  0.1684  0.1313  0.1607
 7438TIP3   OH222266   3.782   5.405   4.091  0.3496  0.0920 -0.0381
 7438TIP3    H122267   3.756   5.324   4.134  1.8130 -0.3158  0.1035
 7438TIP3    H222268   3.874   5.416   4.114 -0.2749  2.6796  1.3503
 7439TIP3   OH222269   2.639   0.849   4.922 -0.3894 -0.3395 -0.6400
 7439TIP3    H122270   2.724   0.824   4.885 -0.3651 -0.3069 -0.6069
 7439TIP3    H222271   2.643   0.945   4.925  0.8772 -0.4260  2.3933
 7440TIP3   OH222272   7.250   0.042   2.778  0.0151 -0.2724 -0.7500
 7440TIP3    H122273   7.320  -0.004   2.732  0.3791 -1.5286  1.0073
 7440TIP3    H222274   7.293   0.077   2.856 -1.0950 -0.1479 -0.1982
 7441TIP3   OH222275   3.034   2.430   0.210  0.5278  0.2278  0.0677
 7441TIP3    H122276   2.940   2.421   0.198  0.5856 -1.4228  0.7066
 7441TIP3    H222277   3.044   2.505   0.269 -0.4426 -0.2782  0.8756
 7442TIP3   OH222278   2.017   5.739   3.120 -0.4174  0.8343 -0.3874
 7442TIP3    H122279   2.052   5.650   3.125 -0.0518  0.9228 -1.3471
 7442TIP3    H222280   2.021   5.761   3.027 -1.5495  1.4386 -0.2919
 7443TIP3   OH222281   1.970   6.524   3.686  0.0100  0.2086  0.1252
 7443TIP3    H122282   1.923   6.606   3.673  0.4971  0.4645 -0.0218
 7443TIP3    H222283   2.049   6.548   3.734  0.1201 -0.1826  0.1446
 7444TIP3   OH222284   4.033   7.050   2.820 -0.6109 -0.2171 -0.2015
 7444TIP3    H122285   4.040   7.135   2.777  1.0265  1.2735  2.8465
 7444TIP3    H222286   3.940   7.041   2.840 -0.6191  1.4852  0.6169
 7445TIP3   OH222287   5.025   6.906   3.733  0.1375  0.5617  0.1991
 7445TIP3    H122288   5.019   6.812   3.744  0.1470  0.6954  1.4264
 7445TIP3    H222289   5.117   6.922   3.710 -0.4212  0.0478 -2.6802
 7446TIP3   OH222290   3.272   4.401   5.713 -0.4480  0.4408 -0.0877
 7446TIP3    H122291   3.324   4.320   5.706  0.1056  0.8017 -0.1761
 7446TIP3    H222292   3.186   4.371   5.742 -0.0765 -0.1343  0.4545
 7447TIP3   OH222293   2.221   6.050   4.777  0.4104  0.0990 -0.2652
 7447TIP3    H122294   2.164   6.061   4.701  0.6173 -1.2105 -0.6311
 7447TIP3    H222295   2.195   5.966   4.814  2.5519 -0.8602 -0.8502
 7448TIP3   OH222296   2.051   5.527   4.612 -0.2225  0.1849 -0.0757
 7448TIP3    H122297   2.107   5.593   4.652  1.5706 -0.4406 -1.4399
 7448TIP3    H222298   2.072   5.532   4.518 -0.6290 -1.7630 -0.2947
 7449TIP3   OH222299   1.865   5.527   3.247 -0.1076  0.4333  0.1638
 7449TIP3    H122300   1.933   5.552   3.185  0.3506 -0.8549  0.1439
 7449TIP3    H222301   1.788   5.510   3.193  0.1206 -0.0866 -0.0016
 7450TIP3   OH222302   2.525   6.644   3.470 -0.6752  0.0460 -0.1482
 7450TIP3    H122303   2.558   6.567   3.516  0.8134  0.0866 -1.1085
 7450TIP3    H222304   2.510   6.709   3.539  1.0181 -0.0731  0.3567
 7451TIP3   OH222305   3.281   5.673   4.169 -0.0486  0.1568  0.1001
 7451TIP3    H122306   3.228   5.719   4.104  1.7389  1.4316 -0.4940
 7451TIP3    H222307   3.359   5.645   4.121 -0.3109 -1.9807  0.8822
 7452TIP3   OH222308   5.280   5.539   4.414  0.3407  0.5688  0.1395
 7452TIP3    H122309   5.193   5.566   4.442  0.3679  0.8424 -0.0386
 7452TIP3    H222310   5.281   5.444   4.426 -0.0253  0.5493  0.0238
 7453TIP3   OH222311   3.357   6.676   4.947 -0.0893 -0.5471 -0.4712
 7453TIP3    H122312   3.323   6.760   4.979  1.6323  0.8949 -2.3082
 7453TIP3    H222313   3.295   6.649   4.880  1.3781  1.2537 -2.6400
 7454TIP3   OH222314   1.778   5.945   3.214  0.0748  0.7602  0.1589
 7454TIP3    H122315   1.869   5.916   3.204 -0.0280  0.5975 -0.3278
 7454TIP3    H222316   1.757   5.926   3.305  0.6382  1.1134  0.3624
 7455TIP3   OH222317   2.651   5.495   5.158 -0.4095  0.0301 -0.1818
 7455TIP3    H122318   2.592   5.518   5.230 -0.6354  1.6814 -0.8722
 7455TIP3    H222319   2.596   5.447   5.096 -0.0954 -1.8408  0.9529
 7456TIP3   OH222320   3.781   5.799   5.294 -0.2152  0.2063  0.3061
 7456TIP3    H122321   3.845   5.857   5.336 -0.8608  1.0621  0.1114
 7456TIP3    H222322   3.714   5.784   5.360 -0.9918  1.1754 -0.2535
 7457TIP3   OH222323   0.689   5.814   3.878 -0.0201 -0.4383 -0.7293
 7457TIP3    H122324   0.769   5.830   3.928 -0.1505 -0.9343 -0.3585
 7457TIP3    H222325   0.647   5.741   3.923 -1.7246  1.1396  0.2923
 7458TIP3   OH222326   3.487   5.679   3.355  0.3215  0.0224  0.0175
 7458TIP3    H122327   3.579   5.675   3.381  0.0705 -0.7120  0.8361
 7458TIP3    H222328   3.488   5.662   3.261  0.9611 -0.7758  0.1579
 7459TIP3   OH222329   4.850   0.148   2.653 -0.2275 -0.3966 -0.0303
 7459TIP3    H122330   4.899   0.092   2.593 -0.8792 -0.9119 -0.0762
 7459TIP3    H222331   4.758   0.130   2.634 -0.4587  1.4910 -0.7973
 7460TIP3   OH222332   5.897   0.015   4.300 -0.4413  0.0809  0.2383
 7460TIP3    H122333   5.904   0.110   4.291  1.9560 -0.1409 -0.7390
 7460TIP3    H222334   5.940  -0.004   4.384  1.8043 -0.3774 -0.9676
 7461TIP3   OH222335   1.614   6.021   3.451 -0.0179  0.4690  0.0543
 7461TIP3    H122336   1.554   5.962   3.406 -0.9858  0.1744  1.6925
 7461TIP3    H222337   1.683   5.964   3.485  0.8525  0.7238 -1.2565
 7462TIP3   OH222338   7.878   5.020   0.470 -0.3750 -0.0056  0.0617
 7462TIP3    H122339   7.906   4.930   0.487  0.0913  0.0135 -0.5944
 7462TIP3    H222340   7.806   5.011   0.407  1.4290  0.2152 -2.0912
 7463TIP3   OH222341   2.418   0.212   3.042 -0.1356  0.4788  0.3320
 7463TIP3    H122342   2.402   0.241   3.132 -0.8586  0.2549  0.2735
 7463TIP3    H222343   2.421   0.117   3.047 -3.5764  0.2744 -0.4191
 7464TIP3   OH222344   1.968   7.071   3.886 -0.1669 -0.0897 -0.1540
 7464TIP3    H122345   1.915   7.147   3.865  0.4862  0.4195  0.0222
 7464TIP3    H222346   1.988   7.032   3.801 -1.3161 -0.6260 -0.1815
 7465TIP3   OH222347   4.591   0.851   4.423  0.6395 -0.1010  0.4674
 7465TIP3    H122348   4.504   0.863   4.385  1.4303  0.6692 -1.1625
 7465TIP3    H222349   4.651   0.883   4.355  2.2190 -1.3071  1.2685
 7466TIP3   OH222350   1.402   6.274   2.997 -0.2143  0.4045  0.0643
 7466TIP3    H122351   1.446   6.279   3.082  0.0676 -1.5202  0.0630
 7466TIP3    H222352   1.461   6.320   2.937  0.8970 -0.4973  0.4303
 7467TIP3   OH222353   2.305   6.818   5.549 -0.0727 -0.3871 -0.4490
 7467TIP3    H122354   2.358   6.812   5.629  0.3975 -2.8851 -0.9097
 7467TIP3    H222355   2.358   6.871   5.489 -0.7997  2.2506  1.1331
 7468TIP3   OH222356   2.749   5.135   3.990  0.1706 -0.5590  0.2819
 7468TIP3    H122357   2.800   5.093   4.060  0.8413 -1.8380 -0.9517
 7468TIP3    H222358   2.787   5.222   3.982  1.0393 -0.9122  0.5346
 7469TIP3   OH222359   3.857   6.923   5.076 -0.1362 -0.1566  0.0568
 7469TIP3    H122360   3.885   6.906   5.166 -2.5104 -1.6845  0.5421
 7469TIP3    H222361   3.762   6.916   5.078 -0.3930  1.8194 -2.1813
 7470TIP3   OH222362   2.109   6.043   2.829  0.2855  0.5406 -0.2513
 7470TIP3    H122363   2.062   5.959   2.830  1.1048  0.0764 -0.3316
 7470TIP3    H222364   2.201   6.019   2.841  0.3124  1.5948  1.7915
 7471TIP3   OH222365   2.179   6.476   5.669  0.2631 -0.1124  0.2292
 7471TIP3    H122366   2.141   6.560   5.646 -0.7454 -0.6331 -0.0471
 7471TIP3    H222367   2.249   6.463   5.605 -0.3712 -0.0323 -0.4905
 7472TIP3   OH222368   3.020   3.731   4.759  0.3331 -0.1779  0.7659
 7472TIP3    H122369   3.029   3.826   4.766 -0.7661  0.0729 -0.7692
 7472TIP3    H222370   3.107   3.697   4.779  1.4213  1.3115 -1.1799
 7473TIP3   OH222371   7.592   4.539   4.982 -0.4553 -0.2728 -0.1730
 7473TIP3    H122372   7.603   4.501   5.069  0.1683 -1.3954 -0.7320
 7473TIP3    H222373   7.519   4.491   4.943  0.3380 -0.9140 -0.8852
 7474TIP3   OH222374   1.752   5.460   2.226 -0.1406 -0.2507  0.4784
 7474TIP3    H122375   1.825   5.403   2.251  0.7665  0.7777  0.2172
 7474TIP3    H222376   1.786   5.548   2.239 -0.7796  0.2655 -1.2379
 7475TIP3   OH222377   3.447   6.449   2.568  0.1489 -0.0929 -0.9731
 7475TIP3    H122378   3.468   6.487   2.483 -1.0777  0.5614 -0.9983
 7475TIP3    H222379   3.418   6.524   2.621  0.6982 -0.5244 -0.0443
 7476TIP3   OH222380   2.105   6.132   3.775 -0.3172  0.3969  0.3374
 7476TIP3    H122381   2.165   6.147   3.702  1.8553  2.2475  2.4388
 7476TIP3    H222382   2.022   6.171   3.747  1.0566  2.9068 -0.3753
 7477TIP3   OH222383   1.650   4.567   5.497 -0.7115  0.9202  0.2057
 7477TIP3    H122384   1.673   4.653   5.462  0.0224  0.7870  0.3464
 7477TIP3    H222385   1.609   4.522   5.423 -1.9014  1.7014  0.3825
 7478TIP3   OH222386   4.613   1.611   2.770  0.4451  0.0887 -0.6855
 7478TIP3    H122387   4.538   1.628   2.713  0.9043  0.5958 -1.1455
 7478TIP3    H222388   4.655   1.533   2.733  1.1930  0.8732 -1.5103
 7479TIP3   OH222389   5.153   1.703   5.003  0.4893 -0.0249  0.1644
 7479TIP3    H122390   5.235   1.751   5.018  1.0769 -0.4822 -1.5206
 7479TIP3    H222391   5.167   1.657   4.920 -1.6213  0.1675 -0.3132
 7480TIP3   OH222392   2.993   6.766   4.207 -0.6386  0.3784  0.0926
 7480TIP3    H122393   3.056   6.837   4.208  0.0502 -0.2161  2.1073
 7480TIP3    H222394   2.908   6.809   4.209 -0.2257  1.1555  1.4346
 7481TIP3   OH222395   1.581   7.268   3.145  0.1771 -0.2413 -0.1776
 7481TIP3    H122396   1.590   7.205   3.073  0.9420 -0.1342 -0.1739
 7481TIP3    H222397   1.641   7.236   3.212  0.9775  0.8027 -0.3880
 7482TIP3   OH222398   1.484   4.351   2.376 -0.5265  0.8874  0.4474
 7482TIP3    H122399   1.495   4.441   2.343 -1.8662  1.3508  1.2372
 7482TIP3    H222400   1.562   4.305   2.344 -0.4786  1.9881 -1.0994
 7483TIP3   OH222401   0.208   1.470   0.104 -0.8884  0.2493  0.4630
 7483TIP3    H122402   0.257   1.537   0.057 -0.8825  1.6525  2.4127
 7483TIP3    H222403   0.267   1.395   0.108  0.0632  0.9949  0.4717
 7484TIP3   OH222404   1.686   5.284   5.121 -0.2440 -0.0564 -0.4666
 7484TIP3    H122405   1.630   5.345   5.072  0.4367 -0.7298 -2.1052
 7484TIP3    H222406   1.758   5.338   5.153 -0.4002  0.2782 -0.6758
 7485TIP3   OH222407   4.977   6.186   5.946  0.5477  0.0810 -0.6416
 7485TIP3    H122408   4.965   6.147   6.032 -1.4249 -0.1538 -0.9850
 7485TIP3    H222409   5.065   6.223   5.948  0.5219  0.0922  1.4695
 7486TIP3   OH222410   3.201   6.670   3.318  0.3875 -0.2343  0.3163
 7486TIP3    H122411   3.238   6.754   3.290 -1.4884  0.1767 -1.0292
 7486TIP3    H222412   3.248   6.649   3.399  0.8503  2.1156  0.7000
 7487TIP3   OH222413   6.693   1.217   0.018  0.1191  0.5924  0.1724
 7487TIP3    H122414   6.599   1.231   0.009  0.7157  3.6930 -2.3947
 7487TIP3    H222415   6.704   1.123   0.009 -2.5145  0.4400 -2.3816
 7488TIP3   OH222416   1.811   6.382   4.336 -0.8006 -0.3368  0.6288
 7488TIP3    H122417   1.750   6.402   4.408  0.1012 -0.3880  1.4173
 7488TIP3    H222418   1.890   6.352   4.380 -0.2738 -0.4654 -0.4030
 7489TIP3   OH222419   4.656   6.770   4.768 -0.6846  0.9727 -0.1419
 7489TIP3    H122420   4.710   6.801   4.695  0.7777  2.4480  1.5313
 7489TIP3    H222421   4.616   6.689   4.735  0.9452  0.9349 -2.1411
 7490TIP3   OH222422   2.121   3.782   2.359  0.3719 -0.3159  0.1073
 7490TIP3    H122423   2.176   3.713   2.322  1.2552  0.4428  0.0013
 7490TIP3    H222424   2.088   3.745   2.441  0.5488 -0.9978 -0.1279
 7491TIP3   OH222425   7.223   1.324   2.880 -0.2048 -0.1424  0.2885
 7491TIP3    H122426   7.198   1.392   2.818  1.2691  0.4273  0.2806
 7491TIP3    H222427   7.169   1.340   2.957 -1.6933 -0.5515 -0.6499
 7492TIP3   OH222428   2.048   6.343   4.459 -0.4265 -0.2677 -0.0968
 7492TIP3    H122429   2.098   6.333   4.378  0.0300 -1.1614  0.2860
 7492TIP3    H222430   2.110   6.381   4.521 -0.7207  0.2415 -0.1144
 7493TIP3   OH222431   0.109   5.869   5.427 -0.2596 -0.4646  0.4038
 7493TIP3    H122432   0.047   5.802   5.456  0.2221 -0.8768  0.4948
 7493TIP3    H222433   0.105   5.937   5.494 -0.0898 -0.8200  0.7750
 7494TIP3   OH222434   1.569   5.666   4.564  0.0898 -0.1243  0.4635
 7494TIP3    H122435   1.518   5.678   4.484  0.5964  0.7495  0.2629
 7494TIP3    H222436   1.504   5.670   4.634 -0.2756 -0.2641  0.1326
 7495TIP3   OH222437   1.395   5.062   2.883 -0.1308  0.4163  0.6428
 7495TIP3    H122438   1.350   5.046   2.800  1.5653  0.4941 -0.3137
 7495TIP3    H222439   1.464   5.124   2.862  3.3838 -3.1297  1.0683
 7496TIP3   OH222440   3.757   5.808   2.738  0.0125 -0.5534 -0.2407
 7496TIP3    H122441   3.714   5.880   2.784 -1.1880 -1.1345 -0.4574
 7496TIP3    H222442   3.692   5.774   2.677 -0.0064 -2.8739  0.9952
 7497TIP3   OH222443   4.929   4.751   2.846 -0.1254  0.1009  0.1186
 7497TIP3    H122444   4.973   4.833   2.869  1.4150 -0.7773  0.3615
 7497TIP3    H222445   4.845   4.779   2.810 -0.6855  1.6999  2.4831
 7498TIP3   OH222446   1.292   6.175   6.212  0.1100 -0.4171  0.9076
 7498TIP3    H122447   1.312   6.107   6.148 -1.9401  1.0192 -1.3868
 7498TIP3    H222448   1.197   6.170   6.223 -0.0652  1.9280  0.7676
 7499TIP3   OH222449   1.878   5.641   5.088  0.1056 -0.2700  0.4075
 7499TIP3    H122450   1.788   5.608   5.095 -0.0111 -0.0781 -0.1908
 7499TIP3    H222451   1.906   5.614   5.001  0.3417  0.3867  0.2799
 7500TIP3   OH222452   1.994   5.685   3.804  0.8993  0.3240 -0.0508
 7500TIP3    H122453   1.987   5.775   3.835 -0.9899  0.0369  0.4083
 7500TIP3    H222454   1.963   5.688   3.713  1.6116  0.2785 -0.2966
 7501TIP3   OH222455   3.800   4.909   5.467  0.2692 -0.2128 -0.6053
 7501TIP3    H122456   3.839   4.978   5.521  2.2940 -2.9761  1.6088
 7501TIP3    H222457   3.710   4.902   5.498  0.7725 -0.2347  0.8654
 7502TIP3   OH222458   5.747   0.267   4.085  0.2204  0.2007  0.0979
 7502TIP3    H122459   5.816   0.266   4.151  2.2648  0.9325 -1.9531
 7502TIP3    H222460   5.674   0.312   4.127  2.0307  2.0619  1.3282
 7503TIP3   OH222461   6.653   5.719   5.056  0.2935 -0.0416  0.0329
 7503TIP3    H122462   6.742   5.729   5.089  0.2507  1.5964 -0.2860
 7503TIP3    H222463   6.604   5.686   5.131  0.8936  0.4043  0.6331
 7504TIP3   OH222464   3.464   5.252   3.290 -0.6215  0.2339  0.3197
 7504TIP3    H122465   3.406   5.324   3.265 -0.6423  0.4915  1.0868
 7504TIP3    H222466   3.410   5.196   3.346 -0.4622 -0.1152  0.1206
 7505TIP3   OH222467   7.267   4.875   6.278  0.8050 -0.0641  0.0488
 7505TIP3    H122468   7.288   4.938   6.209 -0.5679  0.0942 -0.2320
 7505TIP3    H222469   7.189   4.911   6.320  0.9596 -0.7581  0.9435
 7506TIP3   OH222470   7.715   5.798   3.873 -0.1032  0.2488  0.2065
 7506TIP3    H122471   7.673   5.760   3.796  0.4300  0.8747 -0.4038
 7506TIP3    H222472   7.806   5.812   3.846 -0.2575  1.7986  0.4823
 7507TIP3   OH222473   4.300   6.536   4.376 -0.2151 -0.3205 -0.0408
 7507TIP3    H122474   4.271   6.579   4.456 -0.6310 -0.1808 -0.2612
 7507TIP3    H222475   4.261   6.448   4.380 -0.3625 -0.2619 -0.1574
 7508TIP3   OH222476   0.461   5.070   5.461 -0.6573 -0.2586  0.6394
 7508TIP3    H122477   0.477   5.060   5.367 -1.9453 -0.0704  0.3947
 7508TIP3    H222478   0.544   5.103   5.496  0.2890 -1.6654 -0.2009
 7509TIP3   OH222479   2.240   6.530   4.241  0.8198  0.1212 -0.1705
 7509TIP3    H122480   2.204   6.619   4.234 -1.0369 -0.5727  0.4427
 7509TIP3    H222481   2.296   6.532   4.319  0.5217  0.6535  0.0294
 7510TIP3   OH222482   1.508   5.744   2.580  0.6181  0.5063 -0.0584
 7510TIP3    H122483   1.487   5.781   2.494 -1.2109  1.6037  0.8065
 7510TIP3    H222484   1.509   5.820   2.638 -1.4301 -0.5750  1.4480
 7511TIP3   OH222485   3.568   5.738   4.964  0.0492  0.4883  0.3367
 7511TIP3    H122486   3.646   5.790   4.984  0.6154  0.6859 -2.2839
 7511TIP3    H222487   3.594   5.648   4.983  1.0245  0.5199 -0.8003
 7512TIP3   OH222488   3.615   7.067   3.547 -0.3507  0.0375 -0.6497
 7512TIP3    H122489   3.554   7.048   3.477 -0.2434 -1.8407 -0.2505
 7512TIP3    H222490   3.609   6.992   3.606  0.6501  0.8931  0.5886
 7513TIP3   OH222491   3.773   6.617   5.113  0.1337 -0.3960  0.3698
 7513TIP3    H122492   3.853   6.654   5.075  0.0709 -0.1456  0.4884
 7513TIP3    H222493   3.748   6.677   5.182 -0.1415 -0.4928  0.3552
 7514TIP3   OH222494   1.495   6.715   5.793 -0.0864  0.2102 -0.2678
 7514TIP3    H122495   1.539   6.776   5.734  2.6255 -1.9996 -0.6229
 7514TIP3    H222496   1.430   6.671   5.737 -0.4245  1.0526 -0.5591
 7515TIP3   OH222497   3.843   0.611   5.583 -0.0329 -0.2329  0.0206
 7515TIP3    H122498   3.849   0.519   5.559  0.7476 -0.2231  0.1850
 7515TIP3    H222499   3.900   0.656   5.521  0.3468  0.0299  0.5595
 7516TIP3   OH222500   2.973   7.189   4.445 -0.4139  0.0203  0.0003
 7516TIP3    H122501   3.011   7.198   4.357  0.1944  0.1460  0.2705
 7516TIP3    H222502   3.046   7.158   4.499 -1.0686 -1.1307  0.2331
 7517TIP3   OH222503   1.522   6.796   5.363  0.0310  0.1204  0.0926
 7517TIP3    H122504   1.567   6.850   5.429 -1.4797  0.6117  0.7478
 7517TIP3    H222505   1.568   6.712   5.366 -0.0067  0.1375  1.7785
 7518TIP3   OH222506   1.653   5.873   2.334  0.2628 -0.6597 -0.2233
 7518TIP3    H122507   1.561   5.851   2.327  0.2079 -0.4428 -0.2094
 7518TIP3    H222508   1.685   5.875   2.244  0.1512 -0.3199 -0.2595
 7519TIP3   OH222509   3.877   6.786   3.908  0.5920 -0.4157 -0.3296
 7519TIP3    H122510   3.880   6.808   4.001  0.9898  0.1325 -0.4766
 7519TIP3    H222511   3.958   6.821   3.872  0.0592  0.0944 -1.0444
 7520TIP3   OH222512   5.883   0.302   4.334  0.1859  0.3630  0.7026
 7520TIP3    H122513   5.890   0.394   4.358 -1.0267  0.8774 -0.8397
 7520TIP3    H222514   5.849   0.259   4.413  0.0386  1.3419  1.1776
 7521TIP3   OH222515   1.438   6.147   2.255  0.3036  0.2736  0.3293
 7521TIP3    H122516   1.413   6.114   2.169  0.3463  0.4809  0.2351
 7521TIP3    H222517   1.534   6.145   2.254  0.2981 -0.0784  0.5140
 7522TIP3   OH222518   4.111   5.228   4.373 -0.1818 -0.0569  0.1127
 7522TIP3    H122519   4.076   5.193   4.456 -1.1224  0.5924  0.0024
 7522TIP3    H222520   4.156   5.308   4.398 -0.8228  0.3607 -0.0456
 7523TIP3   OH222521   3.038   0.985   4.307 -0.6635 -0.0730 -0.4042
 7523TIP3    H122522   3.124   1.017   4.334 -0.6294  0.9097 -1.5879
 7523TIP3    H222523   2.979   1.010   4.378  0.2959 -2.3126  1.2401
 7524TIP3   OH222524   2.844   7.211   5.250  0.7873 -0.4224 -0.0363
 7524TIP3    H122525   2.804   7.250   5.328  1.9558  0.4246  0.1556
 7524TIP3    H222526   2.814   7.266   5.177 -0.6790 -1.4910 -0.2549
 7525TIP3   OH222527   5.234   0.059   5.380  0.4198  0.1533 -0.4002
 7525TIP3    H122528   5.299   0.097   5.320  1.5599 -0.3848  0.4925
 7525TIP3    H222529   5.167   0.022   5.322  0.5282  1.3572 -1.3133
 7526TIP3   OH222530   0.071   2.044   0.150 -0.2453  0.1875 -0.0589
 7526TIP3    H122531  -0.017   2.056   0.114 -0.1698 -1.5627 -0.8860
 7526TIP3    H222532   0.125   2.104   0.099 -1.0186  1.6245  0.7717
 7527TIP3   OH222533   4.167   5.815   3.869  0.1510  0.0675 -0.0953
 7527TIP3    H122534   4.142   5.724   3.881 -1.9622  0.3398 -1.9414
 7527TIP3    H222535   4.242   5.812   3.811  0.5396 -0.5230  0.4308
 7528TIP3   OH222536   0.760   5.522   1.901 -1.3900  0.3526  0.6742
 7528TIP3    H122537   0.681   5.492   1.855 -1.1543 -0.9064  1.0710
 7528TIP3    H222538   0.788   5.446   1.952  1.9061 -0.2915 -1.9036
 7529TIP3   OH222539   3.161   6.474   2.817  0.1854  0.0596 -0.4978
 7529TIP3    H122540   3.236   6.436   2.861 -0.5696 -1.2459 -0.3188
 7529TIP3    H222541   3.095   6.484   2.886 -1.0263 -2.0541 -1.3137
 7530TIP3   OH222542   7.130   0.440   3.553 -0.0343  0.3087  0.8999
 7530TIP3    H122543   7.170   0.441   3.639  0.5901 -3.0068  0.7218
 7530TIP3    H222544   7.042   0.405   3.567  0.5298 -1.5101  0.0633
 7531TIP3   OH222545   2.343   6.406   3.583 -0.2303 -0.2314  0.1439
 7531TIP3    H122546   2.269   6.419   3.524  0.2892  0.0977 -0.4337
 7531TIP3    H222547   2.329   6.470   3.653 -0.0320  0.4164 -0.4083
 7532TIP3   OH222548   0.176   6.190   2.901 -0.0842 -0.8693 -0.0343
 7532TIP3    H122549   0.204   6.267   2.951  0.3004 -0.4442 -0.8973
 7532TIP3    H222550   0.250   6.129   2.908  0.6675 -0.1384 -1.4889
 7533TIP3   OH222551   3.128   4.095   5.385 -0.0820 -0.0154  0.0714
 7533TIP3    H122552   3.085   4.069   5.303 -0.9292  0.1610  0.4487
 7533TIP3    H222553   3.211   4.049   5.384  0.0829  0.2820 -1.0739
 7534TIP3   OH222554   3.025   5.251   4.518  0.0749  0.2575 -0.2483
 7534TIP3    H122555   3.026   5.299   4.435 -0.2211  1.2527  0.3139
 7534TIP3    H222556   2.933   5.252   4.545  0.4378  1.5382  0.9959
 7535TIP3   OH222557   2.035   4.819   3.865 -0.1702 -0.2806 -0.1912
 7535TIP3    H122558   2.097   4.875   3.911  1.8864 -1.6149 -1.2716
 7535TIP3    H222559   2.000   4.875   3.795 -1.4805  0.9824  1.4281
 7536TIP3   OH222560   3.612   6.022   2.871  0.3903  0.1646 -0.4611
 7536TIP3    H122561   3.637   6.046   2.961  1.5595  0.1829 -0.7768
 7536TIP3    H222562   3.647   6.092   2.817  0.1111 -0.0960 -0.9754
 7537TIP3   OH222563   3.016   4.552   5.694 -0.0280  0.3638 -0.2396
 7537TIP3    H122564   2.998   4.460   5.675 -0.9534  0.6805 -0.9408
 7537TIP3    H222565   2.952   4.576   5.761  0.2848  0.4737  0.0251
 7538TIP3   OH222566   3.511   6.184   0.881 -0.0636  0.4971  0.0186
 7538TIP3    H122567   3.458   6.259   0.854 -0.7880  0.2655  0.7412
 7538TIP3    H222568   3.448   6.124   0.921  0.3916 -0.8367 -1.2455
 7539TIP3   OH222569   0.390   3.537   0.168  0.6220  0.0593  0.2914
 7539TIP3    H122570   0.384   3.559   0.262 -0.2059 -0.1330  0.2888
 7539TIP3    H222571   0.373   3.620   0.124  1.1676  0.1833  0.3095
 7540TIP3   OH222572   1.823   6.408   2.393 -0.5235  0.2601  0.3348
 7540TIP3    H122573   1.859   6.423   2.480 -0.1846  0.1954  0.2082
 7540TIP3    H222574   1.732   6.436   2.399  0.1960  2.8381 -0.0187
 7541TIP3   OH222575   3.695   5.341   6.399  0.2193  0.2072  0.1011
 7541TIP3    H122576   3.749   5.391   6.460  2.1790 -1.3404 -0.3168
 7541TIP3    H222577   3.626   5.304   6.454 -0.1754  1.8394  0.7216
 7542TIP3   OH222578   1.620   7.048   4.283  0.4821 -0.0985  0.0731
 7542TIP3    H122579   1.603   6.965   4.328  0.4435  0.1419  0.5021
 7542TIP3    H222580   1.583   7.115   4.340  1.2182  0.2805  0.1192
 7543TIP3   OH222581   5.985   0.067   4.797  0.4286  0.6147  0.3484
 7543TIP3    H122582   5.994   0.114   4.880  0.5161 -1.6812  1.6552
 7543TIP3    H222583   5.938  -0.013   4.819  0.6186 -0.1103 -1.7862
 7544TIP3   OH222584   1.963   4.892   1.017  0.4666  0.0057 -0.0927
 7544TIP3    H122585   2.032   4.842   1.060  0.3436  0.0107  0.1127
 7544TIP3    H222586   2.008   4.966   0.977  0.5969 -0.0558 -0.0603
 7545TIP3   OH222587   6.335   0.208   2.686 -0.2076 -0.2493  0.6008
 7545TIP3    H122588   6.281   0.285   2.674 -1.3046 -0.8610  1.4626
 7545TIP3    H222589   6.300   0.143   2.624 -0.4252 -0.6268  1.1145
 7546TIP3   OH222590   1.620   6.995   1.637  0.0123  0.2170  0.3925
 7546TIP3    H122591   1.588   6.930   1.576 -0.2924 -1.5104  2.3308
 7546TIP3    H222592   1.560   7.069   1.628 -1.5505 -1.0382  0.4422
 7547TIP3   OH222593   2.792   6.516   4.776  0.3343  0.1532 -0.1207
 7547TIP3    H122594   2.709   6.471   4.788  1.1936 -1.0193  1.6338
 7547TIP3    H222595   2.852   6.449   4.742  0.9902  0.5621  0.1996
 7548TIP3   OH222596   2.684   6.342   3.078 -0.2034  0.2037  0.6068
 7548TIP3    H122597   2.631   6.419   3.057  1.8491  1.6640  0.5718
 7548TIP3    H222598   2.633   6.294   3.142 -2.3905  0.5741 -0.7962
 7549TIP3   OH222599   2.212   5.752   2.668 -0.5003 -0.3145 -0.1687
 7549TIP3    H122600   2.285   5.725   2.723 -0.2784  1.9914  0.7237
 7549TIP3    H222601   2.233   5.718   2.581  1.4886  0.0851  0.1436
 7550TIP3   OH222602   5.068   0.232   3.885 -0.0276 -0.3702  0.0342
 7550TIP3    H122603   4.993   0.263   3.935 -0.8991  0.7588 -1.9294
 7550TIP3    H222604   5.060   0.137   3.886 -1.9158 -0.2382 -0.7873
 7551TIP3   OH222605   6.818   0.527   3.907  0.8170  0.8231 -0.1453
 7551TIP3    H122606   6.805   0.567   3.821  0.3015 -0.2351 -0.5710
 7551TIP3    H222607   6.878   0.455   3.891 -0.8703 -0.6645 -0.0136
 7552TIP3   OH222608   1.878   6.275   3.701 -0.3097 -0.6251 -0.2942
 7552TIP3    H122609   1.802   6.279   3.643  0.8892 -0.8248 -1.8957
 7552TIP3    H222610   1.891   6.366   3.728 -1.4169 -0.6580  0.4122
 7553TIP3   OH222611   7.041   5.053   6.401  0.6866  0.0818 -0.2037
 7553TIP3    H122612   7.092   5.112   6.345 -2.0166  2.6776 -0.0657
 7553TIP3    H222613   6.963   5.033   6.349 -0.6396  0.4624  1.5895
 7554TIP3   OH222614   3.318   5.095   3.460 -0.1894 -0.2678  0.1271
 7554TIP3    H122615   3.287   5.005   3.463 -0.2207 -0.2600  0.0383
 7554TIP3    H222616   3.239   5.148   3.454 -0.1657 -0.2411  0.0377
 7555TIP3   OH222617   3.793   6.963   5.532 -0.3298 -0.1222 -0.1508
 7555TIP3    H122618   3.799   6.877   5.574 -2.9594 -0.5673 -0.6099
 7555TIP3    H222619   3.880   6.978   5.495  1.1651 -1.0664  2.8350
 7556TIP3   OH222620   3.433   3.792   4.648  0.4733  0.5129  0.3878
 7556TIP3    H122621   3.495   3.720   4.655 -0.4245 -0.2737  0.3331
 7556TIP3    H222622   3.473   3.863   4.698  0.6419 -0.5253  1.7525
 7557TIP3   OH222623   2.871   7.028   1.603 -0.2704 -0.3206  0.4765
 7557TIP3    H122624   2.910   6.942   1.586  0.1568  0.1949 -1.2115
 7557TIP3    H222625   2.778   7.009   1.618 -0.7225 -0.8058 -2.6834
 7558TIP3   OH222626   3.094   5.264   3.368 -0.0756  0.3368 -0.4213
 7558TIP3    H122627   3.132   5.340   3.324 -1.7016  0.3278 -1.8796
 7558TIP3    H222628   3.061   5.208   3.297  0.6886 -1.5326  0.6418
 7559TIP3   OH222629   4.842   0.708   3.435 -0.3406 -0.2013  0.1432
 7559TIP3    H122630   4.894   0.651   3.492  1.3429 -0.8922 -2.0330
 7559TIP3    H222631   4.784   0.648   3.388 -1.9420  0.3992  1.2680
 7560TIP3   OH222632   0.804   7.475   4.713  0.2040 -0.2182 -0.3870
 7560TIP3    H122633   0.770   7.405   4.658 -0.3780  0.3067 -0.7020
 7560TIP3    H222634   0.884   7.439   4.751  0.0421 -0.9606 -0.7416
 7561TIP3   OH222635   7.342   6.963   3.933  0.6658  1.2395  0.3210
 7561TIP3    H122636   7.379   7.051   3.938  1.1708  0.9607  1.4708
 7561TIP3    H222637   7.330   6.936   4.024 -1.1558  0.8165 -0.0343
 7562TIP3   OH222638   0.683   5.123   4.482  0.2138  0.1806 -0.0983
 7562TIP3    H122639   0.749   5.173   4.434  2.6936 -0.6356  2.3257
 7562TIP3    H222640   0.717   5.120   4.571 -1.8411 -2.5023  0.6231
 7563TIP3   OH222641   2.360   5.771   5.462 -0.0839  0.4546 -0.0734
 7563TIP3    H122642   2.340   5.734   5.548  1.5442  1.2716  0.6732
 7563TIP3    H222643   2.275   5.797   5.427 -0.7553  0.1648  1.3029
 7564TIP3   OH222644   7.418   7.122   3.035 -0.2889  0.0969  0.2065
 7564TIP3    H122645   7.338   7.082   3.002 -0.9581  1.3014  0.3031
 7564TIP3    H222646   7.390   7.168   3.115  0.0028  2.4176 -0.9677
 7565TIP3   OH222647   4.688   1.371   3.483 -0.0579 -0.2609 -0.2846
 7565TIP3    H122648   4.659   1.462   3.480  0.2176 -0.1737 -0.3072
 7565TIP3    H222649   4.759   1.366   3.420  0.6450 -0.2354  0.4976
 7566TIP3   OH222650   7.325   0.440   2.825 -0.1622  0.1517 -0.2873
 7566TIP3    H122651   7.348   0.525   2.864 -2.4287  1.4063 -1.6240
 7566TIP3    H222652   7.317   0.458   2.732 -2.0185 -1.2236 -0.4129
 7567TIP3   OH222653   1.854   5.412   6.217 -0.3881 -0.3001  0.3852
 7567TIP3    H122654   1.838   5.392   6.309 -0.2428 -0.0168  0.4721
 7567TIP3    H222655   1.900   5.335   6.184  0.5282  0.0537  0.8204
 7568TIP3   OH222656   7.590   7.073   4.248  0.8219 -0.7606  0.0377
 7568TIP3    H122657   7.580   7.138   4.177 -0.7742 -2.2092 -1.1096
 7568TIP3    H222658   7.666   7.021   4.222  0.8243 -0.6770 -0.1278
 7569TIP3   OH222659   2.493   5.834   4.925  0.1529 -0.6531  0.2359
 7569TIP3    H122660   2.498   5.895   4.851  0.4577 -1.1178 -0.1241
 7569TIP3    H222661   2.516   5.749   4.888  0.1162 -0.9197  0.8254
 7570TIP3   OH222662   5.016   0.790   1.970 -0.0445  0.3534  0.1544
 7570TIP3    H122663   4.947   0.846   1.935 -0.3856 -0.0986  0.0971
 7570TIP3    H222664   5.042   0.831   2.052 -0.5979  0.3527  0.3289
 7571TIP3   OH222665   1.604   5.451   3.387  0.1742 -0.0699 -0.4288
 7571TIP3    H122666   1.598   5.527   3.445  3.3980 -0.5078  0.5986
 7571TIP3    H222667   1.698   5.440   3.371 -0.4200 -2.0746 -2.9497
 7572TIP3   OH222668   1.607   7.136   6.281 -0.1235  0.0250 -0.4069
 7572TIP3    H122669   1.661   7.071   6.324  1.0512  1.5070  0.4116
 7572TIP3    H222670   1.665   7.179   6.218 -0.5337  1.1020 -0.0749
 7573TIP3   OH222671   4.259   0.288   2.418 -0.3353  0.2087  0.1083
 7573TIP3    H122672   4.271   0.241   2.500  0.7620  0.0975 -0.1005
 7573TIP3    H222673   4.343   0.332   2.403 -0.2114 -0.4815 -1.3749
 7574TIP3   OH222674   2.578   7.092   4.844  0.2586 -0.2957  0.3278
 7574TIP3    H122675   2.510   7.067   4.906  2.3835  1.4642  3.5075
 7574TIP3    H222676   2.549   7.176   4.809  0.8036  0.4779  1.7170
 7575TIP3   OH222677   2.250   2.466   1.969 -0.0011  0.2464  0.3656
 7575TIP3    H122678   2.333   2.475   2.016  0.6052  1.2164 -0.8720
 7575TIP3    H222679   2.258   2.383   1.923  0.2182  0.2516  0.3918
 7576TIP3   OH222680   3.469   5.322   5.370  0.4701  0.6747  0.1352
 7576TIP3    H122681   3.380   5.288   5.374 -0.0198  1.9148  0.0545
 7576TIP3    H222682   3.511   5.289   5.450  0.2088 -0.6358 -0.2729
 7577TIP3   OH222683   4.434   4.933   4.039 -0.3251  0.7832  0.2505
 7577TIP3    H122684   4.403   4.873   3.971 -0.3755  0.6136  0.4231
 7577TIP3    H222685   4.359   4.944   4.097 -0.3988  1.2246  0.0709
 7578TIP3   OH222686   1.752   5.013   5.160  0.1083 -0.6866 -0.5592
 7578TIP3    H122687   1.742   5.108   5.162  0.5398 -0.5711 -2.7290
 7578TIP3    H222688   1.844   4.999   5.136 -0.4420 -1.6279 -2.1623
 7579TIP3   OH222689   5.704   0.809   2.714 -0.6239 -0.1280 -0.1021
 7579TIP3    H122690   5.692   0.728   2.665 -0.4910 -0.6651  0.7312
 7579TIP3    H222691   5.627   0.815   2.771 -1.7385  1.4854 -1.7224
 7580TIP3   OH222692   2.854   6.458   2.690 -0.2813 -0.3183 -0.6359
 7580TIP3    H122693   2.766   6.456   2.728  0.1191 -1.8591  0.2738
 7580TIP3    H222694   2.894   6.376   2.719  0.9417 -0.3205 -2.2869
 7581TIP3   OH222695   2.800   6.376   2.400 -0.2013  0.4038  0.0528
 7581TIP3    H122696   2.812   6.394   2.494 -2.3843 -0.1566  0.4604
 7581TIP3    H222697   2.833   6.454   2.357 -0.0972  1.0982  1.3511
 7582TIP3   OH222698   3.096   7.277   4.199  0.2800 -0.5952 -0.0495
 7582TIP3    H122699   3.114   7.324   4.117 -1.9110  0.3965 -0.0050
 7582TIP3    H222700   3.139   7.330   4.267 -2.3612  1.5528  0.0253
 7583TIP3   OH222701   4.063   0.653   5.975 -0.2659  0.4567 -0.4975
 7583TIP3    H122702   4.138   0.708   5.951 -0.2922  1.5557  1.8007
 7583TIP3    H222703   4.083   0.568   5.936  2.7467  0.4039  0.9643
 7584TIP3   OH222704   0.885   4.977   2.724  0.6915  0.4064  0.5561
 7584TIP3    H122705   0.957   5.008   2.669  0.3304  0.2129 -0.0432
 7584TIP3    H222706   0.838   5.057   2.749  1.3560  0.5657  1.3009
 7585TIP3   OH222707   4.464   7.329   0.545  0.0386 -0.0947  0.7874
 7585TIP3    H122708   4.552   7.351   0.514  1.0329 -0.7502  3.0182
 7585TIP3    H222709   4.417   7.300   0.466  1.7959  0.3231 -0.4365
 7586TIP3   OH222710   0.487   2.063   0.019  0.0003 -0.2917  0.2812
 7586TIP3    H122711   0.438   2.066   0.102 -0.3974  1.5154  0.0036
 7586TIP3    H222712   0.567   2.113   0.037 -0.5962  1.0542 -0.7301
 7587TIP3   OH222713   4.352   5.208   6.063  0.1841  0.0771 -0.2485
 7587TIP3    H122714   4.284   5.235   6.124  0.2534  1.2151 -0.6662
 7587TIP3    H222715   4.375   5.119   6.091 -1.6501 -0.4248 -0.2774
 7588TIP3   OH222716   7.285   0.788   0.121  0.2174  0.2370  0.3318
 7588TIP3    H122717   7.191   0.778   0.107  0.4596 -1.5737 -0.1727
 7588TIP3    H222718   7.324   0.756   0.040  1.2586  2.0015  0.1027
 7589TIP3   OH222719   1.167   5.090   6.267  0.2149 -0.4711  0.1758
 7589TIP3    H122720   1.180   5.184   6.251  0.2897 -0.6543 -0.8245
 7589TIP3    H222721   1.136   5.086   6.358 -0.7607  0.5980 -0.0942
 7590TIP3   OH222722   2.249   4.617   6.033  0.2643  0.4011 -0.4275
 7590TIP3    H122723   2.196   4.667   6.095  1.5137  1.2566 -0.0293
 7590TIP3    H222724   2.201   4.623   5.950 -1.3562 -0.6571  0.4088
 7591TIP3   OH222725   1.774   4.395   3.436  0.4073 -0.2439  0.2965
 7591TIP3    H122726   1.854   4.360   3.476  1.0912 -1.5306 -2.1289
 7591TIP3    H222727   1.708   4.327   3.450  0.1751  0.0679  0.7515
 7592TIP3   OH222728   2.051   5.957   2.389  0.5734  0.3325 -0.0251
 7592TIP3    H122729   2.020   6.030   2.443 -2.0349 -0.2237 -0.6939
 7592TIP3    H222730   2.002   5.881   2.420  1.3009 -0.5968 -1.0992
 7593TIP3   OH222731   2.772   6.931   4.726  0.1271  0.0362  0.0536
 7593TIP3    H122732   2.787   6.980   4.645  1.4224 -0.5805 -0.0992
 7593TIP3    H222733   2.696   6.973   4.766 -0.4783  0.4002 -1.4434
 7594TIP3   OH222734   7.297   7.427   5.458 -0.1168 -0.3912  0.0395
 7594TIP3    H122735   7.360   7.355   5.463 -0.5658 -0.8907 -1.4120
 7594TIP3    H222736   7.314   7.467   5.373 -0.6612  0.4986  0.3487
 7595TIP3   OH222737   2.916   5.810   2.382 -0.1570 -0.0243 -0.4586
 7595TIP3    H122738   2.831   5.823   2.339 -0.9617 -1.9578  0.5034
 7595TIP3    H222739   2.909   5.862   2.463 -1.1480 -1.6184  0.5119
 7596TIP3   OH222740   3.129   6.284   4.611 -0.3063 -0.0042  0.4139
 7596TIP3    H122741   3.144   6.207   4.556  0.6191 -0.2777  1.0412
 7596TIP3    H222742   3.040   6.312   4.588  0.0717 -0.0852 -1.2388
 7597TIP3   OH222743   7.327   0.642   4.421 -0.2550  0.5584  0.1770
 7597TIP3    H122744   7.359   0.577   4.359  0.2974  0.3067  0.7142
 7597TIP3    H222745   7.336   0.600   4.507 -3.5352 -0.1365  0.2469
 7598TIP3   OH222746   5.693   0.965   3.262 -0.2007 -0.1797 -0.2360
 7598TIP3    H122747   5.784   0.964   3.290 -0.3171 -0.7703  0.1216
 7598TIP3    H222748   5.645   1.000   3.337  0.0101  2.4676 -1.2783
 7599TIP3   OH222749   3.284   6.244   3.819  0.0528  0.3405 -0.0358
 7599TIP3    H122750   3.257   6.335   3.812 -0.0679  0.2083 -1.5433
 7599TIP3    H222751   3.377   6.244   3.795  0.3346  0.2047  1.0159
 7600TIP3   OH222752   5.903   0.199   4.583 -0.3344  0.5946 -0.1584
 7600TIP3    H122753   5.980   0.240   4.544 -0.7751  0.0932 -1.5928
 7600TIP3    H222754   5.934   0.163   4.666  0.8042  0.9951 -0.4059
 7601TIP3   OH222755   4.984   6.561   3.719 -0.4619 -0.5632 -0.2898
 7601TIP3    H122756   4.909   6.508   3.692 -0.7726 -0.3603  0.1651
 7601TIP3    H222757   5.053   6.538   3.657 -0.6826 -1.2759 -0.2751
 7602TIP3   OH222758   3.279   5.622   3.515  0.1823  0.3183  0.1143
 7602TIP3    H122759   3.259   5.708   3.552  0.8125  0.5771 -0.1342
 7602TIP3    H222760   3.357   5.636   3.461 -0.5490 -0.1159 -1.0800
 7603TIP3   OH222761   1.401   5.965   2.052  0.2564  0.2665 -0.4669
 7603TIP3    H122762   1.473   5.904   2.067  0.0328 -0.0954 -0.8886
 7603TIP3    H222763   1.342   5.919   1.994 -0.2568  0.6159 -0.2248
 7604TIP3   OH222764   3.429   4.936   5.151  0.2816 -0.0146  0.9044
 7604TIP3    H122765   3.418   4.901   5.063 -1.7107  0.2957  1.0127
 7604TIP3    H222766   3.488   5.011   5.140  0.4953 -0.3240 -0.0622
 7605TIP3   OH222767   5.047   0.205   4.561 -0.2403  0.5798 -0.1656
 7605TIP3    H122768   5.095   0.277   4.521  1.8124  0.0292  1.2334
 7605TIP3    H222769   4.990   0.172   4.491  1.2182  1.4209 -1.7859
 7606TIP3   OH222770   2.655   7.370   5.123  0.2200 -0.9865 -0.0329
 7606TIP3    H122771   2.614   7.286   5.139  0.7842 -1.3906 -0.6693
 7606TIP3    H222772   2.583   7.433   5.123 -0.2266 -1.5032  0.2167
 7607TIP3   OH222773   4.716   0.939   3.722  0.1504  0.6844  0.1115
 7607TIP3    H122774   4.701   0.881   3.647 -0.4519  0.5094  0.3694
 7607TIP3    H222775   4.690   0.888   3.798  1.2754  0.6675  0.5017
 7608TIP3   OH222776   3.114   5.709   2.223 -0.4106 -0.2789  0.3101
 7608TIP3    H122777   3.098   5.761   2.144 -1.8202 -2.2326 -0.7314
 7608TIP3    H222778   3.053   5.744   2.288 -1.3834 -0.6251 -0.3999
 7609TIP3   OH222779   2.169   5.016   3.406 -0.0748  0.3140 -0.1512
 7609TIP3    H122780   2.206   4.956   3.472  1.2221  2.7966  1.4485
 7609TIP3    H222781   2.176   4.967   3.324  1.6078 -1.4869  1.0010
 7610TIP3   OH222782   3.094   6.429   4.316  0.9162  0.7071 -0.4745
 7610TIP3    H122783   3.053   6.463   4.397 -2.5040 -0.6594 -1.5411
 7610TIP3    H222784   3.040   6.353   4.292  4.3738 -1.4264 -1.8246
 7611TIP3   OH222785   6.490   7.109   3.973  0.1011  0.0672 -0.0666
 7611TIP3    H122786   6.405   7.120   4.016  0.5958  2.5962  0.3561
 7611TIP3    H222787   6.472   7.122   3.880  0.1395  1.6394  0.1181
 7612TIP3   OH222788   1.238   5.699   5.004 -0.0961 -0.2763  0.1024
 7612TIP3    H122789   1.219   5.615   5.044 -0.7167 -0.4735 -0.5788
 7612TIP3    H222790   1.152   5.733   4.978  0.1194  0.7111  0.6584
 7613TIP3   OH222791   3.400   3.897   5.061  0.0540 -0.4638 -0.3059
 7613TIP3    H122792   3.483   3.911   5.015 -1.6924  2.3706 -2.7468
 7613TIP3    H222793   3.367   3.985   5.078 -2.5126 -1.5682  0.5428
 7614TIP3   OH222794   3.651   6.057   2.397 -0.3621  0.0585  0.4479
 7614TIP3    H122795   3.577   6.097   2.441 -0.3675  0.6273 -0.0683
 7614TIP3    H222796   3.643   6.084   2.305  0.6811  0.4276  0.4553
 7615TIP3   OH222797   2.111   5.910   3.333  0.1770  0.1218  0.1650
 7615TIP3    H122798   2.092   5.835   3.276 -1.3374  0.6261 -0.0235
 7615TIP3    H222799   2.046   5.902   3.404 -0.7465  1.8756 -0.4673
 7616TIP3   OH222800   3.679   4.664   4.819 -0.4326 -0.1468  0.4387
 7616TIP3    H122801   3.607   4.716   4.855  0.1513  0.7495  0.3575
 7616TIP3    H222802   3.712   4.614   4.894 -1.2395 -0.6764  0.4363
 7617TIP3   OH222803   4.595   0.563   4.851 -0.2434 -0.3362 -1.0397
 7617TIP3    H122804   4.568   0.652   4.874 -1.2963 -0.7172 -0.7966
 7617TIP3    H222805   4.547   0.544   4.770  0.7044 -0.3420 -1.6170
 7618TIP3   OH222806   2.250   6.114   4.018  0.1785 -0.1470  0.0859
 7618TIP3    H122807   2.200   6.138   3.940 -0.5987  0.1433  0.6619
 7618TIP3    H222808   2.316   6.052   3.987 -0.7871 -0.8302 -0.6323
 7619TIP3   OH222809   0.700   4.817   2.596  0.5844 -0.7493 -0.1347
 7619TIP3    H122810   0.710   4.879   2.524  0.1002 -1.3710 -0.7412
 7619TIP3    H222811   0.764   4.846   2.661 -0.8833  1.4732  0.3624
 7620TIP3   OH222812   3.152   6.962   3.376 -0.4034  0.0341 -0.0162
 7620TIP3    H122813   3.246   6.968   3.360 -0.3248 -2.3518 -0.5505
 7620TIP3    H222814   3.115   6.930   3.294 -1.3909 -1.3237  0.9451
 7621TIP3   OH222815   3.373   6.082   5.203  0.0184 -0.0090 -0.3815
 7621TIP3    H122816   3.332   6.132   5.273  0.3682  0.3823 -0.4547
 7621TIP3    H222817   3.318   6.097   5.127 -0.7492 -0.9798 -0.0369
 7622TIP3   OH222818   2.731   6.991   3.928  0.0428 -0.1579  0.6733
 7622TIP3    H122819   2.733   7.059   3.995  0.9631 -0.6259  1.1261
 7622TIP3    H222820   2.719   6.909   3.976  0.7735 -0.5022  0.2773
 7623TIP3   OH222821   1.628   3.568   0.835  0.3497 -0.0931 -0.2405
 7623TIP3    H122822   1.720   3.566   0.861 -0.2842 -1.7812  2.0185
 7623TIP3    H222823   1.580   3.553   0.916 -1.9460  1.0987 -1.3374
 7624TIP3   OH222824   4.202   2.011   3.469 -0.3216  0.4677  0.0751
 7624TIP3    H122825   4.111   2.039   3.479 -0.8990 -0.8641 -1.2634
 7624TIP3    H222826   4.253   2.092   3.473 -1.5883  1.2506  0.5611
 7625TIP3   OH222827   1.607   6.583   4.191  0.0597 -1.1492 -0.1206
 7625TIP3    H122828   1.544   6.511   4.195  1.3927 -2.4439 -1.9154
 7625TIP3    H222829   1.692   6.541   4.203  0.8533  0.1296 -1.1598
 7626TIP3   OH222830   5.377   0.429   3.974 -0.1108  0.1280 -0.3734
 7626TIP3    H122831   5.436   0.472   3.913 -0.4496 -0.9476 -1.4703
 7626TIP3    H222832   5.416   0.343   3.989 -1.1824 -0.4441 -0.8077
 7627TIP3   OH222833   0.717   6.932   3.544  0.2024  0.4143 -0.0761
 7627TIP3    H122834   0.803   6.969   3.564 -0.0503  1.8560 -1.5563
 7627TIP3    H222835   0.654   6.992   3.584 -0.1218 -0.6072  0.9621
 7628TIP3   OH222836   1.673   4.941   4.306  0.7437  0.3195  0.0721
 7628TIP3    H122837   1.703   5.031   4.318 -0.0683  0.5135  0.7142
 7628TIP3    H222838   1.685   4.900   4.392 -1.7023  0.6735  0.6187
 7629TIP3   OH222839   0.698   5.195   5.604  0.0973 -0.0626  0.7602
 7629TIP3    H122840   0.728   5.155   5.685  1.3580  1.1371  0.9132
 7629TIP3    H222841   0.727   5.286   5.610  0.3725  0.0096 -1.1088
 7630TIP3   OH222842   6.558   1.016   2.892 -0.0379 -0.2216  0.6028
 7630TIP3    H122843   6.629   1.061   2.847  0.0039 -0.2963  0.5928
 7630TIP3    H222844   6.500   1.086   2.923  0.2842 -0.1382  1.0189
 7631TIP3   OH222845   7.346   1.380   4.971 -0.2720 -0.3686 -0.6738
 7631TIP3    H122846   7.305   1.401   5.055  0.7336 -0.3247 -0.1954
 7631TIP3    H222847   7.311   1.447   4.911  0.7239  0.9725  0.2150
 7632TIP3   OH222848   3.206   6.385   3.532  0.5199  0.2548  0.0353
 7632TIP3    H122849   3.271   6.338   3.586  1.0690  1.0717  0.0891
 7632TIP3    H222850   3.169   6.450   3.592  0.2541  0.3545 -0.2406
 7633TIP3   OH222851   2.140   6.658   2.399  0.1468  0.5801 -0.1473
 7633TIP3    H122852   2.204   6.640   2.331  2.1104 -0.4945  1.9024
 7633TIP3    H222853   2.146   6.583   2.458 -0.9804  1.7982  1.5844
 7634TIP3   OH222854   5.446   2.046   3.842  0.0109  0.0781  0.2871
 7634TIP3    H122855   5.535   2.029   3.873  0.4617 -1.0881 -1.5604
 7634TIP3    H222856   5.391   1.993   3.899  0.5280  0.4057  1.1115
 7635TIP3   OH222857   2.777   6.022   3.087  0.1008  0.1141 -0.3533
 7635TIP3    H122858   2.809   6.089   3.026  0.6901  0.1124 -0.0473
 7635TIP3    H222859   2.727   6.071   3.152  0.1031  0.2017 -0.4181
 7636TIP3   OH222860   6.541   0.121   2.880  0.3296  0.3173 -0.1461
 7636TIP3    H122861   6.599   0.186   2.919 -0.0985  1.2197 -1.0089
 7636TIP3    H222862   6.486   0.170   2.819 -0.8111 -0.6540  0.0708
 7637TIP3   OH222863   2.866   4.867   4.934  0.1846  0.0219 -0.6421
 7637TIP3    H122864   2.801   4.924   4.894 -2.0461 -1.5770  0.5814
 7637TIP3    H222865   2.883   4.907   5.020 -1.6493 -1.2741  0.3646
 7638TIP3   OH222866   3.018   4.407   1.959 -0.2569  0.1266  0.0149
 7638TIP3    H122867   3.052   4.317   1.952  2.3476  1.2242 -2.9581
 7638TIP3    H222868   2.974   4.422   1.875 -1.6224  1.2901  0.9312
 7639TIP3   OH222869   2.453   5.059   0.780  0.2641  0.4231  0.0788
 7639TIP3    H122870   2.452   5.153   0.763  0.2021  0.8437  2.2732
 7639TIP3    H222871   2.410   5.020   0.704 -1.3282  2.3317 -0.0201
 7640TIP3   OH222872   1.272   4.194   1.773 -0.4081  0.1151 -0.2449
 7640TIP3    H122873   1.275   4.121   1.836 -2.0942 -1.6828 -2.1831
 7640TIP3    H222874   1.182   4.196   1.743 -0.2228  2.6439 -0.7011
 7641TIP3   OH222875   1.725   5.471   4.467 -0.1406 -0.1416  0.1197
 7641TIP3    H122876   1.739   5.521   4.386 -0.6198 -0.0192  0.1147
 7641TIP3    H222877   1.675   5.529   4.524  0.9526  0.1009  0.8464
 7642TIP3   OH222878   3.369   4.827   6.329  0.2228 -0.5885  0.0697
 7642TIP3    H122879   3.369   4.901   6.268  0.4601  0.5980  1.4772
 7642TIP3    H222880   3.460   4.820   6.358  0.2631 -1.6404 -0.2941
 7643TIP3   OH222881   1.867   6.381   2.690 -0.4332 -0.7812 -0.0846
 7643TIP3    H122882   1.899   6.294   2.666  1.6910 -0.6903  2.1762
 7643TIP3    H222883   1.808   6.366   2.763 -1.4647 -0.4633 -0.8423
 7644TIP3   OH222884   0.283   4.944   2.514  0.2474 -0.4095  0.3006
 7644TIP3    H122885   0.321   5.009   2.455  0.5133  0.4270  1.3817
 7644TIP3    H222886   0.192   4.969   2.522  0.8993  1.3242  2.6721
 7645TIP3   OH222887   1.585   5.781   4.061 -0.2257 -0.5052  0.3908
 7645TIP3    H122888   1.550   5.736   3.984  0.1332  0.4166 -0.3219
 7645TIP3    H222889   1.677   5.795   4.040  0.0508 -0.9245  1.3154
 7646TIP3   OH222890   1.694   5.241   1.371 -0.3345  0.2485 -0.1227
 7646TIP3    H122891   1.741   5.243   1.287  3.8885 -0.5271  2.0933
 7646TIP3    H222892   1.703   5.330   1.406  0.2909 -0.1506  0.7368
 7647TIP3   OH222893   6.272   0.287   1.426  0.0200 -0.1801  1.2590
 7647TIP3    H122894   6.358   0.274   1.466  0.3472 -0.2315  0.5420
 7647TIP3    H222895   6.264   0.216   1.362  0.4876  1.2603 -0.4262
 7648TIP3   OH222896   1.812   5.203   5.941  0.2850 -0.0085  0.7808
 7648TIP3    H122897   1.890   5.195   5.997 -0.5481 -0.2634  1.9379
 7648TIP3    H222898   1.831   5.148   5.865  0.5994 -1.3787  1.8183
 7649TIP3   OH222899   1.671   5.438   6.018  0.0742 -0.5739 -0.0026
 7649TIP3    H122900   1.712   5.356   5.992 -0.5222 -1.0147  0.4469
 7649TIP3    H222901   1.712   5.460   6.102  0.1430 -0.4715 -0.0615
 7650TIP3   OH222902   1.047   4.868   3.268  0.4271  0.4736 -0.2225
 7650TIP3    H122903   1.013   4.896   3.183 -0.2941 -0.4201 -0.2320
 7650TIP3    H222904   1.041   4.773   3.266  0.1806  0.4599  0.9287
 7651TIP3   OH222905   5.861   6.327   5.446  0.0020  0.1260 -0.2819
 7651TIP3    H122906   5.907   6.251   5.412  1.1853  0.8631 -0.3469
 7651TIP3    H222907   5.846   6.382   5.369  1.4796  1.1651  0.1509
 7652TIP3   OH222908   4.254   7.228   3.578  0.1053  0.0229 -0.1336
 7652TIP3    H122909   4.183   7.215   3.515  1.7769 -0.1460 -2.0513
 7652TIP3    H222910   4.217   7.203   3.663 -1.4450 -2.2392 -1.4307
 7653TIP3   OH222911   4.753   6.525   5.177 -0.1790  0.4072  0.2680
 7653TIP3    H122912   4.821   6.518   5.244 -0.0750 -4.0288 -0.1733
 7653TIP3    H222913   4.796   6.497   5.096 -1.9147 -0.1846 -0.4687
 7654TIP3   OH222914   6.164   6.555   3.753 -0.1298  0.1524  0.0682
 7654TIP3    H122915   6.086   6.502   3.772  0.8705 -1.5554 -0.4001
 7654TIP3    H222916   6.175   6.612   3.829 -2.7065  1.5122 -0.5400
 7655TIP3   OH222917   6.049   0.781   5.027 -0.3161 -0.4914 -0.5507
 7655TIP3    H122918   6.127   0.786   5.083 -0.6131 -0.7444 -0.1093
 7655TIP3    H222919   6.080   0.740   4.946 -0.1102 -1.1346 -0.1505
 7656TIP3   OH222920   5.401   7.104   4.970 -0.0042  0.0367 -0.1038
 7656TIP3    H122921   5.338   7.119   5.040  0.7723  0.3438  0.5415
 7656TIP3    H222922   5.468   7.048   5.009  0.2032 -0.1511 -0.7292
 7657TIP3   OH222923   5.992   0.151   3.318  0.0054  0.0843 -0.0414
 7657TIP3    H122924   5.931   0.203   3.266 -0.2248  0.2085  0.3479
 7657TIP3    H222925   6.001   0.199   3.400  0.5649  0.0243 -0.0615
 7658TIP3   OH222926   4.184   4.838   2.325 -0.3053 -0.5207 -0.3445
 7658TIP3    H122927   4.131   4.769   2.286 -0.1418 -1.3001  0.7777
 7658TIP3    H222928   4.146   4.851   2.412  0.4700 -0.1144 -0.0594
 7659TIP3   OH222929   5.087   0.070   5.653  0.0189  0.0380  0.2205
 7659TIP3    H122930   5.054  -0.019   5.641  1.2490 -0.6544  1.9160
 7659TIP3    H222931   5.151   0.081   5.583 -0.5948 -0.1743 -0.3833
 7660TIP3   OH222932   5.924   6.107   3.541  0.2225  0.3103  0.0394
 7660TIP3    H122933   6.007   6.152   3.524  0.2459  0.8079  1.4146
 7660TIP3    H222934   5.860   6.157   3.491  0.8833 -0.7098 -1.8966
 7661TIP3   OH222935   3.328   6.245   3.308 -0.2968  0.5905 -0.9807
 7661TIP3    H122936   3.349   6.253   3.215 -0.9980  2.4653 -1.0081
 7661TIP3    H222937   3.257   6.307   3.322 -1.4554 -1.0072  0.4394
 7662TIP3   OH222938   5.422   5.527   1.784  0.2147  0.1243 -0.2640
 7662TIP3    H122939   5.378   5.611   1.798 -2.1968 -1.0239 -0.8161
 7662TIP3    H222940   5.406   5.506   1.693  1.0058 -0.8361 -0.1887
 7663TIP3   OH222941   2.679   5.797   5.647 -0.2205 -0.0580 -0.3083
 7663TIP3    H122942   2.725   5.876   5.674  2.1233 -2.0254  1.7705
 7663TIP3    H222943   2.598   5.797   5.698  0.2669  0.4989  0.4702
 7664TIP3   OH222944   7.843   0.215   5.471 -0.1841  0.3666  0.7712
 7664TIP3    H122945   7.824   0.306   5.492  0.2835  0.7709 -0.5432
 7664TIP3    H222946   7.930   0.199   5.506  0.2265  0.7768 -0.0622
 7665TIP3   OH222947   5.777   6.461   4.847 -0.5251 -0.6535  0.2530
 7665TIP3    H122948   5.871   6.478   4.852 -0.3689 -1.4296 -0.0274
 7665TIP3    H222949   5.741   6.508   4.922  0.0643 -0.2033  0.2615
 7666TIP3   OH222950   1.234   4.332   3.665  0.2810  0.0860 -0.0275
 7666TIP3    H122951   1.243   4.326   3.760  0.9283 -1.1650 -0.1500
 7666TIP3    H222952   1.310   4.384   3.637 -0.9544  2.1337  0.2960
 7667TIP3   OH222953   3.099   5.504   2.809 -0.1231 -0.3136  0.0375
 7667TIP3    H122954   3.037   5.570   2.837 -0.4698 -0.7436  0.2879
 7667TIP3    H222955   3.084   5.430   2.868  0.3847 -0.5496 -0.1212
 7668TIP3   OH222956   3.708   6.091   3.402 -0.0887 -0.2311 -0.1462
 7668TIP3    H122957   3.624   6.046   3.408  0.6174 -1.6315 -0.5960
 7668TIP3    H222958   3.773   6.021   3.397  1.1357  0.8245  0.4446
 7669TIP3   OH222959   3.816   7.267   3.476  0.0553  0.4563  0.5498
 7669TIP3    H122960   3.750   7.198   3.484  1.0225 -0.4409  0.8608
 7669TIP3    H222961   3.832   7.296   3.566 -0.4465  1.1869  0.4095
 7670TIP3   OH222962   4.051   5.278   2.127  0.2607  0.0812 -0.5323
 7670TIP3    H122963   4.111   5.222   2.175 -0.1200  0.1341  0.0044
 7670TIP3    H222964   4.047   5.239   2.040  2.3271  0.9860 -1.0838
 7671TIP3   OH222965   4.595   5.754   4.483  0.0737 -0.1481  0.7324
 7671TIP3    H122966   4.547   5.790   4.408  0.6431  0.2362  0.5388
 7671TIP3    H222967   4.674   5.717   4.444  0.6929  0.6493  1.2067
 7672TIP3   OH222968   6.717   1.013   5.503  0.1844 -0.1289 -0.0067
 7672TIP3    H122969   6.651   1.044   5.442 -1.0897 -3.1603 -0.2240
 7672TIP3    H222970   6.795   0.999   5.449  0.9254  3.0099  0.1732
 7673TIP3   OH222971   4.197   6.730   6.287  0.1272  0.2253  0.7648
 7673TIP3    H122972   4.280   6.778   6.276  0.1254  0.3071  1.0979
 7673TIP3    H222973   4.224   6.638   6.296  0.2386  0.3355  1.6177
 7674TIP3   OH222974   4.161   3.404   2.290  0.0048 -0.4601  0.3347
 7674TIP3    H122975   4.234   3.398   2.351 -0.5633 -3.4310  0.8004
 7674TIP3    H222976   4.083   3.397   2.345 -0.6359  1.9938 -0.2320
 7675TIP3   OH222977   1.655   5.460   3.036  0.2060 -0.2811  0.1406
 7675TIP3    H122978   1.604   5.510   3.100 -1.1323 -0.3029 -0.9002
 7675TIP3    H222979   1.629   5.369   3.050 -1.0496 -0.1548 -1.2803
 7676TIP3   OH222980   0.071   0.869   4.550 -0.1845  0.2567  0.4141
 7676TIP3    H122981   0.071   0.954   4.507 -0.1183  0.5641  1.0225
 7676TIP3    H222982   0.134   0.877   4.621 -0.4134 -0.1986  0.6769
 7677TIP3   OH222983   7.212   5.338   4.581 -0.0538  0.1131 -0.3451
 7677TIP3    H122984   7.135   5.395   4.576 -1.5022 -1.7217  0.4045
 7677TIP3    H222985   7.214   5.308   4.672  0.9709 -0.6383 -0.6033
 7678TIP3   OH222986   3.740   6.448   2.933  0.5527 -0.4307  0.5350
 7678TIP3    H122987   3.777   6.532   2.907  1.5888 -1.0961 -0.2190
 7678TIP3    H222988   3.684   6.468   3.008 -0.6584  1.1888 -0.7600
 7679TIP3   OH222989   4.575   6.701   3.511  0.3911 -0.0825 -0.3672
 7679TIP3    H122990   4.497   6.734   3.557  1.4507  0.1212  1.3300
 7679TIP3    H222991   4.552   6.611   3.488 -0.0384 -0.3137  0.9017
 7680TIP3   OH222992   5.742   6.284   3.417 -0.0575 -0.0271  0.1919
 7680TIP3    H122993   5.676   6.264   3.351 -1.8670  0.1114  1.9170
 7680TIP3    H222994   5.764   6.376   3.402  0.5089 -0.3543 -1.0347
 7681TIP3   OH222995   6.900   0.035   3.406 -0.3165  0.2082  0.2035
 7681TIP3    H122996   6.816   0.077   3.424 -0.1389  0.1900  1.0742
 7681TIP3    H222997   6.907  -0.034   3.472  1.2978  1.5083  1.4044
 7682TIP3   OH222998   4.413   6.504   1.170 -0.3816  0.1383  0.3436
 7682TIP3    H122999   4.466   6.583   1.167 -1.3226  0.7077 -2.7095
 7682TIP3    H223000   4.450   6.453   1.243  1.8019  2.2586  0.7717
 7683TIP3   OH223001   4.115   5.335   2.515 -0.3843  0.0108  0.2117
 7683TIP3    H123002   4.186   5.377   2.466 -0.4142  3.0906  2.6839
 7683TIP3    H223003   4.125   5.242   2.496  0.4011  0.9533 -4.5568
 7684TIP3   OH223004   5.064   6.243   5.145  0.0506  0.1107  0.1160
 7684TIP3    H123005   5.142   6.298   5.157  0.3723 -0.8603  2.7800
 7684TIP3    H223006   5.098   6.161   5.110 -0.0212  0.4070 -0.6469
 7685TIP3   OH223007   4.036   5.314   4.135 -0.1074 -0.3241  0.0763
 7685TIP3    H123008   4.057   5.311   4.229 -0.0376  1.1054  0.1287
 7685TIP3    H223009   4.015   5.224   4.112 -1.5570 -0.4623  1.8092
 7686TIP3   OH223010   7.367  -0.027   4.845  0.3924 -0.4298 -0.7439
 7686TIP3    H123011   7.308   0.049   4.851  1.2569  0.5616 -4.0091
 7686TIP3    H223012   7.451   0.005   4.877 -0.2652 -1.2957  2.0195
 7687TIP3   OH223013   3.426   4.907   4.827 -0.4207 -0.2774 -0.1451
 7687TIP3    H123014   3.413   4.865   4.742  1.7255  0.1963 -0.7423
 7687TIP3    H223015   3.500   4.966   4.813  0.6461 -0.9945  2.3619
 7688TIP3   OH223016   5.244   4.332   6.179  0.0489  0.2405 -0.0901
 7688TIP3    H123017   5.188   4.265   6.219 -0.3996  0.0388 -1.0546
 7688TIP3    H223018   5.214   4.414   6.218 -0.8994  0.1289 -0.5784
 7689TIP3   OH223019   3.383   6.660   3.522  0.0124 -0.8038 -0.2145
 7689TIP3    H123020   3.427   6.580   3.551 -1.5782 -1.6978 -0.2167
 7689TIP3    H223021   3.361   6.706   3.603 -1.4572 -1.6776 -0.1122
 7690TIP3   OH223022   4.857   6.942   4.583  0.0886  0.3283 -0.5073
 7690TIP3    H123023   4.806   7.018   4.553 -3.5573 -1.4457  0.9266
 7690TIP3    H223024   4.820   6.868   4.537  2.1902 -0.9159 -0.2748
 7691TIP3   OH223025   7.227   1.859   3.277 -0.1736  0.0503  0.0842
 7691TIP3    H123026   7.154   1.902   3.322 -2.2660 -1.0386 -2.1896
 7691TIP3    H223027   7.253   1.789   3.336  1.3962  2.5614  2.5111
 7692TIP3   OH223028   4.349   5.023   2.692  0.1152  0.1065 -0.7173
 7692TIP3    H123029   4.342   5.010   2.787  1.2974 -0.2595 -0.6633
 7692TIP3    H223030   4.395   5.107   2.683 -1.2290  0.8343 -0.9951
 7693TIP3   OH223031   1.100   5.796   2.483  0.0930 -0.5769 -0.3392
 7693TIP3    H123032   1.166   5.854   2.445  0.6132 -0.3100  0.9160
 7693TIP3    H223033   1.085   5.729   2.416  1.3474 -0.4101 -0.8094
 7694TIP3   OH223034   4.176   7.133   4.482 -0.7417  0.2207 -0.2757
 7694TIP3    H123035   4.120   7.066   4.442  1.3636 -1.2104 -0.8793
 7694TIP3    H223036   4.209   7.091   4.562 -2.5668  1.9959  1.4599
 7695TIP3   OH223037   4.418   6.263   2.161  0.2212  0.3304 -0.4035
 7695TIP3    H123038   4.472   6.223   2.093  0.5355  0.6492 -0.3430
 7695TIP3    H223039   4.331   6.226   2.147  0.7128 -1.0951  0.2419
 7696TIP3   OH223040   2.945   7.058   2.871 -0.1657 -0.1505 -0.4167
 7696TIP3    H123041   2.977   6.968   2.874  0.2035  0.0144  0.7683
 7696TIP3    H223042   2.851   7.049   2.856 -0.7828 -0.9024  3.2677
 7697TIP3   OH223043   3.410   5.650   2.823 -0.0562 -0.6972 -0.0194
 7697TIP3    H123044   3.480   5.599   2.784 -0.4386 -0.3672 -1.1631
 7697TIP3    H223045   3.331   5.599   2.807 -0.3903  0.0634 -0.8506
 7698TIP3   OH223046   5.915   6.462   3.740 -0.1255  0.3449 -0.4488
 7698TIP3    H123047   5.937   6.372   3.719  0.8660  0.7521 -1.2147
 7698TIP3    H223048   5.884   6.499   3.657 -3.1947 -0.0581  0.4867
 7699TIP3   OH223049   6.211   1.033   3.173 -0.3546 -0.3052  0.0110
 7699TIP3    H123050   6.300   1.070   3.166 -0.4398  0.1258  1.2072
 7699TIP3    H223051   6.216   0.950   3.125  0.4185  0.2209 -0.8279
 7700TIP3   OH223052   4.461   6.347   4.169  0.3913  0.0873 -0.1621
 7700TIP3    H123053   4.499   6.298   4.242 -0.0059  1.3125  0.8798
 7700TIP3    H223054   4.527   6.340   4.100  0.7194 -1.1812  0.2526
 7701TIP3   OH223055   7.803   0.049   3.002  0.0255  0.1586  0.0692
 7701TIP3    H123056   7.899   0.050   2.999  0.0569 -0.5615  0.7657
 7701TIP3    H223057   7.781  -0.029   3.053 -0.9449  0.0385 -0.5166
 7702TIP3   OH223058   5.647   0.575   2.238  0.1967  0.5375 -0.1933
 7702TIP3    H123059   5.553   0.579   2.219 -0.0761  0.3105  1.0917
 7702TIP3    H223060   5.675   0.666   2.237 -0.4875  0.7857  1.5896
 7703TIP3   OH223061   5.202   6.430   4.591  0.4614  0.4445  0.0023
 7703TIP3    H123062   5.156   6.430   4.507  0.9708 -0.3802 -0.2847
 7703TIP3    H223063   5.280   6.482   4.576  0.5693  0.2693 -0.0440
 7704TIP3   OH223064   5.044   6.496   1.104 -0.3214 -0.3402  0.1208
 7704TIP3    H123065   5.003   6.411   1.118 -1.5792  0.1075 -0.8041
 7704TIP3    H223066   4.999   6.554   1.165 -0.2188 -0.1016 -0.0322
 7705TIP3   OH223067   7.444   1.143   3.419 -0.1041  0.4333  0.0705
 7705TIP3    H123068   7.405   1.071   3.370 -1.1122  1.1202 -0.1570
 7705TIP3    H223069   7.520   1.169   3.366 -0.6086  0.5155 -0.6209
 7706TIP3   OH223070   5.622   6.150   4.191  0.2333 -0.8259 -0.7477
 7706TIP3    H123071   5.710   6.171   4.160  0.5517  0.3482  0.8738
 7706TIP3    H223072   5.636   6.083   4.258  0.1377  1.1335  1.2645
 7707TIP3   OH223073   3.946   5.992   5.421 -0.4119  0.2808 -0.0699
 7707TIP3    H123074   3.999   6.071   5.434  1.1381 -0.9795  1.4313
 7707TIP3    H223075   3.989   5.946   5.349 -0.1529 -0.1681  0.3720
 7708TIP3   OH223076   3.751   7.437   3.981  0.1913  0.3616  0.0685
 7708TIP3    H123077   3.791   7.358   4.015  1.5221  1.2944  0.7317
 7708TIP3    H223078   3.691   7.407   3.912 -0.5424 -1.3223  1.4259
 7709TIP3   OH223079   2.607   5.987   4.072  0.1331  0.1823 -0.6562
 7709TIP3    H123080   2.690   5.964   4.113  0.8267 -0.9180 -2.5682
 7709TIP3    H223081   2.630   6.053   4.006 -0.7187  0.8483 -0.2968
 7710TIP3   OH223082   6.663   6.075   5.034 -0.3847 -0.3276  0.6189
 7710TIP3    H123083   6.749   6.034   5.047  1.5996  3.2433 -0.6631
 7710TIP3    H223084   6.642   6.057   4.942 -0.0575  0.5122  0.3774
 7711TIP3   OH223085   6.811   5.375   3.478 -0.0504 -0.2411 -0.6459
 7711TIP3    H123086   6.789   5.429   3.403  0.5923  0.9459  0.0102
 7711TIP3    H223087   6.896   5.408   3.508 -0.5496 -0.3319  0.9257
 7712TIP3   OH223088   5.207   0.377   2.473  0.0072  0.3578 -0.2380
 7712TIP3    H123089   5.236   0.369   2.382 -2.1697 -1.7851 -0.7785
 7712TIP3    H223090   5.120   0.339   2.474  0.6876 -1.2829  3.1268
 7713TIP3   OH223091   5.474   5.563   2.648 -0.0936 -0.0963 -0.6287
 7713TIP3    H123092   5.485   5.499   2.719 -1.2942  0.4035  0.0276
 7713TIP3    H223093   5.532   5.532   2.579  1.4818 -0.3334  0.7556
 7714TIP3   OH223094   4.293   4.809   3.546 -0.4080 -0.2137 -0.3145
 7714TIP3    H123095   4.201   4.795   3.525 -0.7611  0.7568  0.5305
 7714TIP3    H223096   4.300   4.790   3.639  0.3862 -0.9207 -0.5104
 7715TIP3   OH223097   2.365   5.206   3.167  0.1875  0.4729 -0.1897
 7715TIP3    H123098   2.388   5.134   3.107  0.4694  1.1020 -0.8378
 7715TIP3    H223099   2.278   5.182   3.200  0.1186  0.0171 -0.6829
 7716TIP3   OH223100   4.215   5.007   4.188 -0.4156  0.0463 -0.4314
 7716TIP3    H123101   4.129   5.014   4.145 -0.7008  0.6619  0.2334
 7716TIP3    H223102   4.204   5.052   4.272  0.7508  0.6963 -0.6205
 7717TIP3   OH223103   4.750   6.716   4.464  0.0006  0.5234  0.2883
 7717TIP3    H123104   4.684   6.649   4.447  2.5551 -2.6143  2.1396
 7717TIP3    H223105   4.805   6.717   4.385 -0.7815  1.3824 -0.2538
 7718TIP3   OH223106   2.637   4.507   3.219  0.5832 -0.1457  0.0899
 7718TIP3    H123107   2.663   4.543   3.304  1.3096  2.9526 -1.3670
 7718TIP3    H223108   2.715   4.462   3.187  0.6601 -0.3483  0.5586
 7719TIP3   OH223109   4.403   7.242   4.380  0.4196  0.3974 -0.5981
 7719TIP3    H123110   4.317   7.220   4.415  1.0393 -1.6002 -0.2178
 7719TIP3    H223111   4.391   7.325   4.335 -1.5592  0.4414 -0.0204
 7720TIP3   OH223112   3.969   2.175   3.049 -0.3116  0.1328  0.4359
 7720TIP3    H123113   3.939   2.085   3.033  0.3745  0.0000 -0.1253
 7720TIP3    H223114   3.909   2.229   2.997  0.1279 -0.1013 -0.3188
 7721TIP3   OH223115   2.463   5.243   4.639 -0.2280  0.2267 -0.1251
 7721TIP3    H123116   2.414   5.168   4.604 -0.3927  0.0955  0.3819
 7721TIP3    H223117   2.555   5.220   4.625 -0.2439 -0.5089  0.9071
 7722TIP3   OH223118   3.790   1.792   3.870 -0.1238  0.0103 -0.1440
 7722TIP3    H123119   3.720   1.856   3.881 -0.1103  0.1531 -0.8928
 7722TIP3    H223120   3.745   1.711   3.846 -0.0662 -0.0300 -0.1181
 7723TIP3   OH223121   6.638   7.327   0.546 -0.2063  0.3226  0.4582
 7723TIP3    H123122   6.707   7.345   0.482 -0.1124 -3.4715 -0.6574
 7723TIP3    H223123   6.558   7.356   0.503  0.2586  1.0454  0.0740
 7724TIP3   OH223124   4.885   4.328   3.026 -0.2190 -0.1768  0.0204
 7724TIP3    H123125   4.898   4.239   3.060 -0.5726 -0.7852 -1.4115
 7724TIP3    H223126   4.958   4.378   3.063  0.6870 -1.3403 -0.1539
 7725TIP3   OH223127   7.723   1.251   0.007 -0.0077 -0.6294 -0.4405
 7725TIP3    H123128   7.713   1.179   0.070 -0.6621 -0.6765 -0.5914
 7725TIP3    H223129   7.739   1.328   0.062 -1.9306 -0.4295 -0.1302
 7726TIP3   OH223130   4.455   3.936   2.829 -0.1474 -0.7238  0.0339
 7726TIP3    H123131   4.402   4.015   2.842  2.1169  0.5698  1.6870
 7726TIP3    H223132   4.525   3.963   2.771 -1.4923 -2.5557 -2.5221
 7727TIP3   OH223133   1.907   7.332   4.928 -0.2754  0.1681 -0.7425
 7727TIP3    H123134   1.947   7.417   4.946 -0.0630  0.5528 -2.9410
 7727TIP3    H223135   1.833   7.352   4.871 -1.4544 -0.9303  0.3593
 7728TIP3   OH223136   5.728   5.328   2.953  0.3945 -0.0905 -0.2472
 7728TIP3    H123137   5.750   5.274   2.876 -0.0747  0.4501 -0.7646
 7728TIP3    H223138   5.642   5.298   2.979  1.1067 -1.1973  0.8954
 7729TIP3   OH223139   6.123   5.976   4.846  0.1319 -0.1160 -0.0898
 7729TIP3    H123140   6.151   5.942   4.931 -0.0287  0.5137  0.2135
 7729TIP3    H223141   6.150   6.068   4.847 -3.8858  1.1237  1.0759
 7730TIP3   OH223142   3.382   5.728   5.191  0.5829 -0.3031  0.4809
 7730TIP3    H123143   3.440   5.658   5.218  1.1162 -0.4088 -0.8579
 7730TIP3    H223144   3.439   5.791   5.146 -0.1581  0.1082  0.0868
 7731TIP3   OH223145   7.801   6.871   2.711 -0.3713  0.4089 -0.3915
 7731TIP3    H123146   7.738   6.937   2.738 -0.9429 -0.3843  0.2338
 7731TIP3    H223147   7.767   6.839   2.627 -1.3488 -0.7169  0.4195
 7732TIP3   OH223148   7.040   0.077   4.609  0.4001 -0.2176 -0.3041
 7732TIP3    H123149   6.952   0.097   4.579  0.8448  1.1374 -0.7513
 7732TIP3    H223150   7.053   0.133   4.686  0.7751 -0.5848 -0.0959
 7733TIP3   OH223151   5.332   4.592   2.083 -0.2929 -0.4783 -0.0771
 7733TIP3    H123152   5.300   4.657   2.146 -0.6862 -0.6031 -0.1479
 7733TIP3    H223153   5.278   4.515   2.098  0.6586 -1.0424  0.5055
 7734TIP3   OH223154   4.781   6.662   3.092 -0.1766  0.1097  0.1439
 7734TIP3    H123155   4.867   6.618   3.091  0.9052  2.1762 -0.1101
 7734TIP3    H223156   4.781   6.714   3.172 -0.7315  1.0005 -0.4250
 7735TIP3   OH223157   1.282   3.789   2.743  0.1264 -0.3084  0.4328
 7735TIP3    H123158   1.294   3.821   2.832  0.1273  0.4584  0.1600
 7735TIP3    H223159   1.190   3.808   2.723  0.8124  1.9817 -0.6881
 7736TIP3   OH223160   5.936   5.904   4.258 -0.4728  0.4182  0.2915
 7736TIP3    H123161   6.031   5.894   4.257 -0.6384 -1.2151 -1.0287
 7736TIP3    H223162   5.913   5.926   4.168 -1.5117 -0.8799  0.2275
 7737TIP3   OH223163   4.992   5.672   3.038 -0.3448 -0.3052  0.0003
 7737TIP3    H123164   5.028   5.586   3.017 -0.2563 -0.2599 -0.0343
 7737TIP3    H223165   4.898   5.656   3.052 -0.4950 -0.2474 -0.9200
 7738TIP3   OH223166   1.488   7.240   1.905  0.0377  0.1113 -0.3075
 7738TIP3    H123167   1.558   7.199   1.956  2.1483  0.3207 -2.8982
 7738TIP3    H223168   1.433   7.283   1.970  2.8928  0.8215  1.7440
 7739TIP3   OH223169   4.954   5.050   2.102  0.1827  0.1850 -0.2888
 7739TIP3    H123170   5.021   5.031   2.167 -0.2933  0.3961  0.2632
 7739TIP3    H223171   4.874   5.010   2.137  0.3692 -1.5621 -1.7484
 7740TIP3   OH223172   6.643   0.981   4.559  0.4372 -0.5550  0.0477
 7740TIP3    H123173   6.628   1.026   4.642  1.8617 -0.9464  0.5224
 7740TIP3    H223174   6.679   1.048   4.501  0.2135 -0.4809 -0.0062
 7741TIP3   OH223175   2.196   5.710   5.694  0.2700  0.1809  0.3259
 7741TIP3    H123176   2.167   5.640   5.635 -0.3711 -0.3963  1.3049
 7741TIP3    H223177   2.167   5.681   5.781  1.1244  1.0564  0.9104
 7742TIP3   OH223178   0.286   0.830   3.248  0.2748  0.0148  0.0336
 7742TIP3    H123179   0.261   0.790   3.332  1.3695 -0.3009  0.2152
 7742TIP3    H223180   0.250   0.918   3.252 -0.7498 -0.4099  0.3206
 7743TIP3   OH223181   4.355   4.832   4.779 -0.5319  0.2716 -0.0587
 7743TIP3    H123182   4.413   4.770   4.824  0.7644  0.2140 -1.7369
 7743TIP3    H223183   4.331   4.895   4.846  1.9040  0.5882  0.5757
 7744TIP3   OH223184   5.323   6.812   2.506  0.7027  0.0125  0.1330
 7744TIP3    H123185   5.404   6.778   2.468  0.1782 -0.1804 -0.8334
 7744TIP3    H223186   5.334   6.907   2.508  0.5398  0.0612 -0.9795
 7745TIP3   OH223187   5.526   5.923   4.328  0.4801  0.0540 -0.2903
 7745TIP3    H123188   5.500   5.895   4.416  0.5977  0.5820 -0.0854
 7745TIP3    H223189   5.534   5.841   4.278  0.6860 -0.2681  0.2621
 7746TIP3   OH223190   2.179   1.762   0.231  0.1908  0.2731  0.0707
 7746TIP3    H123191   2.187   1.823   0.158 -1.1526 -0.5974 -0.8260
 7746TIP3    H223192   2.161   1.818   0.307 -1.4308  0.9902 -0.8115
 7747TIP3   OH223193   4.771   2.937   1.595 -0.5246  0.8056 -0.1599
 7747TIP3    H123194   4.850   2.927   1.542 -0.4909 -0.2534  0.0783
 7747TIP3    H223195   4.702   2.954   1.532 -0.7009 -1.6422 -0.6925
 7748TIP3   OH223196   2.684   6.704   1.538  0.1159 -0.1218 -0.2382
 7748TIP3    H123197   2.599   6.717   1.496  0.0087 -0.8105 -0.2316
 7748TIP3    H223198   2.727   6.635   1.487  0.1466 -0.6834  0.5353
 7749TIP3   OH223199   4.980   5.013   2.925 -0.9330  0.2763  0.1039
 7749TIP3    H123200   4.981   5.097   2.970  1.8886  0.4300 -0.1455
 7749TIP3    H223201   4.964   5.035   2.833  1.3174  0.7271 -0.2108
 7750TIP3   OH223202   4.999   7.339   3.743 -0.9495 -0.6160 -0.2096
 7750TIP3    H123203   4.924   7.372   3.793 -0.8230  1.1249 -1.1359
 7750TIP3    H223204   4.963   7.318   3.657 -0.2599  0.9802 -0.9192
 7751TIP3   OH223205   5.751   7.150   2.195 -0.2993 -0.2344 -0.1507
 7751TIP3    H123206   5.811   7.225   2.189 -1.2812  0.5659 -0.0731
 7751TIP3    H223207   5.801   7.084   2.244  0.3342  0.6121  0.3600
 7752TIP3   OH223208   2.819   5.875   4.238 -0.5276  0.2822  0.6755
 7752TIP3    H123209   2.846   5.868   4.330 -0.6546 -0.1177  0.6839
 7752TIP3    H223210   2.793   5.786   4.214 -0.8991  0.4675  0.3785
 7753TIP3   OH223211   3.604   4.788   3.002 -0.3772  0.4463  1.3058
 7753TIP3    H123212   3.578   4.845   3.074 -0.7093  2.1179 -0.1090
 7753TIP3    H223213   3.667   4.727   3.041 -1.5915  0.4331  3.3068
 7754TIP3   OH223214   7.777   0.792   2.733  0.1224  0.2406 -0.6861
 7754TIP3    H123215   7.713   0.860   2.716 -0.0191  0.6638  1.4501
 7754TIP3    H223216   7.731   0.710   2.713 -0.7559  0.5989 -0.1589
 7755TIP3   OH223217   3.450   5.350   4.545  0.1726 -0.2262  0.0845
 7755TIP3    H123218   3.420   5.441   4.548  0.1667 -0.2323  0.2432
 7755TIP3    H223219   3.433   5.317   4.633  2.1475  0.2386  0.6642
 7756TIP3   OH223220   5.737   6.249   3.913  0.4208  0.4700  0.0054
 7756TIP3    H123221   5.774   6.175   3.864  0.5519  0.7624 -0.3390
 7756TIP3    H223222   5.659   6.274   3.864  0.6466  0.8713 -0.1512
 7757TIP3   OH223223   5.560   0.500   3.361 -0.2324 -0.5646  0.2220
 7757TIP3    H123224   5.572   0.518   3.268  0.0755 -0.5709  0.2618
 7757TIP3    H223225   5.467   0.518   3.377  0.2632  1.8735  0.4835
 7758TIP3   OH223226   3.907   5.731   4.063  0.4832 -0.6363  0.0019
 7758TIP3    H123227   3.891   5.804   4.123  0.4601 -0.5150 -0.1504
 7758TIP3    H223228   3.987   5.690   4.095  0.1141 -0.9726  0.5087
 7759TIP3   OH223229   1.344   6.710   1.635 -0.6453  0.0718  0.0059
 7759TIP3    H123230   1.331   6.752   1.720 -0.1805 -0.4074  0.3175
 7759TIP3    H223231   1.324   6.618   1.651 -0.2886 -0.0664 -0.3436
 7760TIP3   OH223232   2.446   4.830   3.108  0.3965  0.1289  0.0094
 7760TIP3    H123233   2.359   4.856   3.076 -0.0585  0.9659  1.8941
 7760TIP3    H223234   2.434   4.739   3.136  0.0625  0.3189  0.4912
 7761TIP3   OH223235   6.618   6.011   4.753 -0.0761  0.0565  0.2250
 7761TIP3    H123236   6.586   5.929   4.716  0.1395 -0.3240  0.8883
 7761TIP3    H223237   6.573   6.079   4.703  0.3156 -0.4572 -0.8348
 7762TIP3   OH223238   3.578   4.360   4.233 -0.0732  0.7770  0.5004
 7762TIP3    H123239   3.519   4.370   4.158 -1.5396  1.0346  1.6590
 7762TIP3    H223240   3.544   4.285   4.281  1.8377 -0.4064  0.0465
 7763TIP3   OH223241   4.571   5.089   3.576 -0.3565 -0.8037  0.1606
 7763TIP3    H123242   4.553   5.156   3.641 -0.0851  1.1896 -1.7364
 7763TIP3    H223243   4.637   5.033   3.616 -0.8314 -0.1296  1.9080
 7764TIP3   OH223244   5.428   3.848   4.918 -0.0955  0.3545 -0.4768
 7764TIP3    H123245   5.496   3.780   4.923 -0.2674 -0.1309 -3.6875
 7764TIP3    H223246   5.473   3.929   4.943  0.8641 -0.4800  0.5272
 7765TIP3   OH223247   5.938   0.813   5.565  0.0538  0.0194 -0.4076
 7765TIP3    H123248   5.889   0.880   5.517 -0.1621  0.6291  0.6402
 7765TIP3    H223249   6.029   0.829   5.542  0.1436  1.5919  0.9205
 7766TIP3   OH223250   3.436   6.622   5.360 -0.0103 -0.5900 -0.8082
 7766TIP3    H123251   3.468   6.583   5.279 -0.1070 -1.2558 -0.5254
 7766TIP3    H223252   3.389   6.701   5.332  0.5783 -0.4198 -1.3412
 7767TIP3   OH223253   6.244   0.445   3.355  0.1145  0.0926 -0.0189
 7767TIP3    H123254   6.173   0.438   3.291  0.3181  0.0278 -0.2415
 7767TIP3    H223255   6.292   0.524   3.328  1.2996 -0.9563 -1.0690
 7768TIP3   OH223256   3.902   4.478   4.678  0.1006 -0.7364  0.6717
 7768TIP3    H123257   3.829   4.461   4.738  3.0197 -0.4739  4.4473
 7768TIP3    H223258   3.959   4.538   4.726  1.9136  0.5918 -2.9526
 7769TIP3   OH223259   0.210   5.744   4.501  0.0328  0.2080  0.2752
 7769TIP3    H123260   0.292   5.792   4.506  0.9695 -0.9568 -2.7310
 7769TIP3    H223261   0.231   5.665   4.451 -2.1839 -1.7563  2.2967
 7770TIP3   OH223262   2.999   3.704   2.608 -0.0808  0.4800 -0.8812
 7770TIP3    H123263   3.044   3.627   2.574 -0.1386  0.0932 -0.0789
 7770TIP3    H223264   2.919   3.671   2.647  0.2968  0.8405  0.2200
 7771TIP3   OH223265   5.048   0.280   1.308 -0.1226 -0.3506  0.0790
 7771TIP3    H123266   5.033   0.275   1.213 -0.3845 -0.2932  0.1167
 7771TIP3    H223267   5.096   0.361   1.320  0.4638 -0.6725 -0.0748
 7772TIP3   OH223268   0.905   5.910   4.426  0.0884  0.5074 -0.2996
 7772TIP3    H123269   0.963   5.881   4.355 -0.9306 -1.1141 -0.4872
 7772TIP3    H223270   0.821   5.927   4.384 -0.1322  0.9494  0.3011
 7773TIP3   OH223271   7.224   1.063   5.066 -0.0872  0.4291 -0.5033
 7773TIP3    H123272   7.219   1.134   5.130  0.0113  0.6418 -0.7273
 7773TIP3    H223273   7.151   1.005   5.088  0.2632  0.2261  0.1204
 7774TIP3   OH223274   4.508   6.613   4.156 -0.4698 -0.3064  0.0837
 7774TIP3    H123275   4.467   6.526   4.155 -0.8618 -0.1615  1.9212
 7774TIP3    H223276   4.574   6.609   4.086 -1.0019 -1.8208 -0.3572
 7775TIP3   OH223277   0.077   5.516   3.080 -0.4355  0.3755 -0.0920
 7775TIP3    H123278   0.069   5.434   3.031 -1.8755  0.1568  0.4865
 7775TIP3    H223279   0.109   5.489   3.166  1.7591  0.7254 -0.7600
 7776TIP3   OH223280   6.769   0.133   4.540  0.0298  0.3769 -0.0434
 7776TIP3    H123281   6.687   0.175   4.563  0.5552  1.9590 -0.9663
 7776TIP3    H223282   6.748   0.080   4.463 -0.3850 -0.2083  0.4630
 7777TIP3   OH223283   4.368   5.489   3.209 -0.2828 -0.0430  0.7809
 7777TIP3    H123284   4.376   5.394   3.199 -2.1999 -0.0226 -1.2063
 7777TIP3    H223285   4.284   5.502   3.253 -0.2589  0.7513  0.5988
 7778TIP3   OH223286   4.584   0.165   4.901 -0.0896  0.1682  0.2127
 7778TIP3    H123287   4.591   0.153   4.996 -0.0495 -1.9768 -0.0503
 7778TIP3    H223288   4.520   0.236   4.891 -1.0679 -0.4560  1.7990
 7779TIP3   OH223289   4.328   3.992   1.697 -0.0407  0.5724 -0.0229
 7779TIP3    H123290   4.341   3.951   1.611  2.1925  1.1736 -0.0157
 7779TIP3    H223291   4.303   4.082   1.677 -0.1504  0.5350 -0.0505
 7780TIP3   OH223292   3.095   5.823   3.707 -0.4633 -0.1751 -0.5070
 7780TIP3    H123293   3.027   5.846   3.643  0.7248 -0.8230 -2.0203
 7780TIP3    H223294   3.060   5.854   3.790 -2.4255 -0.0934 -1.3312
 7781TIP3   OH223295   2.427   5.804   1.955  0.1327  0.1337 -0.4307
 7781TIP3    H123296   2.433   5.899   1.946  3.7357  0.0174  0.1195
 7781TIP3    H223297   2.421   5.772   1.865 -2.3551  0.8720 -0.5815
 7782TIP3   OH223298   5.227   1.916   4.545  0.1296 -0.1114  0.4349
 7782TIP3    H123299   5.316   1.920   4.512  0.2648 -2.0514  0.5205
 7782TIP3    H223300   5.216   1.996   4.597  0.9159  1.4691 -1.7464
 7783TIP3   OH223301   4.017   5.249   3.237  0.0310 -0.1246 -0.1737
 7783TIP3    H123302   4.081   5.316   3.258 -1.5653  1.9401 -1.7589
 7783TIP3    H223303   3.998   5.261   3.144 -1.7019 -1.5302 -0.0328
 7784TIP3   OH223304   7.340   0.536   4.689 -0.3845 -0.5179  0.1444
 7784TIP3    H123305   7.414   0.583   4.728  0.6215 -1.8176 -0.1440
 7784TIP3    H223306   7.301   0.488   4.762 -0.3498 -0.5862  0.1180
 7785TIP3   OH223307   0.322   0.275   6.363  0.1923  0.0844  0.1888
 7785TIP3    H123308   0.358   0.236   6.283  1.8031  0.7966  0.5514
 7785TIP3    H223309   0.398   0.286   6.421 -1.2437 -2.2735  2.6241
 7786TIP3   OH223310   3.983   4.415   2.025  0.2215  0.5765  0.7159
 7786TIP3    H123311   3.894   4.401   2.059  0.6804  1.9563  2.5754
 7786TIP3    H223312   4.039   4.360   2.079  0.6955  1.0645  0.7336
 7787TIP3   OH223313   6.314   1.288   2.123 -0.2560  0.3483  0.0634
 7787TIP3    H123314   6.318   1.196   2.149  1.4395  0.7272  1.2341
 7787TIP3    H223315   6.256   1.329   2.187 -1.2072  0.0499 -0.6044
 7788TIP3   OH223316   5.303   6.307   2.430 -0.6114  0.5433 -0.2333
 7788TIP3    H123317   5.259   6.371   2.487  1.0440  3.1030 -1.6923
 7788TIP3    H223318   5.265   6.323   2.343  1.1373  0.8417 -0.9623
 7789TIP3   OH223319   4.591   4.633   2.169 -0.2330 -0.0027  0.1977
 7789TIP3    H123320   4.548   4.549   2.183  1.5913 -0.9141  0.4749
 7789TIP3    H223321   4.588   4.646   2.074  0.4520 -0.9223  0.0434
 7790TIP3   OH223322   2.786   6.505   0.296  0.5774  0.3605 -0.2408
 7790TIP3    H123323   2.821   6.584   0.338  0.1755 -0.0034  0.7989
 7790TIP3    H223324   2.855   6.477   0.236  0.7401  1.4769 -0.5816
 7791TIP3   OH223325   4.175   6.844   3.956  0.2356  0.5758  0.1072
 7791TIP3    H123326   4.196   6.754   3.982 -1.8228  0.1066  0.3104
 7791TIP3    H223327   4.121   6.878   4.028 -0.9070  1.1656 -0.9953
 7792TIP3   OH223328   2.999   6.640   4.492  0.2225 -0.3579 -0.1354
 7792TIP3    H123329   3.011   6.652   4.398 -0.1630 -1.5358 -0.3465
 7792TIP3    H223330   2.910   6.673   4.509  0.2732 -0.1919 -0.1864
 7793TIP3   OH223331   3.396   7.352   4.534  0.0767  0.3666  0.2283
 7793TIP3    H123332   3.396   7.344   4.629  0.2709  0.8388  0.2700
 7793TIP3    H223333   3.456   7.425   4.516 -2.1425  2.1873 -0.0770
 7794TIP3   OH223334   6.906   2.360   4.734  0.2105  0.4768  0.1753
 7794TIP3    H123335   6.951   2.442   4.752 -0.8287  1.6504 -2.2536
 7794TIP3    H223336   6.973   2.303   4.697  0.5379  0.8664  0.1680
 7795TIP3   OH223337   3.335   6.494   4.232 -0.0749 -0.0269  0.1004
 7795TIP3    H123338   3.388   6.436   4.286 -2.1509 -0.7598  1.4034
 7795TIP3    H223339   3.245   6.478   4.261 -1.0289  1.0653 -2.1656
 7796TIP3   OH223340   5.594   1.378   2.852 -0.0210 -0.2114 -0.4022
 7796TIP3    H123341   5.616   1.436   2.925  0.0866  0.3034 -0.8343
 7796TIP3    H223342   5.677   1.338   2.826  0.0410  0.0563 -0.6204
 7797TIP3   OH223343   3.169   6.096   2.776  0.3860 -0.2484  0.9211
 7797TIP3    H123344   3.256   6.057   2.767  0.0207 -0.9498  0.3926
 7797TIP3    H223345   3.130   6.089   2.689 -0.4020 -0.4260  1.2815
 7798TIP3   OH223346   4.301   7.021   5.202 -0.5895 -0.1216  0.3896
 7798TIP3    H123347   4.337   6.938   5.170 -0.7016 -0.7064  1.7445
 7798TIP3    H223348   4.248   7.054   5.130  0.8194 -0.3928 -0.7876
 7799TIP3   OH223349   6.225   6.155   5.748 -0.0095 -0.7350  0.0697
 7799TIP3    H123350   6.289   6.090   5.776  0.4219 -0.3451 -0.0100
 7799TIP3    H223351   6.277   6.231   5.722 -0.3857 -1.1374 -1.9448
 7800TIP3   OH223352   2.949   4.347   5.518 -0.6133  0.4387 -0.4071
 7800TIP3    H123353   2.998   4.295   5.454 -1.5669 -0.2389 -0.6125
 7800TIP3    H223354   2.962   4.438   5.491  2.4573  0.4640  0.9350
 7801TIP3   OH223355   1.050   2.657   0.997  0.7676  0.3718  0.7106
 7801TIP3    H123356   1.048   2.659   1.093  0.2528  1.5252  0.6823
 7801TIP3    H223357   0.980   2.717   0.971  0.1963 -0.7715 -0.3863
 7802TIP3   OH223358   3.695   6.987   2.615 -0.4695 -0.0047  0.0872
 7802TIP3    H123359   3.625   6.960   2.675  0.3001 -1.2651  0.4382
 7802TIP3    H223360   3.657   7.058   2.564 -1.2896  0.7585  1.7551
 7803TIP3   OH223361   3.618   6.808   3.679 -0.4439  0.2736 -0.1930
 7803TIP3    H123362   3.640   6.718   3.655 -1.2037 -0.8065  2.8831
 7803TIP3    H223363   3.702   6.847   3.703 -0.3419 -0.1732  0.1835
 7804TIP3   OH223364   3.988   5.533   4.371  0.5955 -0.7378 -0.2897
 7804TIP3    H123365   4.046   5.586   4.316 -0.3682 -1.8676 -2.4981
 7804TIP3    H223366   3.900   5.566   4.351  0.2225 -1.2818  0.4427
 7805TIP3   OH223367   2.086   5.520   2.429  0.2552 -0.5397 -0.3720
 7805TIP3    H123368   2.175   5.554   2.428  0.6851 -1.4406  2.6891
 7805TIP3    H223369   2.095   5.426   2.417 -0.1252 -0.8299  1.3970
 7806TIP3   OH223370   2.632   0.375   2.987  0.2474  0.0669 -0.1076
 7806TIP3    H123371   2.590   0.425   2.916 -0.8148  2.8840  2.4033
 7806TIP3    H223372   2.568   0.307   3.009  0.9293 -1.3627 -2.3342
 7807TIP3   OH223373   1.668   7.400   4.790  0.0671 -0.5650 -0.4334
 7807TIP3    H123374   1.594   7.342   4.778  0.4290 -1.6778  2.4127
 7807TIP3    H223375   1.629   7.484   4.814 -0.4162  0.2200 -3.7124
 7808TIP3   OH223376   4.339   6.055   2.535  0.3279  0.1801  0.0507
 7808TIP3    H123377   4.362   6.005   2.457  0.7003  1.1522 -0.4680
 7808TIP3    H223378   4.418   6.105   2.556  0.4091 -0.4899  1.3729
 7809TIP3   OH223379   5.262   6.464   2.172  0.1045  0.2628 -0.7716
 7809TIP3    H123380   5.199   6.408   2.127 -2.0845  2.2509 -0.2490
 7809TIP3    H223381   5.215   6.546   2.187  1.4149  0.3529  3.4063
 7810TIP3   OH223382   5.315   6.680   3.261  0.2084  0.1722  0.0804
 7810TIP3    H123383   5.324   6.587   3.281  0.9105  0.0441 -0.7830
 7810TIP3    H223384   5.403   6.716   3.271 -0.1050  0.7951  0.6479
 7811TIP3   OH223385   4.747   6.428   4.169 -0.3078 -0.4726  0.4704
 7811TIP3    H123386   4.747   6.332   4.163 -2.7139 -0.5024  0.4809
 7811TIP3    H223387   4.716   6.457   4.083 -2.4129  0.1755  1.4134
 7812TIP3   OH223388   7.601   5.472   5.345  0.1343  0.1709  0.3614
 7812TIP3    H123389   7.616   5.566   5.329 -0.0602 -0.0954 -1.5087
 7812TIP3    H223390   7.686   5.440   5.377  1.5188  0.1695 -3.0732
 7813TIP3   OH223391   6.540   5.764   4.641  0.3328 -0.1050  0.5756
 7813TIP3    H123392   6.605   5.702   4.673 -0.6385 -0.8420  1.1457
 7813TIP3    H223393   6.522   5.735   4.552  0.5206 -0.1057  0.5365
 7814TIP3   OH223394   6.440   0.957   4.194  0.2745  0.0110 -0.9566
 7814TIP3    H123395   6.535   0.950   4.194  0.5707  3.2466  0.6296
 7814TIP3    H223396   6.421   1.020   4.124 -0.5334  1.1465  0.2811
 7815TIP3   OH223397   3.450   5.171   1.421 -0.3262 -0.0117  0.3387
 7815TIP3    H123398   3.529   5.118   1.413  0.8224  1.7753 -0.4783
 7815TIP3    H223399   3.481   5.256   1.452 -1.7583  1.1576 -1.3479
 7816TIP3   OH223400   5.614   0.076   3.097  0.1104 -0.0771  0.1122
 7816TIP3    H123401   5.589   0.081   3.004  0.3872  1.6998  0.1206
 7816TIP3    H223402   5.640  -0.015   3.110  0.0500 -0.3458 -1.5541
 7817TIP3   OH223403   5.840   4.816   3.100 -0.1505 -0.3912  0.4094
 7817TIP3    H123404   5.853   4.731   3.058 -3.0622 -1.3813  1.3735
 7817TIP3    H223405   5.846   4.879   3.029 -1.6745 -1.7566 -0.9673
 7818TIP3   OH223406   2.197   6.385   2.483  0.2904 -0.0193  0.3847
 7818TIP3    H123407   2.256   6.341   2.422  0.0471 -1.2548  1.0245
 7818TIP3    H223408   2.228   6.359   2.570 -0.2139  0.6123  0.7599
 7819TIP3   OH223409   4.039   7.169   4.235  0.3551  0.5057  0.5238
 7819TIP3    H123410   4.092   7.206   4.306 -0.9391  0.9609  1.2684
 7819TIP3    H223411   3.949   7.170   4.269 -0.0182 -1.1494 -0.3502
 7820TIP3   OH223412   7.586   4.065   2.618 -0.2668 -0.4538 -0.1928
 7820TIP3    H123413   7.527   4.057   2.694 -0.8383  0.1880 -0.5599
 7820TIP3    H223414   7.536   4.028   2.546 -0.2526  0.1663 -0.5231
 7821TIP3   OH223415   3.730   5.631   4.329  0.7580  0.3153  0.5443
 7821TIP3    H123416   3.657   5.663   4.383  1.9819  2.0676  1.2289
 7821TIP3    H223417   3.705   5.652   4.239  0.8681  1.9073  0.8668
 7822TIP3   OH223418   7.302   0.620   4.085  0.4040 -0.0196 -0.1409
 7822TIP3    H123419   7.393   0.635   4.110  1.0112 -2.1786 -0.9505
 7822TIP3    H223420   7.267   0.562   4.153 -0.8947  2.0930  1.0736
 7823TIP3   OH223421   6.257   5.515   5.932  0.0303 -0.1472  0.0623
 7823TIP3    H123422   6.187   5.509   5.997 -0.2648  0.5841 -0.1751
 7823TIP3    H223423   6.338   5.503   5.982 -0.2436 -0.5326  0.4127
 7824TIP3   OH223424   4.381   7.263   3.179 -0.9000  0.4619 -0.9024
 7824TIP3    H123425   4.331   7.258   3.261 -0.5885  0.3844 -0.7194
 7824TIP3    H223426   4.315   7.284   3.113 -0.7694  3.0920 -0.2550
 7825TIP3   OH223427   4.855   0.368   5.715 -0.0081  0.0634 -0.0522
 7825TIP3    H123428   4.915   0.385   5.642  1.1628  0.7614  1.0463
 7825TIP3    H223429   4.768   0.374   5.677  0.6157 -0.6374 -1.6181
 7826TIP3   OH223430   5.518   5.375   5.708 -0.1974  0.2584 -0.3628
 7826TIP3    H123431   5.572   5.417   5.775 -1.9329  0.4606  0.9444
 7826TIP3    H223432   5.453   5.441   5.684 -1.7379 -0.9949  0.2973
 7827TIP3   OH223433   2.840   3.056   3.696  0.0077 -0.0993  0.5394
 7827TIP3    H123434   2.878   3.042   3.783  1.0422 -1.1690 -0.0654
 7827TIP3    H223435   2.749   3.080   3.713  0.4262  0.5140  1.9468
 7828TIP3   OH223436   5.393   6.666   4.517  0.2630 -0.6659 -0.2864
 7828TIP3    H123437   5.376   6.688   4.609 -1.0064 -0.3711 -0.5785
 7828TIP3    H223438   5.451   6.590   4.521  1.4058  0.2413  0.7526
 7829TIP3   OH223439   3.403   4.111   4.108 -0.6109 -0.4604  0.3558
 7829TIP3    H123440   3.452   4.108   4.190 -0.5530 -0.3288  0.3265
 7829TIP3    H223441   3.437   4.037   4.057 -1.1689 -0.9837  0.7395
 7830TIP3   OH223442   2.570   6.098   3.262 -0.4676 -0.3561  0.0578
 7830TIP3    H123443   2.489   6.136   3.297  0.2558  0.4859  0.8689
 7830TIP3    H223444   2.549   6.007   3.245 -1.4961 -0.2216  0.5965
 7831TIP3   OH223445   4.096   3.917   2.122  0.2743  0.1217 -0.0851
 7831TIP3    H123446   4.034   3.983   2.090 -0.2400 -0.0539  0.5503
 7831TIP3    H223447   4.042   3.845   2.152  0.7698  0.1896  0.9760
 7832TIP3   OH223448   2.966   4.807   5.300 -0.9341 -0.1085 -0.8371
 7832TIP3    H123449   3.035   4.868   5.325 -0.7261  0.2353 -2.2418
 7832TIP3    H223450   2.925   4.782   5.383  1.0426 -0.5316  0.0415
 7833TIP3   OH223451   3.734   4.854   1.888  0.5353  0.0427  0.0523
 7833TIP3    H123452   3.829   4.855   1.874  0.7547  1.4040  1.4681
 7833TIP3    H223453   3.707   4.945   1.873 -1.0760 -0.9473 -3.5521
 7834TIP3   OH223454   2.369   5.670   3.398 -0.1374  0.9606  0.2409
 7834TIP3    H123455   2.278   5.645   3.414 -0.1110  0.7738  0.0997
 7834TIP3    H223456   2.416   5.587   3.392 -0.6639  0.8498 -3.9722
 7835TIP3   OH223457   4.058   5.176   3.487  0.1762  0.1596 -0.2734
 7835TIP3    H123458   4.037   5.199   3.396  1.8978  0.8346 -0.5215
 7835TIP3    H223459   4.141   5.130   3.482  0.1599 -0.0263  0.9432
 7836TIP3   OH223460   3.892   7.327   3.051 -0.1320 -0.3050  0.2721
 7836TIP3    H123461   3.914   7.415   3.018 -0.4551  0.1071  1.1377
 7836TIP3    H223462   3.816   7.341   3.107 -0.8886 -1.3155 -0.4831
 7837TIP3   OH223463   6.674   0.157   3.475  0.0511  0.2792  0.4141
 7837TIP3    H123464   6.670   0.238   3.425 -0.5217 -0.7200 -1.2019
 7837TIP3    H223465   6.610   0.168   3.545 -0.9418  0.7342 -0.5517
 7838TIP3   OH223466   5.047   6.109   5.471 -0.3491 -0.0498 -0.0133
 7838TIP3    H123467   5.079   6.186   5.425  0.9766 -0.4786  0.1513
 7838TIP3    H223468   4.993   6.143   5.542  1.0111  0.7702  0.6469
 7839TIP3   OH223469   4.133   5.659   1.963  0.3220 -0.4169 -0.3056
 7839TIP3    H123470   4.209   5.714   1.981  0.5141 -0.5696 -0.6487
 7839TIP3    H223471   4.063   5.721   1.943  0.5104 -0.2944 -0.5908
 7840TIP3   OH223472   7.090   1.384   3.767  0.3696  0.5318 -0.6186
 7840TIP3    H123473   7.026   1.349   3.830  0.5177 -0.2020 -0.8645
 7840TIP3    H223474   7.152   1.312   3.755  1.5347  1.4255  0.0169
 7841TIP3   OH223475   5.046   6.592   3.143  0.8562  0.4537  0.4883
 7841TIP3    H123476   5.047   6.503   3.180  0.0228  1.0222  1.9382
 7841TIP3    H223477   5.128   6.631   3.172  0.3455  0.7938  1.4854
 7842TIP3   OH223478   6.233   1.514   4.444  0.3969  0.6537  0.8299
 7842TIP3    H123479   6.182   1.574   4.388  0.0834  0.1324  0.5504
 7842TIP3    H223480   6.177   1.437   4.454  1.5916 -0.4054 -0.4214
 7843TIP3   OH223481   6.563   7.205   4.723  0.2405  0.4230 -0.0200
 7843TIP3    H123482   6.637   7.186   4.665 -0.4120  0.0799 -0.7421
 7843TIP3    H223483   6.492   7.233   4.665 -0.2609  0.5765  0.6522
 7844TIP3   OH223484   4.648   6.409   3.307  0.2522  0.0994  0.4678
 7844TIP3    H123485   4.616   6.319   3.303  1.0260 -0.1277 -0.9505
 7844TIP3    H223486   4.592   6.457   3.246  2.1557 -0.1784 -1.5701
 7845TIP3   OH223487   7.330   2.775   4.714  0.0338 -0.0033  0.0168
 7845TIP3    H123488   7.330   2.840   4.644 -1.2278 -0.0919 -0.0779
 7845TIP3    H223489   7.308   2.824   4.793 -0.0317 -0.1563  0.0953
 7846TIP3   OH223490   7.199   0.209   3.153  0.4665  0.5475 -0.0126
 7846TIP3    H123491   7.109   0.189   3.128  1.2813 -1.8924 -1.2029
 7846TIP3    H223492   7.242   0.231   3.071  1.1499  0.9013  0.4390
 7847TIP3   OH223493   5.129   5.367   5.561  0.2172 -0.1540  0.3587
 7847TIP3    H123494   5.145   5.461   5.555  1.5827 -0.1277  3.4128
 7847TIP3    H223495   5.207   5.326   5.525  0.8888 -0.0820  1.7059
 7848TIP3   OH223496   3.604   5.442   2.929  0.3197 -0.7511 -0.0403
 7848TIP3    H123497   3.621   5.372   2.993  1.5132 -0.9726 -0.5933
 7848TIP3    H223498   3.689   5.482   2.913  0.5689 -2.4571 -3.5044
 7849TIP3   OH223499   6.543   6.322   4.614  0.0620  0.5718 -0.2977
 7849TIP3    H123500   6.490   6.261   4.562  0.5406 -0.2528  0.1771
 7849TIP3    H223501   6.629   6.280   4.619 -0.3332  0.0086  2.2389
 7850TIP3   OH223502   4.118   6.130   1.702 -0.5311  0.3805 -0.6721
 7850TIP3    H123503   4.147   6.220   1.716  0.6453 -0.1722  0.6611
 7850TIP3    H223504   4.033   6.125   1.746 -0.7950  0.9463 -1.1156
 7851TIP3   OH223505   3.475   5.367   2.194 -0.3243 -0.6552 -0.3273
 7851TIP3    H123506   3.570   5.368   2.182 -0.4696  0.9871 -1.6123
 7851TIP3    H223507   3.461   5.404   2.281  0.1588  0.4952 -0.7313
 7852TIP3   OH223508   3.741   4.967   4.114  0.4879  0.0027  0.2114
 7852TIP3    H123509   3.667   5.015   4.149 -1.8724 -1.2713 -2.8055
 7852TIP3    H223510   3.773   4.914   4.188 -1.1533  1.0715  1.7186
 7853TIP3   OH223511   5.363   7.114   3.535 -0.0438 -0.0382 -0.1217
 7853TIP3    H123512   5.341   7.023   3.519 -0.3615 -0.0594  0.4036
 7853TIP3    H223513   5.387   7.117   3.628 -0.7494  0.5400  0.0522
 7854TIP3   OH223514   3.221   5.730   4.975 -0.2977  0.0387  0.5521
 7854TIP3    H123515   3.219   5.814   4.930  0.0870 -0.7026 -0.8864
 7854TIP3    H223516   3.271   5.746   5.055  1.2620  0.7950 -0.5416
 7855TIP3   OH223517   2.870   6.562   3.820 -0.4059 -0.6375  0.2070
 7855TIP3    H123518   2.842   6.500   3.888 -2.6050 -0.3734 -0.4325
 7855TIP3    H223519   2.909   6.634   3.869  0.5966 -1.7279  1.0465
 7856TIP3   OH223520   2.866   5.987   2.596  0.1693 -0.2711  0.5139
 7856TIP3    H123521   2.805   6.058   2.577  0.1293 -0.0860  1.3077
 7856TIP3    H223522   2.952   6.029   2.599  0.3018 -0.4716 -0.2552
 7857TIP3   OH223523   6.845   1.031   3.317 -0.0522 -1.1309  0.4438
 7857TIP3    H123524   6.817   1.120   3.296 -1.0386 -1.2565  1.2282
 7857TIP3    H223525   6.934   1.042   3.352 -0.9245 -0.2454  2.4256
 7858TIP3   OH223526   4.761   7.250   2.455  0.0460  0.0088 -0.0037
 7858TIP3    H123527   4.750   7.324   2.395 -1.6800  0.1077  0.4134
 7858TIP3    H223528   4.718   7.177   2.411 -1.8345  0.2460  1.4018
 7859TIP3   OH223529   7.469   7.187   5.451  0.2292 -0.3554 -0.0306
 7859TIP3    H123530   7.393   7.130   5.451  0.2367 -0.4092 -1.8067
 7859TIP3    H223531   7.524   7.153   5.379  1.3546  0.4083  0.4504
 7860TIP3   OH223532   2.488   4.723   5.261  0.2428 -0.4553  0.2343
 7860TIP3    H123533   2.527   4.673   5.189 -0.4267 -0.6482  0.0095
 7860TIP3    H223534   2.470   4.658   5.329 -0.6093 -0.5195 -0.0506
 7861TIP3   OH223535   5.202   5.604   5.324 -0.3817  0.1488  0.3325
 7861TIP3    H123536   5.112   5.636   5.322 -0.2407  0.5007 -1.6721
 7861TIP3    H223537   5.200   5.524   5.272  0.6544  0.6916 -0.5519
 7862TIP3   OH223538   5.883   0.650   2.420 -0.0168  0.6121 -0.1556
 7862TIP3    H123539   5.879   0.597   2.500 -0.7594  0.4392 -0.3042
 7862TIP3    H223540   5.859   0.590   2.350 -1.2689  1.2437 -0.2795
 7863TIP3   OH223541   4.151   5.710   5.420 -0.4067 -0.3903  0.1572
 7863TIP3    H123542   4.238   5.674   5.401  0.5931  2.1729 -0.3806
 7863TIP3    H223543   4.100   5.692   5.341 -0.0753 -1.0486  0.0888
 7864TIP3   OH223544   6.677   0.349   4.225 -0.1524 -0.0032 -0.0894
 7864TIP3    H123545   6.685   0.444   4.214 -1.8657  0.0061 -1.5480
 7864TIP3    H223546   6.638   0.338   4.311  1.8828  0.5087  0.9351
 7865TIP3   OH223547   4.610   4.739   3.770  0.3364  0.7499  0.3196
 7865TIP3    H123548   4.701   4.716   3.787 -0.0081  1.1315  2.9135
 7865TIP3    H223549   4.613   4.831   3.742  0.7933  0.5482 -0.3026
 7866TIP3   OH223550   2.589   0.101   3.895 -0.4068  0.2494  0.0039
 7866TIP3    H123551   2.561   0.170   3.955  0.5347  1.6877 -1.1948
 7866TIP3    H223552   2.637   0.039   3.951  0.5169  1.6049  0.7282
 7867TIP3   OH223553   1.776   1.952   4.488 -0.1222  0.6562 -0.6482
 7867TIP3    H123554   1.767   1.873   4.435  1.3677  0.8850 -1.2615
 7867TIP3    H223555   1.705   1.946   4.552 -0.7479 -0.5805 -1.4421
 7868TIP3   OH223556   5.127   6.712   2.199  0.0848  0.0744  0.5374
 7868TIP3    H123557   5.081   6.751   2.273  3.1099  1.1911  1.9472
 7868TIP3    H223558   5.141   6.785   2.139  0.2354 -0.1876  0.2567
 7869TIP3   OH223559   4.739   6.946   1.844 -0.3756 -0.3286  0.0037
 7869TIP3    H123560   4.685   6.867   1.848  0.4598 -0.8871  0.3088
 7869TIP3    H223561   4.683   7.011   1.800  0.0046 -1.9762 -3.0910
 7870TIP3   OH223562   4.729   4.402   1.946  0.3351 -0.4091 -0.7275
 7870TIP3    H123563   4.761   4.491   1.932 -0.3678 -0.0744 -0.1942
 7870TIP3    H223564   4.809   4.349   1.949  0.9928  0.6351  2.1409
 7871TIP3   OH223565   5.568   4.849   2.188  0.5427 -0.8285 -0.3336
 7871TIP3    H123566   5.628   4.848   2.114  0.2974 -0.7011 -0.5333
 7871TIP3    H223567   5.484   4.875   2.151  0.3903 -0.8893 -0.0336
 7872TIP3   OH223568   5.153   6.294   3.165 -0.0042  0.1802 -0.4049
 7872TIP3    H123569   5.064   6.290   3.202 -0.3244  0.0421 -1.1883
 7872TIP3    H223570   5.163   6.213   3.117  1.0145 -0.3649  0.7009
 7873TIP3   OH223571   5.758   4.291   4.606 -0.5725 -0.4302 -0.2072
 7873TIP3    H123572   5.687   4.320   4.549 -1.2903  0.3357  1.0571
 7873TIP3    H223573   5.770   4.362   4.668 -0.1061 -1.4398  0.8866
 7874TIP3   OH223574   6.505   6.928   5.753 -0.4809 -0.1926 -0.4439
 7874TIP3    H123575   6.514   6.956   5.844  1.5078 -0.2470 -0.6056
 7874TIP3    H223576   6.412   6.940   5.733 -0.7703  0.6046  1.3330
 7875TIP3   OH223577   2.403   0.800   4.618 -0.3035 -0.7940  0.0054
 7875TIP3    H123578   2.358   0.883   4.601 -0.8238 -0.6197  2.1017
 7875TIP3    H223579   2.493   0.814   4.587 -0.9869 -0.2567 -1.7909
 7876TIP3   OH223580   5.897   5.519   2.382 -0.1413  0.0334  0.3769
 7876TIP3    H123581   5.822   5.490   2.330  0.0641  0.3091 -0.0708
 7876TIP3    H223582   5.968   5.529   2.319  0.6180 -1.4165  0.9835
 7877TIP3   OH223583   6.481   5.689   1.278 -0.3474 -0.1910 -0.2040
 7877TIP3    H123584   6.494   5.599   1.310  1.4125 -0.4385 -1.5390
 7877TIP3    H223585   6.388   5.707   1.295 -0.5418 -1.9825  0.7724
 7878TIP3   OH223586   6.005   7.282   2.959 -0.1240 -0.3711  0.5340
 7878TIP3    H123587   6.078   7.306   2.901 -0.3521 -1.0078 -0.0201
 7878TIP3    H223588   5.963   7.366   2.981  0.7982  0.0009  0.8900
 7879TIP3   OH223589   6.173   6.304   2.167 -0.3332 -0.4242  0.3980
 7879TIP3    H123590   6.153   6.295   2.260 -1.4200 -2.7995 -0.0168
 7879TIP3    H223591   6.243   6.369   2.163  0.6245 -1.2402  2.9714
 7880TIP3   OH223592   0.157   1.130   3.207  0.9239  0.2187  0.0940
 7880TIP3    H123593   0.157   1.129   3.111  1.0128 -2.8812  0.0969
 7880TIP3    H223594   0.196   1.214   3.230  2.1146  0.4355 -2.5767
 7881TIP3   OH223595   5.695   5.233   4.621  0.0093 -0.1810  0.1960
 7881TIP3    H123596   5.771   5.289   4.634  1.0085 -1.2208 -1.0750
 7881TIP3    H223597   5.666   5.252   4.531  0.1173 -1.4055 -0.1044
 7882TIP3   OH223598   5.409   6.107   3.052  0.6393 -1.0046 -0.4148
 7882TIP3    H123599   5.355   6.028   3.056 -1.1411  0.2169  0.4807
 7882TIP3    H223600   5.403   6.136   2.961 -1.9532  0.2508  0.1055
 7883TIP3   OH223601   7.679   0.239   2.903  0.4252 -0.1152 -0.3267
 7883TIP3    H123602   7.754   0.296   2.887 -0.0157  1.0337  1.5952
 7883TIP3    H223603   7.718   0.153   2.919  1.2635  0.2327 -0.4375
 7884TIP3   OH223604   6.527   4.553   3.575  0.2440 -0.5568  0.3442
 7884TIP3    H123605   6.617   4.522   3.581  0.6084  0.1189 -1.3322
 7884TIP3    H223606   6.500   4.530   3.486 -1.5072 -1.4524  1.0988
 7885TIP3   OH223607   3.327   3.194   0.259 -0.1949 -0.2814  0.4787
 7885TIP3    H123608   3.303   3.157   0.174 -0.7873 -1.1923  1.0264
 7885TIP3    H223609   3.358   3.282   0.239 -2.1633  0.2372 -0.4968
 7886TIP3   OH223610   3.898   6.508   3.841  0.2171  0.1395 -0.4116
 7886TIP3    H123611   3.912   6.469   3.927  0.7107 -1.9488 -1.4192
 7886TIP3    H223612   3.899   6.602   3.858 -0.7095 -0.2383  2.0226
 7887TIP3   OH223613   4.667   6.371   2.365 -0.0232  0.2212  1.7369
 7887TIP3    H123614   4.720   6.449   2.350  2.3585 -2.0077 -2.3549
 7887TIP3    H223615   4.593   6.380   2.305  1.2880 -1.5057 -0.1961
 7888TIP3   OH223616   5.135   6.960   2.031  0.7674 -0.3526  0.1061
 7888TIP3    H123617   5.207   6.963   1.968  0.4038  1.7134 -0.2224
 7888TIP3    H223618   5.056   6.975   1.978  0.3362  0.0108  0.8514
 7889TIP3   OH223619   1.670   6.972   1.075 -0.4407  0.2588  0.5596
 7889TIP3    H123620   1.671   7.014   1.161 -1.0843 -0.9738  1.1706
 7889TIP3    H223621   1.659   6.879   1.093 -0.2655 -0.0468 -0.8482
 7890TIP3   OH223622   5.341   4.923   4.781  0.1201  0.0832 -0.1755
 7890TIP3    H123623   5.370   5.002   4.736  1.4885 -0.8770 -0.9852
 7890TIP3    H223624   5.343   4.947   4.874 -1.0698  1.5099 -0.4868
 7891TIP3   OH223625   5.697   5.618   1.001  0.1151  0.5715  0.0718
 7891TIP3    H123626   5.657   5.684   0.944  0.2565  1.5064  1.0302
 7891TIP3    H223627   5.768   5.580   0.949 -0.5040  0.5847 -0.7858
 7892TIP3   OH223628   1.016   1.673   3.252  0.3663 -0.3794  0.2413
 7892TIP3    H123629   1.018   1.616   3.329 -0.8289 -1.1459 -0.2863
 7892TIP3    H223630   0.982   1.618   3.182 -3.0991  1.6357  0.2476
 7893TIP3   OH223631   0.706   0.294   4.317 -0.3207  0.2015 -0.4635
 7893TIP3    H123632   0.625   0.268   4.360 -0.6394  0.4697 -0.8995
 7893TIP3    H223633   0.775   0.265   4.377 -0.6311 -2.0558 -1.1694
 7894TIP3   OH223634   6.220   5.856   2.282  0.0191 -0.1807 -0.0394
 7894TIP3    H123635   6.259   5.940   2.258 -0.0329 -0.1639 -0.0662
 7894TIP3    H223636   6.158   5.837   2.212 -1.1713  0.5636  0.7835
 7895TIP3   OH223637   5.768   5.690   3.560  0.4845 -0.3222 -0.0489
 7895TIP3    H123638   5.750   5.613   3.614  0.2316 -0.5416 -0.4447
 7895TIP3    H223639   5.863   5.701   3.564  0.2698  0.9903  2.2535
 7896TIP3   OH223640   0.414   7.215   3.965  0.6831 -0.5671 -0.3385
 7896TIP3    H123641   0.508   7.213   3.951  0.7172  2.2822 -0.7852
 7896TIP3    H223642   0.392   7.127   3.995  3.0016 -2.1449 -3.1160
 7897TIP3   OH223643   0.530   0.696   3.214  0.1186  0.2843 -0.1309
 7897TIP3    H123644   0.577   0.715   3.133  0.6134  0.4133  0.1801
 7897TIP3    H223645   0.469   0.769   3.224  0.6712  0.7274  0.0652
 7898TIP3   OH223646   6.510   0.174   3.718 -0.0097  0.0080  0.7583
 7898TIP3    H123647   6.572   0.192   3.788  0.9175 -1.2095  0.2688
 7898TIP3    H223648   6.490   0.080   3.727  0.7821 -0.3633 -1.1301
 7899TIP3   OH223649   5.465   4.479   4.200 -0.0214 -0.3890  0.4865
 7899TIP3    H123650   5.481   4.564   4.159  1.0854  0.3212  2.3061
 7899TIP3    H223651   5.370   4.469   4.199 -0.2493  1.3885  1.2075
 7900TIP3   OH223652   7.602   2.849   2.904  0.4167  0.6755  0.4904
 7900TIP3    H123653   7.626   2.934   2.940  1.4902 -0.0806  1.5829
 7900TIP3    H223654   7.685   2.804   2.891 -0.2117 -0.7805  1.3942
 7901TIP3   OH223655   5.635   5.647   5.478 -0.3125 -0.2325  0.0680
 7901TIP3    H123656   5.695   5.630   5.550 -1.1381  0.3800  0.9205
 7901TIP3    H223657   5.689   5.689   5.411  0.1998  0.3474  0.8423
 7902TIP3   OH223658   7.472   7.374   3.649 -0.2453 -0.6051  0.8855
 7902TIP3    H123659   7.391   7.393   3.602 -1.2941 -2.4969  1.8847
 7902TIP3    H223660   7.452   7.389   3.741  1.6377  2.5068  0.8810
 7903TIP3   OH223661   1.966   1.986   5.302  0.2568  0.1019 -0.1017
 7903TIP3    H123662   2.008   2.044   5.237 -1.6838 -1.3459 -2.7727
 7903TIP3    H223663   1.981   1.898   5.268 -0.3743 -0.7206  1.7241
 7904TIP3   OH223664   6.041   5.249   4.914  0.8018 -0.2477 -0.4264
 7904TIP3    H123665   6.081   5.217   4.832  0.2696  0.1346 -0.8356
 7904TIP3    H223666   6.071   5.187   4.980  0.2929 -1.2403 -1.1083
 7905TIP3   OH223667   4.499   5.535   3.994  0.1041  0.0224 -0.5194
 7905TIP3    H123668   4.573   5.519   3.935  0.9949  1.6286  0.1288
 7905TIP3    H223669   4.445   5.456   3.987  1.1282 -0.5585 -2.1061
 7906TIP3   OH223670   6.827   6.931   2.115  0.0412 -0.5577 -1.0171
 7906TIP3    H123671   6.812   6.845   2.155 -3.5256 -0.1073 -1.2850
 7906TIP3    H223672   6.784   6.993   2.173  0.3480  0.7939 -2.2047
 7907TIP3   OH223673   0.381   0.324   3.459  0.6262 -0.1520 -0.9345
 7907TIP3    H123674   0.448   0.346   3.524 -0.5110  0.6967 -0.0494
 7907TIP3    H223675   0.332   0.251   3.499  0.0242  0.2697 -0.9035
 7908TIP3   OH223676   7.739   3.968   2.103 -0.2097 -0.3222  0.0427
 7908TIP3    H123677   7.716   3.881   2.134 -1.2845  0.7783  2.5507
 7908TIP3    H223678   7.658   4.003   2.065 -0.1941  0.1158  0.4004
 7909TIP3   OH223679   5.440   5.421   2.862  0.0793 -0.0635 -0.9393
 7909TIP3    H123680   5.365   5.382   2.908  1.1186 -0.8955  0.0637
 7909TIP3    H223681   5.470   5.490   2.920  1.1731 -0.8814 -0.5240
 7910TIP3   OH223682   0.354   0.486   2.730 -0.3163 -0.1474  0.6332
 7910TIP3    H123683   0.386   0.545   2.663 -0.2099 -0.7114  0.1805
 7910TIP3    H223684   0.371   0.531   2.813 -1.3164  0.9591  0.2398
 7911TIP3   OH223685   5.350   4.982   3.149  0.1366  0.6358  0.2196
 7911TIP3    H123686   5.333   4.889   3.160  2.0388  0.5633  2.7907
 7911TIP3    H223687   5.288   5.025   3.207  0.1190  0.9403 -0.0198
 7912TIP3   OH223688   4.676   7.167   3.293  0.3083 -0.0877 -0.6847
 7912TIP3    H123689   4.649   7.259   3.295  0.7348  0.0406 -0.6992
 7912TIP3    H223690   4.614   7.123   3.351  0.2628  0.2560 -0.4675
 7913TIP3   OH223691   0.618   0.996   3.164  0.1998  0.1268  0.3265
 7913TIP3    H123692   0.582   1.085   3.162  0.5979  0.2768 -1.0456
 7913TIP3    H223693   0.576   0.952   3.090 -0.0417 -0.8498  1.0385
 7914TIP3   OH223694   2.918   6.206   2.859  0.1105  0.1209 -0.2240
 7914TIP3    H123695   2.942   6.262   2.932 -0.1361  0.2386 -0.2325
 7914TIP3    H223696   2.994   6.148   2.847 -0.0290 -0.2067  0.4220
 7915TIP3   OH223697   5.427   6.182   2.802  0.9243  0.7860 -0.2830
 7915TIP3    H123698   5.408   6.100   2.755  2.6484 -0.8332  1.7524
 7915TIP3    H223699   5.515   6.206   2.772  1.4194  0.5534  0.9659
 7916TIP3   OH223700   6.658   7.307   4.078 -0.4962  0.0708  0.2677
 7916TIP3    H123701   6.725   7.288   4.013 -0.3178  0.9175  0.1926
 7916TIP3    H223702   6.581   7.259   4.048 -0.1843 -0.1717 -0.1432
 7917TIP3   OH223703   0.523  -0.030   2.722  0.2966  0.1866  0.3506
 7917TIP3    H123704   0.579  -0.008   2.796 -0.1615 -0.9445  1.0604
 7917TIP3    H223705   0.467   0.046   2.710  0.9128  0.6892  0.6505
 7918TIP3   OH223706   7.752   0.732   3.410  0.1163  0.8149  0.5511
 7918TIP3    H123707   7.834   0.689   3.431 -0.1402  0.3016  0.5252
 7918TIP3    H223708   7.777   0.814   3.367  0.6105 -0.2097 -1.1643
 7919TIP3   OH223709   1.401   6.754   4.744  0.2013 -0.1567  0.3284
 7919TIP3    H123710   1.363   6.822   4.799  1.1278 -0.0837  0.8813
 7919TIP3    H223711   1.375   6.672   4.786 -1.1104 -0.1603 -0.4666
 7920TIP3   OH223712   3.834   4.811   4.360 -0.1923  0.6826  0.2027
 7920TIP3    H123713   3.795   4.814   4.447 -1.6263 -0.3768 -0.3867
 7920TIP3    H223714   3.918   4.766   4.372 -0.7092 -0.0969  0.9178
 7921TIP3   OH223715   5.571   7.129   3.179 -0.0838  0.2187  0.8174
 7921TIP3    H123716   5.653   7.102   3.219 -0.4441 -2.6158 -0.2140
 7921TIP3    H223717   5.594   7.145   3.087 -0.1889  2.0113  1.0896
 7922TIP3   OH223718   6.251   6.089   5.142  0.1157  0.1120 -0.4245
 7922TIP3    H123719   6.207   6.157   5.090 -1.2878  0.6316  1.3584
 7922TIP3    H223720   6.338   6.125   5.160 -0.2359  0.9912 -0.4247
 7923TIP3   OH223721   6.647   6.055   3.096  0.1416 -0.3410 -0.0632
 7923TIP3    H123722   6.622   5.968   3.126 -0.8708 -0.2761 -0.6653
 7923TIP3    H223723   6.563   6.098   3.078  0.6409  0.6609 -0.0310
 7924TIP3   OH223724   0.453   0.142   3.862  0.0211  0.2972 -0.2420
 7924TIP3    H123725   0.387   0.105   3.921 -2.5287  2.1248 -1.8385
 7924TIP3    H223726   0.514   0.187   3.920 -0.0072 -1.5114  1.2839
 7925TIP3   OH223727   5.617   2.986   2.230  0.3054 -0.9056  0.3279
 7925TIP3    H123728   5.663   2.902   2.234 -2.3912 -2.3213  2.9199
 7925TIP3    H223729   5.656   3.037   2.301  0.2047 -0.8615  0.3508
 7926TIP3   OH223730   4.905   6.699   4.213  0.1748  0.2876  0.1445
 7926TIP3    H123731   4.836   6.664   4.156 -1.3663  0.7478  1.6759
 7926TIP3    H223732   4.976   6.720   4.154 -0.6992 -0.9329 -1.3983
 7927TIP3   OH223733   4.942   6.192   5.690  0.0343 -0.1665 -0.0266
 7927TIP3    H123734   4.940   6.288   5.682  3.3977 -0.0542  0.0156
 7927TIP3    H223735   4.955   6.176   5.783 -0.4704 -0.7029 -0.0402
 7928TIP3   OH223736   6.759   5.790   0.184 -0.0600  0.8787 -0.1121
 7928TIP3    H123737   6.783   5.811   0.094  0.7573  0.5691  0.0346
 7928TIP3    H223738   6.826   5.832   0.237 -0.3926  0.8365  0.3374
 7929TIP3   OH223739   1.768   1.056   4.009  0.8302 -0.2695 -0.2135
 7929TIP3    H123740   1.808   1.056   3.921  1.6886 -1.4014  0.1600
 7929TIP3    H223741   1.816   1.123   4.057  1.8255 -1.1354  0.0210
 7930TIP3   OH223742   1.328   0.073   4.226  0.6905 -0.3747  0.2049
 7930TIP3    H123743   1.394   0.117   4.280  1.6260 -0.7723 -0.6078
 7930TIP3    H223744   1.374  -0.003   4.189 -0.3299 -0.8732 -0.0587
 7931TIP3   OH223745   0.218  -0.003   2.849  0.1608 -0.0901  0.2725
 7931TIP3    H123746   0.261   0.072   2.808 -1.7704  1.0157  0.1665
 7931TIP3    H223747   0.257  -0.009   2.936  1.5058  0.0075 -0.3250
 7932TIP3   OH223748   5.231   5.466   3.658 -0.2486  0.4355 -0.7222
 7932TIP3    H123749   5.189   5.492   3.740  0.5586  0.5396 -0.3380
 7932TIP3    H223750   5.325   5.470   3.677 -0.0559  0.6666 -1.7137
 7933TIP3   OH223751   4.700   4.642   3.009 -0.3627  0.1615  0.1843
 7933TIP3    H123752   4.668   4.662   3.097 -0.7827  1.8536 -0.3376
 7933TIP3    H223753   4.788   4.681   3.006 -0.2100 -0.1898 -0.0439
 7934TIP3   OH223754   3.738   4.223   1.405 -0.2866 -0.4262 -0.1113
 7934TIP3    H123755   3.712   4.132   1.395 -1.6683 -0.0718  0.1415
 7934TIP3    H223756   3.815   4.220   1.461 -0.6694 -1.4063  0.3882
 7935TIP3   OH223757   7.311   6.032   2.269  0.3128  0.5061  0.1898
 7935TIP3    H123758   7.234   5.976   2.258  0.2164  0.5874  0.4550
 7935TIP3    H223759   7.335   6.058   2.180 -0.6545  1.4154  0.1851
 7936TIP3   OH223760   5.110   4.822   2.603  0.1319 -0.6169  0.4613
 7936TIP3    H123761   5.096   4.729   2.590  0.7911 -0.8791  1.5297
 7936TIP3    H223762   5.025   4.862   2.584  0.1394 -1.3033 -1.0997
 7937TIP3   OH223763   7.743   4.583   2.833  0.0067 -0.1996 -0.2572
 7937TIP3    H123764   7.665   4.534   2.857 -0.1616  0.1074 -0.1699
 7937TIP3    H223765   7.721   4.674   2.853  1.1695 -0.3429  1.8633
 7938TIP3   OH223766   5.584   5.315   1.934  0.1165  0.3418 -0.0797
 7938TIP3    H123767   5.531   5.304   1.854  0.0230 -1.0119  0.1565
 7938TIP3    H223768   5.548   5.394   1.975 -0.4789  0.5032 -0.8869
 7939TIP3   OH223769   5.544   6.792   3.148 -0.8385 -0.3096  0.3588
 7939TIP3    H123770   5.465   6.812   3.098 -1.4176 -2.2531  0.4636
 7939TIP3    H223771   5.615   6.832   3.098 -1.4041 -2.1801 -2.0518
 7940TIP3   OH223772   5.316   4.859   1.320  0.3219 -0.2279  0.2937
 7940TIP3    H123773   5.387   4.921   1.341  1.0014 -1.2690  1.1163
 7940TIP3    H223774   5.240   4.914   1.304  1.6435  1.0229 -2.0430
 7941TIP3   OH223775   0.361   1.295   2.559  0.1271  0.3787 -0.1460
 7941TIP3    H123776   0.397   1.373   2.601  1.1886 -0.2953  0.2200
 7941TIP3    H223777   0.346   1.234   2.631 -0.2873  0.0892 -0.4776
 7942TIP3   OH223778   7.654   1.262   2.788 -0.1036  0.0009  0.2212
 7942TIP3    H123779   7.698   1.279   2.705  2.3537 -0.0558  1.4740
 7942TIP3    H223780   7.629   1.348   2.821 -1.7979 -0.0303 -0.9266
 7943TIP3   OH223781   6.703   6.462   2.449 -0.5088 -0.1118  0.6120
 7943TIP3    H123782   6.736   6.421   2.529 -0.1104  0.7281  0.8883
 7943TIP3    H223783   6.643   6.531   2.480  0.7074  1.1347  0.2438
 7944TIP3   OH223784   4.844   5.480   4.301 -0.1050  0.0066  0.0368
 7944TIP3    H123785   4.804   5.398   4.330 -1.6561  0.6304 -0.3109
 7944TIP3    H223786   4.909   5.499   4.369  0.5473 -1.6952 -0.0754
 7945TIP3   OH223787   4.992   6.012   2.071 -0.0388  0.1460  0.1814
 7945TIP3    H123788   4.950   6.016   2.157 -1.8988  2.6623 -0.7673
 7945TIP3    H223789   5.052   6.087   2.070  0.1315  0.0035 -0.5981
 7946TIP3   OH223790   4.687   4.985   3.364  0.2099 -0.1480  0.1558
 7946TIP3    H123791   4.641   4.902   3.350 -1.1601  0.9436 -2.0882
 7946TIP3    H223792   4.638   5.027   3.435  1.2090 -1.4298  1.6477
 7947TIP3   OH223793   0.585   6.472   3.409  0.2064 -0.1872  0.4887
 7947TIP3    H123794   0.596   6.559   3.369  2.9080 -0.9012 -0.4578
 7947TIP3    H223795   0.528   6.487   3.484  0.6724  2.4290  0.3737
 7948TIP3   OH223796   5.955   7.413   1.482  0.5408 -0.2409  0.0314
 7948TIP3    H123797   5.892   7.473   1.522 -0.0678 -1.6686  1.2705
 7948TIP3    H223798   6.039   7.437   1.521 -0.0160 -1.4771  2.0560
 7949TIP3   OH223799   7.080   7.038   3.810 -0.2039 -0.6234  0.3376
 7949TIP3    H123800   7.088   7.062   3.718  1.5624 -0.5082  0.5154
 7949TIP3    H223801   7.167   7.009   3.835 -1.0362 -2.1194  1.5747
 7950TIP3   OH223802   7.348   5.406   2.271  0.2399 -0.0550 -0.1188
 7950TIP3    H123803   7.346   5.501   2.259 -3.0868 -0.1506 -0.6619
 7950TIP3    H223804   7.383   5.393   2.359 -0.9308  1.7372  0.6232
 7951TIP3   OH223805   6.303   5.525   3.545 -0.0908  0.2610  0.0274
 7951TIP3    H123806   6.258   5.458   3.597 -0.6445 -1.0794 -2.1177
 7951TIP3    H223807   6.353   5.575   3.609 -0.8798 -1.2440  1.8719
 7952TIP3   OH223808   4.546   4.369   1.735 -0.2708  0.0027 -0.0758
 7952TIP3    H123809   4.597   4.402   1.809 -1.5810  0.8535  0.4747
 7952TIP3    H223810   4.559   4.434   1.666  0.8339 -0.7162 -0.5584
 7953TIP3   OH223811   0.851   0.496   3.118  0.3818  0.1859 -0.1396
 7953TIP3    H123812   0.879   0.415   3.162 -0.4388 -0.6997 -1.2076
 7953TIP3    H223813   0.841   0.559   3.189 -1.0194 -1.2436  0.9898
 7954TIP3   OH223814   2.685   5.472   1.510  0.5308  0.0071  0.8058
 7954TIP3    H123815   2.753   5.534   1.537 -0.0763  0.6481  0.8796
 7954TIP3    H223816   2.663   5.498   1.420  1.2942 -1.0135  0.3088
 7955TIP3   OH223817   1.212   1.088   3.428 -0.7607  0.3283 -0.3162
 7955TIP3    H123818   1.208   1.107   3.522 -2.2582  0.2627 -0.3645
 7955TIP3    H223819   1.296   1.124   3.400  0.1873 -0.5905  1.2566
 7956TIP3   OH223820   7.513   5.920   4.049 -0.6919  0.3425  0.2780
 7956TIP3    H123821   7.548   5.906   3.961 -0.4986 -0.1509  0.4264
 7956TIP3    H223822   7.590   5.939   4.103 -0.5864 -1.0913  0.6729
 7957TIP3   OH223823   2.932   1.567   1.926 -0.2647  0.1356 -0.4006
 7957TIP3    H123824   2.878   1.617   1.986 -0.1707 -1.4290  1.0183
 7957TIP3    H223825   2.875   1.498   1.893  0.0026  0.3149 -1.2703
 7958TIP3   OH223826   4.691   5.623   2.189 -0.1263  0.1529 -0.0444
 7958TIP3    H123827   4.741   5.603   2.110 -1.4777  0.2677 -0.9391
 7958TIP3    H223828   4.688   5.719   2.193  2.1310  0.2020  1.5660
 7959TIP3   OH223829   7.180   4.375   2.966  0.1134 -0.3939  0.6034
 7959TIP3    H123830   7.243   4.303   2.963 -0.9551 -1.4147  2.2143
 7959TIP3    H223831   7.181   4.410   2.877  2.9366 -0.3848  0.5778
 7960TIP3   OH223832   5.663   6.771   3.405 -0.0117 -0.1210  0.1737
 7960TIP3    H123833   5.660   6.865   3.422  1.7110  0.2488 -1.3720
 7960TIP3    H223834   5.611   6.760   3.325  1.7708 -0.0929 -1.0335
 7961TIP3   OH223835   4.350   3.810   1.490 -0.3891 -0.0421  0.0827
 7961TIP3    H123836   4.264   3.771   1.474 -0.3603  0.2588 -0.7996
 7961TIP3    H223837   4.395   3.804   1.406  0.2180  0.3946  0.3775
 7962TIP3   OH223838   3.338   4.710   1.795 -0.4176  0.3488  0.1472
 7962TIP3    H123839   3.279   4.783   1.777  1.6270  2.3589  1.2950
 7962TIP3    H223840   3.294   4.660   1.864 -1.2298  1.2702  0.3144
 7963TIP3   OH223841   0.069   1.330   4.243 -0.1724  0.0978  0.0829
 7963TIP3    H123842  -0.016   1.301   4.212 -0.1754  1.5628 -1.3306
 7963TIP3    H223843   0.050   1.377   4.324 -0.7947  0.9861 -0.5687
 7964TIP3   OH223844   7.852   1.468   1.442 -0.1547 -0.2970 -0.0327
 7964TIP3    H123845   7.859   1.551   1.489 -1.6899  0.5466 -1.2238
 7964TIP3    H223846   7.888   1.486   1.355 -0.2846 -0.9486 -0.2287
 7965TIP3   OH223847   7.390   0.413   4.285 -0.1601  0.2886  0.2679
 7965TIP3    H123848   7.396   0.346   4.216  0.9374  0.3363  0.3193
 7965TIP3    H223849   7.371   0.364   4.365  1.1375 -0.0087  0.3941
 7966TIP3   OH223850   6.208   5.839   1.276 -0.1619  0.4308  0.4611
 7966TIP3    H123851   6.190   5.898   1.203  1.3277 -0.4941 -0.6832
 7966TIP3    H223852   6.122   5.805   1.300 -0.9167  2.2634  0.4636
 7967TIP3   OH223853   5.808   5.440   5.850  0.2112 -0.1065  0.2117
 7967TIP3    H123854   5.862   5.480   5.917 -2.0216  0.9188  1.4582
 7967TIP3    H223855   5.814   5.500   5.775 -1.4904  1.5324  1.3587
 7968TIP3   OH223856   5.854   7.343   3.927  0.0586 -0.5575 -0.3706
 7968TIP3    H123857   5.770   7.383   3.953 -0.3405 -1.0632 -0.8575
 7968TIP3    H223858   5.874   7.281   3.997  1.4273  1.5279  1.1356
 7969TIP3   OH223859   1.198   5.567   3.635 -0.0138  0.0696 -0.0639
 7969TIP3    H123860   1.139   5.577   3.561  0.3971 -0.6930 -0.5024
 7969TIP3    H223861   1.248   5.488   3.615 -0.8404 -0.9329  1.6555
 7970TIP3   OH223862   5.909   6.091   3.172 -0.2341  0.1386 -0.8569
 7970TIP3    H123863   5.943   6.072   3.259 -1.4382 -0.0989 -0.4442
 7970TIP3    H223864   5.817   6.065   3.175 -0.5167  0.9868 -1.9118
 7971TIP3   OH223865   6.007   4.913   4.528 -0.1645 -0.3012 -0.3293
 7971TIP3    H123866   6.015   4.820   4.508 -0.0116 -0.1075 -1.1881
 7971TIP3    H223867   5.914   4.925   4.547 -0.0909 -0.7304  0.3166
 7972TIP3   OH223868   4.805   5.414   3.528 -0.1615  0.0254 -0.3495
 7972TIP3    H123869   4.753   5.396   3.606 -0.1614  1.8521  0.0907
 7972TIP3    H223870   4.896   5.403   3.555 -0.1032  1.7687  0.2409
 7973TIP3   OH223871   6.117   6.097   4.125  0.3686  0.7458  0.1338
 7973TIP3    H123872   6.183   6.072   4.060 -0.5617  2.5792 -1.5965
 7973TIP3    H223873   6.035   6.062   4.090 -0.2189  2.1913  0.0271
 7974TIP3   OH223874   5.951   6.727   1.532 -0.5735  0.0125  0.3066
 7974TIP3    H123875   5.901   6.801   1.498 -0.0889  0.0322 -0.3668
 7974TIP3    H223876   5.933   6.655   1.471 -0.4635 -0.2233  0.5493
 7975TIP3   OH223877   6.178   5.828   5.074  0.5844  0.3711  0.1231
 7975TIP3    H123878   6.212   5.913   5.101  2.3738 -0.5702  0.9247
 7975TIP3    H223879   6.170   5.778   5.155  1.1673 -0.7859 -0.5154
 7976TIP3   OH223880   5.543   5.585   3.061  0.3020  0.1897  0.7698
 7976TIP3    H123881   5.606   5.562   3.129 -0.0259  0.2435  1.0919
 7976TIP3    H223882   5.585   5.657   3.013  0.6237  0.0125  0.7830
 7977TIP3   OH223883   6.082   5.745   3.280 -0.1117  0.0531 -0.1787
 7977TIP3    H123884   6.009   5.806   3.278 -0.0147  0.2101  0.9957
 7977TIP3    H223885   6.101   5.732   3.373 -0.0566 -1.6881 -0.4176
 7978TIP3   OH223886   6.422   6.092   4.511  0.1675 -0.1299  0.1085
 7978TIP3    H123887   6.383   6.154   4.449  0.8838 -1.1361 -1.3664
 7978TIP3    H223888   6.424   6.009   4.464  0.1004 -1.0675  1.7317
 7979TIP3   OH223889   3.163   4.517   2.940  0.3703 -0.3251  0.0375
 7979TIP3    H123890   3.070   4.500   2.926  0.7725 -4.4223  1.4794
 7979TIP3    H223891   3.168   4.549   3.030  0.2368  1.4072 -0.5575
 7980TIP3   OH223892   6.521   6.209   3.597 -0.2338 -0.0827  0.1748
 7980TIP3    H123893   6.472   6.288   3.623  0.5411  0.6131 -0.4479
 7980TIP3    H223894   6.611   6.240   3.585  0.0661 -1.0632 -0.1026
 7981TIP3   OH223895   6.476   5.667   2.859  0.1807  0.5321 -0.5290
 7981TIP3    H123896   6.382   5.672   2.843 -0.0452  0.0798  0.6104
 7981TIP3    H223897   6.511   5.616   2.786 -0.9055 -2.0493  0.6958
 7982TIP3   OH223898   0.306   2.263   2.464 -0.3298 -0.3825  0.1167
 7982TIP3    H123899   0.396   2.283   2.490  0.1279 -1.7097 -0.3919
 7982TIP3    H223900   0.253   2.333   2.503  0.8621  0.1237  0.8423
 7983TIP3   OH223901   5.877   3.939   2.916  0.6048 -0.0714  0.5109
 7983TIP3    H123902   5.838   3.859   2.952 -0.2526 -0.1877 -0.6362
 7983TIP3    H223903   5.966   3.912   2.889 -0.5714 -1.3797 -2.3254
 7984TIP3   OH223904   7.085   6.837   2.727  0.4354  0.0419 -0.5720
 7984TIP3    H123905   7.086   6.743   2.746  1.1243  0.0236 -0.6650
 7984TIP3    H223906   7.157   6.849   2.664  1.3077  0.8501  0.5487
 7985TIP3   OH223907   7.037   0.794   2.006  0.4031 -0.3992  0.2179
 7985TIP3    H123908   6.960   0.827   2.052  1.7384 -0.0103  2.2441
 7985TIP3    H223909   7.092   0.871   1.994  1.2982 -0.9988  0.4510
 7986TIP3   OH223910   5.075   5.896   2.770  0.5562 -0.3717 -0.3470
 7986TIP3    H123911   5.000   5.846   2.737 -0.5466  0.1526  1.2873
 7986TIP3    H223912   5.139   5.829   2.797 -0.1157 -0.8638  0.0374
 7987TIP3   OH223913   2.318   0.321   3.520 -0.5456 -0.5063  0.1846
 7987TIP3    H123914   2.356   0.244   3.562  0.2877  0.1795  0.7289
 7987TIP3    H223915   2.392   0.362   3.476 -1.2691 -0.7942 -1.3163
 7988TIP3   OH223916   6.241   4.789   3.096 -0.0288 -0.5774 -0.3968
 7988TIP3    H123917   6.294   4.710   3.096  1.5495  0.4553 -1.2507
 7988TIP3    H223918   6.260   4.832   3.013  3.3663  3.4329  2.2374
 7989TIP3   OH223919   2.681   6.139   2.151  0.0476  0.0385 -0.5959
 7989TIP3    H123920   2.743   6.099   2.090  0.9161  0.5226 -0.0495
 7989TIP3    H223921   2.662   6.070   2.215 -0.1080 -0.1603 -0.8541
 7990TIP3   OH223922   5.340   6.795   5.975  0.9372  0.4561 -0.4441
 7990TIP3    H123923   5.245   6.784   5.980  0.8984  0.9965  0.0594
 7990TIP3    H223924   5.352   6.879   5.930  1.2139 -0.9402 -3.0576
 7991TIP3   OH223925   6.344   6.058   2.147  0.4854 -0.4143  0.0524
 7991TIP3    H123926   6.432   6.048   2.110 -0.4685 -0.8138 -2.1955
 7991TIP3    H223927   6.289   6.083   2.072 -1.1358  0.7789  1.6147
 7992TIP3   OH223928   0.355   0.940   4.476  0.5394 -0.7643 -0.1255
 7992TIP3    H123929   0.370   0.877   4.547 -0.2155  1.0207  1.6902
 7992TIP3    H223930   0.436   0.990   4.471  0.7280 -1.1404 -0.7809
 7993TIP3   OH223931   4.032   5.267   2.945 -0.4237  0.2148  0.1565
 7993TIP3    H123932   4.093   5.326   2.900 -0.2768 -0.6459 -0.7816
 7993TIP3    H223933   4.033   5.187   2.894  0.1227 -0.9775  1.9729
 7994TIP3   OH223934   1.201   1.159   3.699  0.3653  0.2336 -0.2532
 7994TIP3    H123935   1.205   1.244   3.743 -0.7246  0.1744 -0.0149
 7994TIP3    H223936   1.285   1.118   3.716  0.6690  1.0242  0.1342
 7995TIP3   OH223937   5.144   4.333   2.538  0.5177 -0.3943  0.2087
 7995TIP3    H123938   5.137   4.421   2.575 -2.1088 -0.0154 -1.0452
 7995TIP3    H223939   5.085   4.280   2.591  2.6252 -1.5984  1.4045
 7996TIP3   OH223940   5.134   5.030   4.239  0.2115 -0.4481  0.2356
 7996TIP3    H123941   5.043   5.059   4.243  0.2705  0.0497 -1.4173
 7996TIP3    H223942   5.131   4.948   4.189  0.4686 -1.3898  1.7480
 7997TIP3   OH223943   5.592   6.284   3.674  0.2432 -0.2493  0.4328
 7997TIP3    H123944   5.512   6.259   3.627 -0.4922  1.6572  0.6664
 7997TIP3    H223945   5.618   6.367   3.636  1.3392 -0.1557  1.3466
 7998TIP3   OH223946   0.388   5.085   4.544  0.3714 -0.0388 -0.0409
 7998TIP3    H123947   0.444   5.148   4.499  1.6197 -0.3012  1.0801
 7998TIP3    H223948   0.331   5.138   4.599  0.7347  0.1715  0.1395
 7999TIP3   OH223949   4.616   1.533   1.336 -0.2785 -0.6029 -0.3797
 7999TIP3    H123950   4.622   1.629   1.336 -0.8497 -0.5545 -1.8800
 7999TIP3    H223951   4.664   1.506   1.414  0.7642  0.8608 -0.4933
 8000TIP3   OH223952   7.527   1.501   3.250 -0.0463 -0.2239  0.1720
 8000TIP3    H123953   7.600   1.507   3.312 -0.2381  2.2545  0.1977
 8000TIP3    H223954   7.451   1.479   3.304  0.0529  0.5280  0.6229
 8001TIP3   OH223955   5.980   5.276   2.478  0.3266 -0.0758  0.6972
 8001TIP3    H123956   5.907   5.221   2.507 -1.1924  0.7308 -1.4285
 8001TIP3    H223957   5.947   5.365   2.484  0.7969  0.2482 -1.0966
 8002TIP3   OH223958   5.375   3.575   2.098  0.1485  0.1367 -0.1709
 8002TIP3    H123959   5.464   3.540   2.090  1.5812  3.3752  0.5363
 8002TIP3    H223960   5.337   3.527   2.172  1.5807 -0.7307  0.0289
 8003TIP3   OH223961   0.363   0.387   4.366  0.0570  0.6549 -0.0297
 8003TIP3    H123962   0.291   0.447   4.383  1.3505  2.3460 -0.4691
 8003TIP3    H223963   0.327   0.323   4.305 -1.7203  0.1715  1.4637
 8004TIP3   OH223964   1.050   0.655   4.561 -0.3438  0.0373 -0.1854
 8004TIP3    H123965   1.122   0.597   4.537 -2.0319 -2.0171 -0.3147
 8004TIP3    H223966   1.089   0.716   4.624  1.5231 -0.9980 -0.3138
 8005TIP3   OH223967   0.115   0.148   3.253 -0.5391  0.4405 -0.0526
 8005TIP3    H123968   0.137   0.087   3.183  0.8529  0.7864  0.0748
 8005TIP3    H223969   0.135   0.100   3.334 -2.2725 -0.0102  0.1257
 8006TIP3   OH223970   6.923   4.295   3.441 -0.3285  0.5053 -0.1852
 8006TIP3    H123971   6.970   4.376   3.458 -1.7814  1.3728 -0.1657
 8006TIP3    H223972   6.925   4.284   3.346 -0.5033  0.8022 -0.2230
 8007TIP3   OH223973   5.452   7.430   4.726 -0.1246 -0.1570  0.1677
 8007TIP3    H123974   5.464   7.511   4.774  0.8938  0.1920 -0.6376
 8007TIP3    H223975   5.365   7.398   4.751 -0.9576  1.7047 -0.2890
 8008TIP3   OH223976   7.265   4.142   4.932  0.0678 -0.1302  0.3085
 8008TIP3    H123977   7.195   4.118   4.871  1.4431 -1.6446 -0.7293
 8008TIP3    H223978   7.247   4.233   4.955 -0.9699  0.2035 -1.7034
 8009TIP3   OH223979   5.689   4.073   2.354 -0.2950  0.7939  0.1726
 8009TIP3    H123980   5.693   3.977   2.353 -1.4537  0.7077  1.6067
 8009TIP3    H223981   5.662   4.095   2.443 -1.5278  2.3828 -0.5608
 8010TIP3   OH223982   4.329   5.925   4.548  0.0060 -0.2207  0.5010
 8010TIP3    H123983   4.295   5.838   4.570  2.5820 -1.2638  0.6100
 8010TIP3    H223984   4.354   5.918   4.456 -0.2575  0.5665  0.3675
 8011TIP3   OH223985   6.915   5.794   5.947  0.1516  0.2549  0.6519
 8011TIP3    H123986   6.925   5.798   6.042 -1.0205 -2.4084  0.9512
 8011TIP3    H223987   6.970   5.720   5.921 -1.3231 -0.4904 -0.4163
 8012TIP3   OH223988   7.532   6.554   5.849 -0.1174  0.1309 -0.0533
 8012TIP3    H123989   7.469   6.552   5.921 -0.5989  1.1150 -0.4392
 8012TIP3    H223990   7.521   6.469   5.806  0.5655 -0.6766  1.3531
 8013TIP3   OH223991   0.667   6.186   2.962 -0.1208  0.2912 -0.7428
 8013TIP3    H123992   0.723   6.161   2.889  0.8460  1.3251 -0.3793
 8013TIP3    H223993   0.672   6.282   2.964 -1.3849  0.3547 -0.2992
 8014TIP3   OH223994   6.485   2.969   5.616  0.2050 -0.1280  0.4349
 8014TIP3    H123995   6.400   2.985   5.576  1.9536  4.1149 -1.9481
 8014TIP3    H223996   6.548   2.986   5.545  3.0896 -3.1671  2.0964
 8015TIP3   OH223997   6.815   5.446   3.173 -0.2150 -0.2363 -0.5215
 8015TIP3    H123998   6.728   5.483   3.160 -0.2584 -0.5876 -1.2602
 8015TIP3    H223999   6.872   5.498   3.116 -0.0581 -0.4352 -0.5466
 8016TIP3   OH224000   2.915   1.352   0.174 -0.0274  0.4291 -0.1888
 8016TIP3    H124001   2.831   1.397   0.176  0.0253  0.5873 -1.1177
 8016TIP3    H224002   2.977   1.416   0.209 -0.0928  0.7693 -0.6864
 8017TIP3   OH224003   3.311   6.651   0.844  0.6175 -0.3459 -0.6536
 8017TIP3    H124004   3.219   6.661   0.869  0.7939  0.6199 -0.3425
 8017TIP3    H224005   3.326   6.721   0.780  1.1364 -0.5113 -0.7168
 8018TIP3   OH224006   4.954   5.464   2.257  0.1010  0.1198 -0.0220
 8018TIP3    H124007   4.988   5.433   2.173 -1.3339 -0.2757 -0.4675
 8018TIP3    H224008   4.897   5.394   2.288 -0.5084  0.8700  0.5994
 8019TIP3   OH224009   5.033   5.035   3.781  0.4504  0.1813  0.3419
 8019TIP3    H124010   5.096   5.107   3.776  0.9067 -0.3201 -1.6456
 8019TIP3    H224011   5.087   4.956   3.789  0.0132 -0.0935  0.6304
 8020TIP3   OH224012   4.918   4.639   4.653 -0.2366 -0.1768  0.2713
 8020TIP3    H124013   4.953   4.639   4.564  1.2033  0.0890  0.8190
 8020TIP3    H224014   4.966   4.709   4.698 -1.1010 -0.1620  1.2025
 8021TIP3   OH224015   7.305   0.054   3.841 -0.7847 -0.4154 -0.3199
 8021TIP3    H124016   7.251   0.082   3.766  0.6682  2.0822 -0.4489
 8021TIP3    H224017   7.333  -0.035   3.817 -2.0218 -0.4327 -1.8101
 8022TIP3   OH224018   4.463   5.697   3.370  0.0449  0.5703 -0.2603
 8022TIP3    H124019   4.414   5.767   3.327 -1.3638  0.6281  1.3904
 8022TIP3    H224020   4.421   5.617   3.340  0.4392  0.5130 -0.6639
 8023TIP3   OH224021   7.870   7.095   5.219 -0.4591  0.7539 -0.7146
 8023TIP3    H124022   7.957   7.072   5.185 -0.0110  1.9422 -0.4018
 8023TIP3    H224023   7.854   7.033   5.289 -0.2999 -0.1132 -1.4316
 8024TIP3   OH224024   6.126   4.854   4.902 -0.3684  0.4467  0.5238
 8024TIP3    H124025   6.137   4.766   4.936 -2.1965 -0.0972 -0.1957
 8024TIP3    H224026   6.102   4.907   4.978  1.7617  0.5724  1.1410
 8025TIP3   OH224027   5.838   6.585   3.096  0.4427  0.0960  0.2264
 8025TIP3    H124028   5.820   6.678   3.105 -0.1186  0.0363 -0.3049
 8025TIP3    H224029   5.754   6.542   3.109  0.4351 -0.2548 -0.9393
 8026TIP3   OH224030   0.425   0.871   2.904 -0.6449 -0.2209  0.1987
 8026TIP3    H124031   0.501   0.814   2.890  0.5637  1.6412 -1.2176
 8026TIP3    H224032   0.350   0.820   2.875  0.4389 -0.9907 -1.2869
 8027TIP3   OH224033   7.791   1.743   3.541  0.0963  0.2338  0.3413
 8027TIP3    H124034   7.758   1.656   3.561  0.6630  0.3053  1.6328
 8027TIP3    H224035   7.775   1.794   3.620  0.4833  1.0896 -0.1172
 8028TIP3   OH224036   6.404   7.114   1.005 -0.3656 -0.5214 -0.1127
 8028TIP3    H124037   6.484   7.163   1.022  0.2778 -1.0791 -1.4996
 8028TIP3    H224038   6.433   7.024   0.990 -1.2585 -0.7429 -0.5397
 8029TIP3   OH224039   0.927   5.240   1.999  0.3269 -0.4009 -0.4497
 8029TIP3    H124040   0.966   5.327   1.992 -0.5489 -0.1306 -2.1001
 8029TIP3    H224041   1.001   5.180   1.987  0.6336  0.1172 -1.1963
 8030TIP3   OH224042   1.936   0.893   2.738 -0.5283 -0.0411  0.0380
 8030TIP3    H124043   1.865   0.830   2.754  1.7158 -2.4719  0.8384
 8030TIP3    H224044   1.977   0.905   2.824  0.7726  0.4007 -0.6275
 8031TIP3   OH224045   4.987   7.047   4.837  0.2446  0.4495 -0.8621
 8031TIP3    H124046   4.938   7.000   4.904  1.1242  0.5633 -0.1198
 8031TIP3    H224047   4.972   6.997   4.757 -0.8056  0.3012 -0.5829
 8032TIP3   OH224048   5.956   6.973   3.442 -0.3181  0.1437 -0.0727
 8032TIP3    H124049   5.871   6.970   3.485 -0.0180  1.1353  0.5987
 8032TIP3    H224050   6.003   7.044   3.486  0.0515  1.0751 -1.9262
 8033TIP3   OH224051   1.685   1.696   4.357 -0.1451 -0.6155 -0.2249
 8033TIP3    H124052   1.603   1.746   4.359  0.6115  0.7918 -2.6939
 8033TIP3    H224053   1.658   1.605   4.370 -1.9794 -0.0569  0.0476
 8034TIP3   OH224054   6.806   7.245   5.244  0.4032 -0.4096  1.0793
 8034TIP3    H124055   6.839   7.226   5.156 -1.4453 -3.0441  0.8548
 8034TIP3    H224056   6.880   7.282   5.291  1.8268 -0.3167 -1.1691
 8035TIP3   OH224057   5.725   6.583   3.917  0.0918  0.4531 -0.3609
 8035TIP3    H124058   5.737   6.673   3.887  0.2458  0.3285 -0.6769
 8035TIP3    H224059   5.775   6.530   3.854 -0.3979  0.1076 -0.4574
 8036TIP3   OH224060   1.623   0.044   2.402 -0.2038  0.6858  0.2671
 8036TIP3    H124061   1.536   0.006   2.411 -0.3499  0.7608 -0.8085
 8036TIP3    H224062   1.664   0.029   2.487 -0.9754 -0.0649  0.5149
 8037TIP3   OH224063   4.898   7.319   3.496 -0.2080  0.0840 -0.0997
 8037TIP3    H124064   4.803   7.324   3.510 -0.1158  1.2169  0.1456
 8037TIP3    H224065   4.911   7.360   3.410  0.1553  0.6947  0.2484
 8038TIP3   OH224066   0.808   1.014   4.013  0.1264 -0.2362  0.1587
 8038TIP3    H124067   0.750   1.089   4.026  1.1667  0.6953 -0.4812
 8038TIP3    H224068   0.801   0.964   4.095  1.1111  1.7495  1.5071
 8039TIP3   OH224069   7.613   7.090   2.796  0.2221  0.0664 -0.3489
 8039TIP3    H124070   7.648   7.064   2.881 -1.4174  1.5381  0.7898
 8039TIP3    H224071   7.597   7.184   2.803 -0.0039  0.1986 -2.2604
 8040TIP3   OH224072   7.789   6.490   3.559  0.1352 -0.4080  0.2224
 8040TIP3    H124073   7.775   6.399   3.585 -0.8438 -0.4544 -0.4376
 8040TIP3    H224074   7.712   6.512   3.506  1.4084  0.1025 -1.4882
 8041TIP3   OH224075   5.687   6.862   3.807 -0.3943  0.0447 -0.0606
 8041TIP3    H124076   5.688   6.923   3.881 -0.1746  0.8803 -0.7461
 8041TIP3    H224077   5.751   6.897   3.746 -1.7025  0.2492 -1.3592
 8042TIP3   OH224078   5.435   5.909   3.857  0.1319  0.7096  0.0820
 8042TIP3    H124079   5.520   5.949   3.877  0.3663  0.0382  0.4085
 8042TIP3    H224080   5.452   5.849   3.785 -0.0707  0.5827  0.1375
 8043TIP3   OH224081   7.401   5.026   4.867 -0.1502  0.0650 -0.1055
 8043TIP3    H124082   7.331   5.090   4.853  0.1829  0.8829  1.8658
 8043TIP3    H224083   7.481   5.073   4.843 -0.1159 -0.3107 -0.7198
 8044TIP3   OH224084   4.786   3.647   0.730 -0.3855 -0.0097  0.1416
 8044TIP3    H124085   4.847   3.721   0.731 -1.4160  0.8234  2.1696
 8044TIP3    H224086   4.839   3.572   0.757  0.8821 -0.2579 -2.7615
 8045TIP3   OH224087   6.538   4.811   3.718 -0.1230  0.2424 -0.2518
 8045TIP3    H124088   6.525   4.732   3.667  1.7878  0.5514 -1.2697
 8045TIP3    H224089   6.503   4.790   3.804 -0.3198 -1.4482 -0.7289
 8046TIP3   OH224090   7.775   7.403   2.925  0.3411  0.0715 -0.0756
 8046TIP3    H124091   7.849   7.436   2.976  0.6048  0.0384 -0.4290
 8046TIP3    H224092   7.812   7.332   2.872 -0.5547 -1.8938  1.8572
 8047TIP3   OH224093   6.467   5.675   5.613 -0.1381  0.0867  0.2510
 8047TIP3    H124094   6.404   5.744   5.591 -0.5596 -0.0842  0.9044
 8047TIP3    H224095   6.525   5.715   5.678  1.4589  0.7768 -1.5443
 8048TIP3   OH224096   7.617   0.492   4.806  0.0599  0.2702  1.0416
 8048TIP3    H124097   7.588   0.460   4.891 -2.6572 -1.4628 -0.4598
 8048TIP3    H224098   7.642   0.413   4.758 -0.0583  1.0497 -0.3289
 8049TIP3   OH224099   0.873   1.609   3.978 -0.2384  0.1027 -0.5954
 8049TIP3    H124100   0.787   1.567   3.981  0.6041 -1.6504 -0.2962
 8049TIP3    H224101   0.908   1.599   4.067  1.6561 -2.2610 -1.5326
 8050TIP3   OH224102   6.074   7.453   1.043 -0.0846  0.0571  0.1799
 8050TIP3    H124103   6.082   7.413   0.956  1.7151  0.6408  0.0504
 8050TIP3    H224104   6.054   7.380   1.101  1.1227 -0.7329 -0.3682
 8051TIP3   OH224105   0.319   1.706   1.946 -0.2988 -0.3288  0.2089
 8051TIP3    H124106   0.337   1.613   1.962 -0.3913 -0.1387  1.4599
 8051TIP3    H224107   0.292   1.740   2.031 -0.8225  0.7225 -0.3724
 8052TIP3   OH224108   5.736   4.262   2.145 -0.5032  0.1364  0.0465
 8052TIP3    H124109   5.657   4.250   2.092  0.0281 -0.7201 -0.5751
 8052TIP3    H224110   5.725   4.201   2.218 -0.6018  0.3143  0.1808
 8053TIP3   OH224111   4.087   6.043   4.234  0.8046 -0.3180  0.3612
 8053TIP3    H124112   4.056   5.960   4.269  0.4265  0.3512  1.6309
 8053TIP3    H224113   4.151   6.018   4.167  2.4932 -1.5875  2.4119
 8054TIP3   OH224114   0.363   0.201   2.710  0.4500  0.0701 -0.2889
 8054TIP3    H124115   0.358   0.296   2.717 -3.8019 -0.1641  1.5731
 8054TIP3    H224116   0.329   0.181   2.623  0.0289  0.1737 -0.1465
 8055TIP3   OH224117   5.818   7.432   3.317  1.0529  0.3477 -0.1274
 8055TIP3    H124118   5.905   7.469   3.334  1.3089 -0.4347  0.3102
 8055TIP3    H224119   5.835   7.351   3.269  0.4639  1.1128 -1.6807
 8056TIP3   OH224120   2.944   1.066   3.494 -0.1834  0.1835 -0.1004
 8056TIP3    H124121   2.956   0.978   3.460  0.2367 -0.0459  0.6493
 8056TIP3    H224122   3.002   1.071   3.570  1.1427  1.6835 -1.1753
 8057TIP3   OH224123   7.164   6.795   3.396  0.2414  0.2148  0.0981
 8057TIP3    H124124   7.253   6.807   3.363  0.1256 -2.7437 -1.4747
 8057TIP3    H224125   7.174   6.737   3.471 -0.3600 -0.3629 -0.2588
 8058TIP3   OH224126   3.320   6.963   1.742 -0.2132  0.0299  0.0117
 8058TIP3    H124127   3.333   6.894   1.677 -1.2402  0.9210 -1.1497
 8058TIP3    H224128   3.272   6.920   1.813  1.3673 -1.0773  0.4569
 8059TIP3   OH224129   5.931   2.733   5.382 -0.1938 -0.0303 -0.2791
 8059TIP3    H124130   6.007   2.759   5.434 -0.8907 -0.2678  0.8944
 8059TIP3    H224131   5.964   2.663   5.325  1.0267  1.5224 -1.5085
 8060TIP3   OH224132   4.679   4.884   2.815 -0.6474  0.2627 -0.5156
 8060TIP3    H124133   4.682   4.971   2.855  2.2296  0.3665 -0.8624
 8060TIP3    H224134   4.669   4.901   2.722  1.7423  0.3191 -0.7908
 8061TIP3   OH224135   4.763   5.676   3.410 -0.5921  0.4069 -0.0685
 8061TIP3    H124136   4.672   5.707   3.416 -1.3936 -1.6523 -0.9775
 8061TIP3    H224137   4.771   5.614   3.483 -0.4851 -0.7554 -1.0643
 8062TIP3   OH224138   0.592   0.282   4.049  0.2202 -0.1468  0.3187
 8062TIP3    H124139   0.598   0.370   4.012  2.0971  0.3601  1.7689
 8062TIP3    H224140   0.643   0.286   4.130 -2.2895 -1.7167  2.0436
 8063TIP3   OH224141   5.624   4.355   3.696 -0.3179 -1.0385  0.1274
 8063TIP3    H124142   5.552   4.302   3.731 -0.3979 -0.0240  1.5918
 8063TIP3    H224143   5.604   4.444   3.727  0.3091 -0.3319 -1.4662
 8064TIP3   OH224144   5.035   5.662   3.587 -0.1169 -0.3137  0.0620
 8064TIP3    H124145   5.096   5.592   3.612  0.3084  0.0916  0.1551
 8064TIP3    H224146   5.046   5.670   3.493  2.0092  1.6521  0.4295
 8065TIP3   OH224147   3.315   6.921   2.349  0.0901  0.9549 -0.3193
 8065TIP3    H124148   3.224   6.904   2.326  0.7161  0.4218 -2.5995
 8065TIP3    H224149   3.313   7.002   2.399 -1.6271  0.9963 -0.4248
 8066TIP3   OH224150   7.508   4.009   2.344  0.1361 -0.1719  0.5304
 8066TIP3    H124151   7.448   4.003   2.269 -1.6220  0.9397  1.7903
 8066TIP3    H224152   7.557   4.090   2.328 -0.0410 -0.0806  0.4436
 8067TIP3   OH224153   7.156   5.117   0.739  0.2010  0.3448  0.2233
 8067TIP3    H124154   7.162   5.094   0.646 -0.5282 -1.0155  0.4940
 8067TIP3    H224155   7.246   5.138   0.764  0.6129 -0.5367 -0.4838
 8068TIP3   OH224156   5.994   4.069   3.261 -0.2988  0.4015  0.0408
 8068TIP3    H124157   6.036   4.062   3.347 -0.9465 -1.5361  0.2210
 8068TIP3    H224158   6.055   4.025   3.201 -0.4878  0.5624 -0.2712
 8069TIP3   OH224159   5.905   5.046   3.472  0.4678 -0.4326 -0.1720
 8069TIP3    H124160   5.914   5.141   3.468 -0.3916 -0.3774 -1.1155
 8069TIP3    H224161   5.922   5.017   3.382  0.9056 -1.1883  0.1493
 8070TIP3   OH224162   5.553   3.912   1.334  0.0968  0.2199 -0.0086
 8070TIP3    H124163   5.528   3.972   1.263  1.6462  0.1756 -0.6114
 8070TIP3    H224164   5.510   3.829   1.311 -0.7728  0.6550  0.0034
 8071TIP3   OH224165   4.331   5.083   3.460  0.4151 -0.6913 -0.0954
 8071TIP3    H124166   4.414   5.124   3.483  0.0056  0.2838 -0.3429
 8071TIP3    H224167   4.341   4.991   3.487  1.7346 -0.6875 -0.5298
 8072TIP3   OH224168   2.822   6.388   1.715  0.3759  0.2661 -0.0168
 8072TIP3    H124169   2.797   6.436   1.794  0.3450  1.8592 -0.9807
 8072TIP3    H224170   2.809   6.450   1.644 -1.7918 -1.8674 -1.5517
 8073TIP3   OH224171   0.691   3.520   0.619  0.1541 -0.0389 -0.9449
 8073TIP3    H124172   0.668   3.612   0.605 -1.0773 -0.2606 -0.4328
 8073TIP3    H224173   0.778   3.511   0.580 -0.0136  1.1748 -1.6324
 8074TIP3   OH224174   1.840   0.830   3.314  0.2723 -0.4550  0.2536
 8074TIP3    H124175   1.811   0.871   3.233 -0.2683 -1.2922  0.0093
 8074TIP3    H224176   1.919   0.877   3.339  1.0722 -0.9053 -1.3684
 8075TIP3   OH224177   3.128   4.257   3.696 -0.0164 -0.2850  0.0995
 8075TIP3    H124178   3.134   4.314   3.620  0.0758 -2.2266 -1.4023
 8075TIP3    H224179   3.051   4.202   3.679 -0.7300  0.0952  2.0103
 8076TIP3   OH224180   4.651   7.236   4.168 -0.1387 -0.5154  0.0549
 8076TIP3    H124181   4.739   7.215   4.201 -0.2255 -0.7543  0.1344
 8076TIP3    H224182   4.592   7.194   4.231 -0.3088 -1.2624 -0.5984
 8077TIP3   OH224183   1.125   0.214   3.251 -0.1743  0.0213  0.4185
 8077TIP3    H124184   1.042   0.182   3.216 -0.3989 -0.2564  1.1950
 8077TIP3    H224185   1.153   0.281   3.189  0.1079 -1.4077 -1.0347
 8078TIP3   OH224186   0.429   2.401   3.912 -0.0063  0.2254  0.1429
 8078TIP3    H124187   0.472   2.354   3.841  0.8071  1.1410  0.0280
 8078TIP3    H224188   0.408   2.333   3.976 -0.2921 -0.5334 -0.7283
 8079TIP3   OH224189   0.756   0.885   2.102  0.2115  0.2539  0.1221
 8079TIP3    H124190   0.742   0.954   2.038  0.0268  0.0181 -0.0937
 8079TIP3    H224191   0.669   0.851   2.120  0.0785  1.3839  1.7029
 8080TIP3   OH224192   1.167   0.458   4.327 -0.0325  0.0593 -0.4100
 8080TIP3    H124193   1.077   0.487   4.315 -0.1474 -0.5284 -0.9899
 8080TIP3    H224194   1.197   0.434   4.240  0.8850  0.8033 -0.3112
 8081TIP3   OH224195   7.125   5.597   2.148  0.3522 -0.3864 -0.1786
 8081TIP3    H124196   7.207   5.645   2.140  0.2312 -0.2381 -0.5268
 8081TIP3    H224197   7.152   5.509   2.176  0.5902 -0.1989  0.1942
 8082TIP3   OH224198   1.374   6.701   3.606  0.1009  0.1491  0.1891
 8082TIP3    H124199   1.423   6.740   3.678 -1.3618  0.9133  0.8117
 8082TIP3    H224200   1.438   6.650   3.557  2.1149  3.3396 -0.6565
 8083TIP3   OH224201   6.757   7.206   1.987  0.2396 -0.0070  0.3933
 8083TIP3    H124202   6.689   7.248   1.933  1.8555 -0.2756 -1.9206
 8083TIP3    H224203   6.708   7.164   2.058 -2.1303 -0.9941 -1.7170
 8084TIP3   OH224204   7.049   7.321   3.666  0.2901 -0.0071  0.7018
 8084TIP3    H124205   7.103   7.365   3.600  0.5132 -0.2722  0.7103
 8084TIP3    H224206   7.017   7.392   3.721 -4.3428  0.9394 -2.8819
 8085TIP3   OH224207   0.230   6.078   2.357 -0.2139 -0.4278  0.0172
 8085TIP3    H124208   0.176   6.004   2.384 -0.2484 -0.1529  0.7262
 8085TIP3    H224209   0.320   6.049   2.375 -0.0846 -1.0104 -1.4675
 8086TIP3   OH224210   6.625   5.705   1.762 -0.4674 -0.5333  0.0728
 8086TIP3    H124211   6.636   5.641   1.693 -0.6731  0.3416 -0.7759
 8086TIP3    H224212   6.714   5.734   1.782 -0.3109 -1.5644  0.9338
 8087TIP3   OH224213   7.239   5.811   3.483 -0.1197 -0.2889  0.0151
 8087TIP3    H124214   7.249   5.799   3.388 -0.4681 -0.5613  0.0122
 8087TIP3    H224215   7.290   5.740   3.522  0.9494  0.4846  0.0497
 8088TIP3   OH224216   2.102   0.090   2.205 -0.2495  0.1398 -0.0543
 8088TIP3    H124217   2.007   0.105   2.207 -0.0668  1.3704  0.0145
 8088TIP3    H224218   2.130   0.125   2.120  0.2292  0.3633  0.1927
 8089TIP3   OH224219   1.593   0.193   4.159 -0.0641 -0.3637 -0.2003
 8089TIP3    H124220   1.633   0.270   4.200  0.3393 -0.0608 -1.1494
 8089TIP3    H224221   1.572   0.222   4.070 -1.2132 -0.9195 -0.1073
 8090TIP3   OH224222   1.937   1.091   3.719  0.0282  0.0427 -0.1415
 8090TIP3    H124223   1.982   1.007   3.725 -1.4581 -0.7730 -0.2366
 8090TIP3    H224224   1.888   1.086   3.637  1.7636  1.9376 -1.3476
 8091TIP3   OH224225   2.920   0.866   2.391  0.4779 -0.3316  0.3870
 8091TIP3    H124226   2.893   0.780   2.358  1.5691 -1.1035  1.4763
 8091TIP3    H224227   2.845   0.897   2.442  0.4663 -1.0908  0.8374
 8092TIP3   OH224228   7.382   6.351   2.800  0.1719  0.1459 -0.0260
 8092TIP3    H124229   7.403   6.377   2.710 -0.1280 -0.9708 -0.4349
 8092TIP3    H224230   7.286   6.340   2.799  0.1692  0.1482  0.4248
 8093TIP3   OH224231   6.504   6.760   3.733  0.6697  0.4969  0.1931
 8093TIP3    H124232   6.463   6.709   3.803  1.8060 -2.2765 -1.0617
 8093TIP3    H224233   6.589   6.785   3.768  1.1288 -0.6651 -0.0452
 8094TIP3   OH224234   4.448   6.498   1.961 -0.0140  0.1347  0.0826
 8094TIP3    H124235   4.447   6.409   1.995 -1.5926 -0.7036 -2.0247
 8094TIP3    H224236   4.372   6.540   2.000 -0.6143 -0.1743 -0.7470
 8095TIP3   OH224237   1.668   1.339   5.702  0.3015 -0.0580  0.2212
 8095TIP3    H124238   1.649   1.256   5.746  1.1451  0.7781  2.2058
 8095TIP3    H224239   1.598   1.398   5.729 -0.0298  0.0388 -0.8039
 8096TIP3   OH224240   6.072   7.250   3.765  0.2594 -0.0563  0.2222
 8096TIP3    H124241   6.113   7.204   3.837  0.0016  0.2127  0.5416
 8096TIP3    H224242   6.015   7.314   3.806 -0.4539 -0.4002 -0.2140
 8097TIP3   OH224243   5.630   5.374   1.328 -0.0756  0.3165  0.3110
 8097TIP3    H124244   5.694   5.352   1.261  0.4140  0.2497  0.7947
 8097TIP3    H224245   5.558   5.312   1.314 -0.1263  0.5212 -0.3551
 8098TIP3   OH224246   5.371   5.611   4.707 -0.6303 -0.6072 -0.5149
 8098TIP3    H124247   5.289   5.570   4.735 -1.7404  2.3089  0.6593
 8098TIP3    H224248   5.375   5.595   4.613 -2.1166 -1.5476 -0.4392
 8099TIP3   OH224249   0.518   0.752   3.766  0.2505  0.3641 -0.4474
 8099TIP3    H124250   0.592   0.811   3.779 -0.4650  0.9283  1.1960
 8099TIP3    H224251   0.544   0.696   3.693  1.6843  1.5229 -0.8450
 8100TIP3   OH224252   6.254   6.938   2.327  0.3550  0.3879  0.1012
 8100TIP3    H124253   6.345   6.962   2.307  0.4608  0.8536  1.1204
 8100TIP3    H224254   6.257   6.844   2.343  0.7188  0.4664  0.4914
 8101TIP3   OH224255   6.798   6.583   4.538 -0.7526  0.9793  0.0557
 8101TIP3    H124256   6.867   6.637   4.574 -0.4687  1.0259 -0.5461
 8101TIP3    H224257   6.721   6.603   4.591 -0.3837  1.1609  0.5219
 8102TIP3   OH224258   7.620   5.121   2.505 -0.1155 -0.1448 -0.3492
 8102TIP3    H124259   7.574   5.200   2.478 -1.4644 -0.7957 -0.0197
 8102TIP3    H224260   7.710   5.132   2.472 -0.4236  1.2833 -0.7258
 8103TIP3   OH224261   5.585   7.167   1.475  0.2894  0.2202  0.5813
 8103TIP3    H124262   5.502   7.210   1.454 -0.5718 -0.5047  2.4042
 8103TIP3    H224263   5.610   7.121   1.395 -1.0307  0.5006  0.0042
 8104TIP3   OH224264   7.055   5.549   4.515 -0.4857  0.9063  0.2564
 8104TIP3    H124265   7.066   5.556   4.420  2.3547  0.5613  0.5249
 8104TIP3    H224266   7.027   5.636   4.543 -0.4246  1.2578 -0.7769
 8105TIP3   OH224267   1.177   1.185   3.122  0.7415  0.0563  0.1441
 8105TIP3    H124268   1.247   1.187   3.188  0.5701  0.6071  0.3158
 8105TIP3    H224269   1.171   1.093   3.095  1.2176 -0.0682  0.4655
 8106TIP3   OH224270   0.034   0.484   2.889  0.2984 -0.4498  0.0625
 8106TIP3    H124271   0.048   0.471   2.983  0.4879  2.0982  0.4243
 8106TIP3    H224272   0.122   0.494   2.853  0.1956 -0.7163 -0.2563
 8107TIP3   OH224273   7.725   0.461   1.544  0.5504  0.4568  0.1986
 8107TIP3    H124274   7.655   0.521   1.519 -0.8187 -0.8756  0.7374
 8107TIP3    H224275   7.786   0.464   1.471 -0.9576  0.3009 -1.1008
 8108TIP3   OH224276   5.920   6.687   1.824 -0.1960  0.3464 -0.5275
 8108TIP3    H124277   5.960   6.726   1.746  1.1110  0.9101  0.4041
 8108TIP3    H224278   5.860   6.621   1.790  1.0582 -0.0612 -1.9875
 8109TIP3   OH224279   1.514   1.674   4.640  0.0737  0.2082  0.1687
 8109TIP3    H124280   1.584   1.657   4.703 -1.1242  2.3095  2.1830
 8109TIP3    H224281   1.454   1.600   4.651 -1.3316  1.6799  3.3646
 8110TIP3   OH224282   7.220   7.047   2.284  0.3500 -0.4174 -0.2566
 8110TIP3    H124283   7.280   7.116   2.253 -0.5856  0.1926 -0.7247
 8110TIP3    H224284   7.156   7.037   2.213 -0.6545 -0.4059  0.6414
 8111TIP3   OH224285   1.334   6.226   1.763  0.7553  0.3310 -0.4314
 8111TIP3    H124286   1.420   6.183   1.770  1.1046  1.1338  0.3999
 8111TIP3    H224287   1.332   6.285   1.838  0.0794  1.4136 -1.2980
 8112TIP3   OH224288   0.581   6.775   1.953  0.2232 -0.0561 -0.0131
 8112TIP3    H124289   0.597   6.841   2.020  0.5465 -0.8182  0.6705
 8112TIP3    H224290   0.496   6.800   1.916  0.4403  0.8627  0.0824
 8113TIP3   OH224291   7.574   6.123   2.390 -0.2450 -0.2610 -0.3227
 8113TIP3    H124292   7.507   6.069   2.347  1.1567 -0.1821 -2.6950
 8113TIP3    H224293   7.583   6.200   2.334  1.4397 -0.0196  0.2503
 8114TIP3   OH224294   1.024   0.235   2.550  0.7751 -0.1110 -0.1052
 8114TIP3    H124295   1.042   0.204   2.461  0.8199  1.6548 -0.7474
 8114TIP3    H224296   1.032   0.330   2.543 -0.1441  0.1009  1.5978
 8115TIP3   OH224297   2.473   0.621   4.983 -0.0048  0.1098 -0.4266
 8115TIP3    H124298   2.504   0.712   4.981  0.1526  0.0376 -1.4262
 8115TIP3    H224299   2.549   0.569   4.961 -0.0504 -0.2866  0.3363
 8116TIP3   OH224300   0.110   1.538   2.573 -0.3260 -0.4051  0.2772
 8116TIP3    H124301   0.063   1.611   2.532  0.8262  0.2753  0.1485
 8116TIP3    H224302   0.142   1.574   2.656 -1.4452 -1.3627  1.1384
 8117TIP3   OH224303   3.670   0.750   2.957 -0.4995 -0.0823  0.1561
 8117TIP3    H124304   3.589   0.730   3.003 -0.3106 -0.1180  0.4730
 8117TIP3    H224305   3.642   0.771   2.868 -0.8847  0.2148  0.3468
 8118TIP3   OH224306   7.875   1.289   2.967 -0.3006  0.4128  0.8442
 8118TIP3    H124307   7.935   1.214   2.970  0.2085  0.8054  0.6563
 8118TIP3    H224308   7.799   1.258   2.919 -0.5843 -0.3305  1.7592
 8119TIP3   OH224309   1.615   0.294   2.695  0.5991  0.0245 -0.6300
 8119TIP3    H124310   1.621   0.204   2.664  1.5119 -0.5971  1.2754
 8119TIP3    H224311   1.661   0.294   2.778 -0.6009  1.9602  0.0744
 8120TIP3   OH224312   3.522   1.472   4.611  0.7159 -0.1952  0.0835
 8120TIP3    H124313   3.588   1.524   4.565  0.7585 -0.2986  0.0268
 8120TIP3    H224314   3.564   1.448   4.694 -0.3030  2.1653  1.3104
 8121TIP3   OH224315   2.028   1.535   0.744 -0.0990  0.5440  0.9952
 8121TIP3    H124316   2.064   1.580   0.667 -0.5009  1.4967  1.3598
 8121TIP3    H224317   2.094   1.547   0.812  0.6701 -1.0607  0.5731
 8122TIP3   OH224318   2.341   0.105   2.560  0.8293  0.3359 -0.5574
 8122TIP3    H124319   2.414   0.044   2.562  1.2278  0.8002 -0.8347
 8122TIP3    H224320   2.370   0.179   2.614  0.5825  0.5358 -0.6944
 8123TIP3   OH224321   5.848   4.541   1.277 -0.2305  0.2167 -0.1140
 8123TIP3    H124322   5.822   4.531   1.369 -1.1534 -0.2360 -0.4197
 8123TIP3    H224323   5.801   4.472   1.231  1.7094 -0.7560 -0.6643
 8124TIP3   OH224324   7.119   7.033   5.171 -0.3392 -0.0164  0.3198
 8124TIP3    H124325   7.049   7.093   5.146  1.0581  1.0564 -1.0817
 8124TIP3    H224326   7.091   6.948   5.135  0.0008  0.8143 -1.9462
 8125TIP3   OH224327   3.787   6.173   1.503 -0.0104  0.4692 -0.1852
 8125TIP3    H124328   3.812   6.170   1.411 -1.4329  1.3518 -0.6106
 8125TIP3    H224329   3.813   6.087   1.538  2.0139  0.7273 -0.9959
 8126TIP3   OH224330   0.661   1.331   2.191  0.6824 -0.2633 -0.1165
 8126TIP3    H124331   0.587   1.385   2.166  0.1584  0.4691  2.7758
 8126TIP3    H224332   0.718   1.329   2.114 -1.6383  0.3361 -1.8780
 8127TIP3   OH224333   5.566   6.974   2.110 -0.3296  0.1999 -0.0029
 8127TIP3    H124334   5.592   6.889   2.144  0.5464  0.0619 -1.0060
 8127TIP3    H224335   5.640   7.032   2.131 -0.3624  0.4184 -0.4827
 8128TIP3   OH224336   7.258   7.032   5.427  0.4424 -0.2643  0.1528
 8128TIP3    H124337   7.182   7.004   5.478  0.6665  1.2598  1.3485
 8128TIP3    H224338   7.226   7.035   5.337 -0.5789 -0.8017  0.4863
 8129TIP3   OH224339   2.745   0.729   3.635 -0.1936  0.0550  0.9602
 8129TIP3    H124340   2.739   0.812   3.589 -0.4963 -0.3408  0.2709
 8129TIP3    H224341   2.722   0.663   3.569  1.9442 -0.7370  0.9781
 8130TIP3   OH224342   2.304   0.934   1.989 -0.3072 -0.1755  0.0452
 8130TIP3    H124343   2.354   0.974   1.918  0.3684 -2.1227 -0.6051
 8130TIP3    H224344   2.236   0.998   2.010  1.8975  2.1572  0.3393
 8131TIP3   OH224345   7.017   5.155   2.233  0.8013  0.0775 -0.0959
 8131TIP3    H124346   7.037   5.235   2.281  1.2013 -1.8758  3.1363
 8131TIP3    H224347   6.937   5.122   2.275  0.5262 -1.1079 -1.5263
 8132TIP3   OH224348   5.929   6.388   4.083  0.5091 -0.1959  0.2517
 8132TIP3    H124349   5.928   6.473   4.039  0.8745 -0.7958 -0.9127
 8132TIP3    H224350   5.857   6.340   4.043 -0.1308 -0.1978  1.3929
 8133TIP3   OH224351   6.361   6.508   2.162 -0.0720  0.8138 -0.1195
 8133TIP3    H124352   6.402   6.507   2.075  0.1649 -0.7098  0.0019
 8133TIP3    H224353   6.435   6.504   2.223 -0.2854  0.8747  0.1447
 8134TIP3   OH224354   1.388   3.716   5.737 -0.1401  0.0687  0.4406
 8134TIP3    H124355   1.400   3.625   5.712 -0.0556  0.5882 -1.4956
 8134TIP3    H224356   1.467   3.738   5.787  1.2490 -0.0704 -1.6627
 8135TIP3   OH224357   1.035   7.381   2.918 -0.4508 -0.5011  0.3369
 8135TIP3    H124358   0.970   7.451   2.915  1.7922  1.7099  1.2683
 8135TIP3    H224359   1.017   7.335   2.999  0.4425  1.4536  1.6793
 8136TIP3   OH224360   2.441   1.330   2.004 -0.7895 -0.0357  0.1530
 8136TIP3    H124361   2.424   1.419   2.037  1.6312  0.5836 -0.1747
 8136TIP3    H224362   2.379   1.319   1.932 -1.5014  1.1810  0.5642
 8137TIP3   OH224363   1.168   5.653   3.877 -0.2232  0.4624  0.1473
 8137TIP3    H124364   1.177   5.616   3.789  1.8008 -1.2288  1.0390
 8137TIP3    H224365   1.078   5.687   3.879 -1.0084 -1.3480 -1.8482
 8138TIP3   OH224366   6.942   7.247   3.359  0.4628 -0.0423  0.4434
 8138TIP3    H124367   6.966   7.227   3.449  1.0027  0.5875  0.4479
 8138TIP3    H224368   6.919   7.340   3.360 -1.6849 -0.5515  0.3578
 8139TIP3   OH224369   6.285   4.410   3.175 -0.1159 -0.0569 -0.5398
 8139TIP3    H124370   6.266   4.412   3.082 -3.5637 -1.3890  0.0647
 8139TIP3    H224371   6.235   4.483   3.212  0.4517 -0.1275  0.3997
 8140TIP3   OH224372   0.268   5.880   3.598  0.4204  0.2889 -0.2463
 8140TIP3    H124373   0.241   5.925   3.518 -1.5911 -1.8336 -0.8134
 8140TIP3    H224374   0.339   5.823   3.570  1.2555  1.2130 -0.0378
 8141TIP3   OH224375   0.375   7.144   3.127  0.1499  0.1048  0.3807
 8141TIP3    H124376   0.281   7.126   3.132 -0.3038  1.3921 -2.5331
 8141TIP3    H224377   0.380   7.238   3.114  1.8491  0.0276  0.4119
 8142TIP3   OH224378   1.116   0.180   4.387  0.2902 -0.5587  0.2858
 8142TIP3    H124379   1.183   0.131   4.338  0.3858 -1.1696  1.0097
 8142TIP3    H224380   1.135   0.272   4.368 -0.0027 -0.7916 -1.2467
 8143TIP3   OH224381   0.980   5.768   4.933 -0.0162  0.0178 -0.0419
 8143TIP3    H124382   0.917   5.727   4.873 -0.6165  1.2523 -0.2608
 8143TIP3    H224383   0.942   5.754   5.020 -1.9709  3.0570 -0.3418
 8144TIP3   OH224384   0.538   5.429   1.794  0.7511 -0.0873  0.2325
 8144TIP3    H124385   0.540   5.345   1.749 -1.3508 -0.7872  1.3630
 8144TIP3    H224386   0.519   5.493   1.726  1.8144 -0.5844 -0.5453
 8145TIP3   OH224387   4.541   7.073   3.781  0.1973 -0.0835  0.1934
 8145TIP3    H124388   4.636   7.076   3.772  0.1475 -0.2658 -0.3703
 8145TIP3    H224389   4.519   6.981   3.769 -0.0115 -0.1041  0.7178
 8146TIP3   OH224390   7.470   0.884   1.854  0.6103 -0.5710  0.1342
 8146TIP3    H124391   7.499   0.914   1.941  1.1867 -0.0686 -0.2293
 8146TIP3    H224392   7.502   0.794   1.848 -1.1792 -1.3058  1.2536
 8147TIP3   OH224393   2.270   1.111   4.066  0.1296  0.1836  0.1504
 8147TIP3    H124394   2.212   1.153   4.003  0.5906 -0.0212 -0.4214
 8147TIP3    H224395   2.308   1.037   4.017 -0.8955 -1.0690  1.2184
 8148TIP3   OH224396   7.909   7.126   6.438  0.0448  0.1555 -0.3971
 8148TIP3    H124397   7.927   7.036   6.410 -0.6986 -0.4305  0.9891
 8148TIP3    H224398   7.826   7.121   6.485 -1.3976  2.0403 -2.6515
 8149TIP3   OH224399   7.455   5.173   3.525  0.2490  0.5483 -0.0739
 8149TIP3    H124400   7.461   5.206   3.435 -0.9074  0.2714 -0.2646
 8149TIP3    H224401   7.441   5.079   3.515 -1.3753  0.7311  0.3564
 8150TIP3   OH224402   7.534   6.440   2.220  0.0680 -0.3402  0.0667
 8150TIP3    H124403   7.457   6.399   2.182 -0.0726 -0.1675  0.1647
 8150TIP3    H224404   7.608   6.391   2.183 -0.1491 -1.6730  1.3750
 8151TIP3   OH224405   6.236   6.204   2.791 -0.7955 -0.1196  0.0039
 8151TIP3    H124406   6.174   6.163   2.852  1.0547 -1.4478  1.0325
 8151TIP3    H224407   6.264   6.283   2.837 -1.9227  0.6381 -0.5885
 8152TIP3   OH224408   5.502   5.144   2.143  0.0489  0.3494  0.8205
 8152TIP3    H124409   5.551   5.178   2.068 -0.8939  0.0730  0.0719
 8152TIP3    H224410   5.437   5.212   2.162 -0.9722 -0.4217  0.1540
 8153TIP3   OH224411   1.988   2.207   4.218 -0.4869  0.3285 -0.3213
 8153TIP3    H124412   1.967   2.257   4.139 -0.2822  2.4326  0.9275
 8153TIP3    H224413   1.902   2.187   4.256 -0.5080  2.3263  0.7383
 8154TIP3   OH224414   6.336   7.112   3.686  0.2037  0.3609  0.4814
 8154TIP3    H124415   6.381   7.041   3.640 -0.0991  0.7584 -0.4426
 8154TIP3    H224416   6.335   7.184   3.623 -0.4993  0.8123  1.0013
 8155TIP3   OH224417   1.936   6.124   2.640  0.0102 -0.7965 -0.3105
 8155TIP3    H124418   1.856   6.072   2.630 -0.9196  0.5137  0.2750
 8155TIP3    H224419   1.987   6.075   2.705  0.4115 -2.4817 -1.8436
 8156TIP3   OH224420   5.449   7.149   3.803  0.2946 -0.2463  0.4221
 8156TIP3    H124421   5.382   7.208   3.835  0.7538  0.6850 -0.3214
 8156TIP3    H224422   5.481   7.104   3.881  1.9369  2.5508  1.4139
 8157TIP3   OH224423   7.693   6.232   2.126 -0.0875 -0.1292  0.1686
 8157TIP3    H124424   7.761   6.277   2.076  0.0129 -1.4169 -0.9153
 8157TIP3    H224425   7.680   6.149   2.079 -2.2323 -0.0140  0.4798
 8158TIP3   OH224426   6.103   7.199   3.484  0.3382  0.9334  0.0029
 8158TIP3    H124427   6.155   7.275   3.458 -0.1232  2.0495  2.2379
 8158TIP3    H224428   6.072   7.220   3.572 -0.4923 -1.4911  0.3226
 8159TIP3   OH224429   6.182   3.648   1.716  0.0574 -0.2705 -0.3622
 8159TIP3    H124430   6.095   3.673   1.749 -0.2914 -0.9968 -0.7253
 8159TIP3    H224431   6.176   3.554   1.702  0.7349 -0.2331 -0.9162
 8160TIP3   OH224432   6.400   5.176   2.994 -0.1400  0.6544  0.1861
 8160TIP3    H124433   6.490   5.180   2.964 -0.1299  3.7348  0.4827
 8160TIP3    H224434   6.406   5.179   3.089 -0.5177  0.5554  0.2142
 8161TIP3   OH224435   0.121   5.242   3.355  0.3875  0.4529 -0.2484
 8161TIP3    H124436   0.140   5.286   3.272 -0.2059  0.1289 -0.5564
 8161TIP3    H224437   0.175   5.163   3.354  0.1949  0.3232 -0.4366
 8162TIP3   OH224438   6.181   6.008   3.360 -0.2568 -0.4967 -0.2171
 8162TIP3    H124439   6.256   5.971   3.407 -0.8039 -0.4146  0.7372
 8162TIP3    H224440   6.170   5.952   3.284  0.8064 -0.4802 -0.3922
 8163TIP3   OH224441   0.705   6.262   4.298  0.2485 -0.6520 -0.6106
 8163TIP3    H124442   0.790   6.298   4.323 -0.8033  0.8959  0.8769
 8163TIP3    H224443   0.722   6.216   4.216  1.9817  2.1010 -1.8865
 8164TIP3   OH224444   1.911   5.946   3.824 -0.4111  0.5239 -0.1407
 8164TIP3    H124445   1.982   6.010   3.825  0.1719 -0.0652 -1.6089
 8164TIP3    H224446   1.905   5.919   3.732 -0.7170 -1.4391  0.4421
 8165TIP3   OH224447   1.936   7.011   4.275 -0.3456 -0.4652 -0.2936
 8165TIP3    H124448   1.938   6.934   4.332  0.7776 -0.2646 -0.0527
 8165TIP3    H224449   1.844   7.021   4.252 -0.8540 -0.4385  1.6401
 8166TIP3   OH224450   0.719   6.974   4.984  0.2407 -0.0086 -0.5645
 8166TIP3    H124451   0.687   6.946   4.898 -0.8896  0.0490 -0.1763
 8166TIP3    H224452   0.717   6.894   5.037  0.0070  0.1540 -0.3287
 8167TIP3   OH224453   6.867   5.818   3.205  0.1776 -0.1834 -0.4223
 8167TIP3    H124454   6.782   5.817   3.160  0.9824  0.3388 -1.9880
 8167TIP3    H224455   6.865   5.896   3.260 -0.4767 -0.3464 -0.2095
 8168TIP3   OH224456   0.578   6.325   3.721  0.5367 -0.3920  0.0549
 8168TIP3    H124457   0.604   6.234   3.730 -0.3225 -0.7537 -0.9823
 8168TIP3    H224458   0.493   6.330   3.764  0.8510  0.0540  0.6285
 8169TIP3   OH224459   1.574   5.931   2.791  0.3616 -0.3231 -0.6033
 8169TIP3    H124460   1.605   5.994   2.855 -0.4126  0.1664 -0.7054
 8169TIP3    H224461   1.618   5.849   2.814 -1.2224 -0.5839  1.6027
 8170TIP3   OH224462   4.018   0.995   3.490  0.8625 -0.7226 -0.1755
 8170TIP3    H124463   3.927   1.026   3.494  1.4477  0.8528  2.2196
 8170TIP3    H224464   4.044   1.011   3.399 -0.6676  0.5763 -0.4297
 8171TIP3   OH224465   2.239   6.005   3.552 -0.2600  0.6659 -0.3100
 8171TIP3    H124466   2.209   5.969   3.468  1.4975 -1.1123 -0.2328
 8171TIP3    H224467   2.187   5.957   3.618 -0.9420  1.3566 -0.3395
 8172TIP3   OH224468   4.064   0.099   4.310 -0.7743 -0.0883  0.1212
 8172TIP3    H124469   4.102   0.090   4.397  1.9575  0.5905 -0.9372
 8172TIP3    H224470   4.057   0.009   4.277 -0.3734 -0.2488  0.4676
 8173TIP3   OH224471   1.684   7.308   4.481  0.2460 -0.1523  0.3623
 8173TIP3    H124472   1.653   7.232   4.529  0.4502  0.0306  0.7824
 8173TIP3    H224473   1.648   7.383   4.528 -0.5773 -0.0124 -0.4904
 8174TIP3   OH224474   5.767   6.806   4.777  0.3388  0.1960 -0.3773
 8174TIP3    H124475   5.839   6.851   4.821 -0.1219  0.4861  0.0872
 8174TIP3    H224476   5.806   6.770   4.697  0.7474  1.3211 -0.6952
 8175TIP3   OH224477   0.965   0.467   4.905  0.3405 -0.8583  0.0408
 8175TIP3    H124478   0.983   0.424   4.822 -0.7470 -0.2000 -0.5454
 8175TIP3    H224479   0.949   0.558   4.882  1.8533 -0.2713  1.1853
 8176TIP3   OH224480   0.161   7.235   5.583 -0.1674  0.3039 -0.2630
 8176TIP3    H124481   0.108   7.161   5.613 -0.9426  0.9003 -0.1162
 8176TIP3    H224482   0.247   7.222   5.623 -1.0382  0.8192  1.8622
 8177TIP3   OH224483   7.082   6.161   4.221 -0.1762  0.1135  0.7019
 8177TIP3    H124484   7.025   6.098   4.265  1.3917 -1.1802  0.9407
 8177TIP3    H224485   7.121   6.112   4.149  0.5642  0.9998  0.4911
 8178TIP3   OH224486   2.893   5.472   3.228  0.1389 -0.3098 -0.4381
 8178TIP3    H124487   2.880   5.550   3.281  0.0880  0.4306 -1.5139
 8178TIP3    H224488   2.975   5.489   3.181  0.2132 -0.9805 -0.5594
 8179TIP3   OH224489   2.908   0.499   5.500 -0.6069 -0.0536 -0.4067
 8179TIP3    H124490   2.992   0.455   5.492  0.6069  2.0913  0.1756
 8179TIP3    H224491   2.859   0.448   5.564  1.0482 -0.1280  0.8095
 8180TIP3   OH224492   3.061   0.618   4.761 -0.2644 -0.1089  0.0225
 8180TIP3    H124493   2.991   0.617   4.826 -0.8700  2.5358 -0.5232
 8180TIP3    H224494   3.016   0.606   4.677  0.1455 -0.3455 -0.1634
 8181TIP3   OH224495   5.445   0.906   4.352  0.0650  0.1098 -0.1409
 8181TIP3    H124496   5.452   0.954   4.434 -0.4933  0.1839 -0.1309
 8181TIP3    H224497   5.353   0.917   4.326 -0.6651 -2.8091  1.0142
 8182TIP3   OH224498   2.707   6.878   5.425  0.3957  0.1006  0.1021
 8182TIP3    H124499   2.735   6.871   5.333  1.1078 -0.9284  0.3950
 8182TIP3    H224500   2.785   6.909   5.471  1.0224 -2.5513  0.8860
 8183TIP3   OH224501   7.647   6.393   3.872 -0.5682 -0.4842  0.1203
 8183TIP3    H124502   7.705   6.317   3.878  0.6684  0.4868  0.6251
 8183TIP3    H224503   7.565   6.365   3.913  0.0828 -1.3415  0.8224
 8184TIP3   OH224504   2.337   2.403   5.535 -0.0171 -0.5250  1.0338
 8184TIP3    H124505   2.292   2.356   5.605  0.2329  0.5605  1.9392
 8184TIP3    H224506   2.394   2.337   5.495 -2.0934 -1.7948  0.1364
 8185TIP3   OH224507   1.042   6.152   4.463  0.4682 -0.1179 -0.1849
 8185TIP3    H124508   1.011   6.178   4.376  0.3630  0.6351  0.0777
 8185TIP3    H224509   1.002   6.066   4.477  0.9935 -0.5305 -1.1411
 8186TIP3   OH224510   5.431   2.547   0.349 -0.6369 -0.1550  0.1583
 8186TIP3    H124511   5.506   2.534   0.407 -0.2961  0.0504 -0.2304
 8186TIP3    H224512   5.419   2.642   0.346  0.4458 -0.0403 -1.4647
 8187TIP3   OH224513   0.543   6.708   2.491 -0.0199 -0.1667 -0.1555
 8187TIP3    H124514   0.476   6.681   2.428 -0.9683 -0.5384  1.0089
 8187TIP3    H224515   0.536   6.804   2.494 -0.3611 -0.1899 -0.1844
 8188TIP3   OH224516   6.742   0.612   4.200  0.2398 -0.1140 -0.2947
 8188TIP3    H124517   6.757   0.632   4.107 -0.5823  1.9544 -0.0160
 8188TIP3    H224518   6.816   0.654   4.244  0.9313 -1.5727 -0.0418
 8189TIP3   OH224519   3.299   7.092   3.963  0.1704  0.2523 -0.0180
 8189TIP3    H124520   3.341   7.169   4.001 -0.5971 -0.2262  1.8471
 8189TIP3    H224521   3.368   7.048   3.914  1.4316  0.3923  1.6098
 8190TIP3   OH224522   2.908   6.933   2.161 -0.3924  0.4330 -0.0688
 8190TIP3    H124523   2.925   6.999   2.094 -0.0561 -0.5376 -0.9457
 8190TIP3    H224524   2.812   6.930   2.167 -0.4382  0.1427 -0.8900
 8191TIP3   OH224525   4.390   1.785   5.058  0.2878 -0.5274  0.6127
 8191TIP3    H124526   4.391   1.868   5.010 -2.0916 -0.0117  1.3972
 8191TIP3    H224527   4.468   1.789   5.114  1.0617  0.4586 -0.5044
 8192TIP3   OH224528   1.141   5.472   5.156  0.3404 -0.1592 -0.6639
 8192TIP3    H124529   1.126   5.389   5.110  1.4523 -0.8924  0.2662
 8192TIP3    H224530   1.100   5.460   5.241  1.3727 -0.1488 -0.1527
 8193TIP3   OH224531   6.066   0.181   4.056 -0.7573 -0.0155  0.0647
 8193TIP3    H124532   6.024   0.132   4.127 -2.1392  1.5009  0.3399
 8193TIP3    H224533   6.107   0.256   4.099 -0.0486 -0.0517 -0.5357
 8194TIP3   OH224534   5.697   3.264   0.665 -0.5118 -0.2596  0.1928
 8194TIP3    H124535   5.719   3.348   0.706  2.4696  0.3093 -2.3988
 8194TIP3    H224536   5.629   3.285   0.602 -2.0832 -0.3964  1.8091
 8195TIP3   OH224537   2.625   7.343   3.214  0.1306  0.8406  0.1864
 8195TIP3    H124538   2.613   7.426   3.260  0.1741  1.1656 -0.3807
 8195TIP3    H224539   2.682   7.292   3.270  1.7230  1.9533 -0.3926
 8196TIP3   OH224540   3.465   0.389   5.906  0.2793 -0.2619 -0.1192
 8196TIP3    H124541   3.469   0.482   5.885 -0.9076 -0.0470  0.5852
 8196TIP3    H224542   3.380   0.377   5.947  0.7423 -1.5238  0.4959
 8197TIP3   OH224543   4.638   6.793   5.194 -0.0480  0.0880  0.3481
 8197TIP3    H124544   4.547   6.771   5.175  0.4493  0.6691 -3.0194
 8197TIP3    H224545   4.679   6.710   5.217 -1.3556 -0.2178  1.6190
 8198TIP3   OH224546   2.945   6.396   3.057 -0.0631 -0.0479  0.2862
 8198TIP3    H124547   2.851   6.382   3.047 -0.1204  0.3661  0.2209
 8198TIP3    H224548   2.952   6.472   3.114  0.2159  0.7688 -0.8253
 8199TIP3   OH224549   5.560   1.078   1.553 -0.1677  0.3152  0.4300
 8199TIP3    H124550   5.611   1.001   1.527 -1.6365 -0.3663 -0.5308
 8199TIP3    H224551   5.568   1.081   1.648  0.7746 -0.4161  0.3801
 8200TIP3   OH224552   4.216   1.047   1.942 -0.8727 -0.3047  0.4130
 8200TIP3    H124553   4.305   1.079   1.958 -1.8263  2.8599 -0.1480
 8200TIP3    H224554   4.227   0.957   1.912  2.2317  0.5356 -1.1305
 8201TIP3   OH224555   6.152   1.493   5.252  0.0673  0.2924  1.0309
 8201TIP3    H124556   6.132   1.446   5.170  0.8388 -0.7494  1.4242
 8201TIP3    H224557   6.073   1.544   5.270 -0.7256 -0.7087  0.4743
 8202TIP3   OH224558   3.547   6.805   6.144 -0.0884  0.1254 -0.2565
 8202TIP3    H124559   3.481   6.740   6.123 -0.4333  0.8225 -1.3840
 8202TIP3    H224560   3.629   6.756   6.148 -0.0197 -0.0978 -3.1878
 8203TIP3   OH224561   6.533   1.792   4.110 -0.0317 -0.5452  0.3295
 8203TIP3    H124562   6.454   1.770   4.159 -0.5765 -0.7598 -0.6167
 8203TIP3    H224563   6.504   1.795   4.018  0.4709  2.1020  0.2171
 8204TIP3   OH224564   5.653   0.099   4.547  0.4642 -0.6955 -0.3809
 8204TIP3    H124565   5.689   0.021   4.505 -0.5555 -1.2781 -0.1853
 8204TIP3    H224566   5.730   0.148   4.578  1.0928 -1.8458 -0.1074
 8205TIP3   OH224567   2.144   5.043   2.081  0.2078  0.0109  0.7752
 8205TIP3    H124568   2.211   5.101   2.117  0.6317 -1.7445  2.9177
 8205TIP3    H224569   2.124   5.080   1.996  2.2859  1.8532  1.0357
 8206TIP3   OH224570   2.633   5.832   2.943  0.2271 -0.5344  0.0524
 8206TIP3    H124571   2.672   5.898   3.000  2.4236 -1.0996 -0.7499
 8206TIP3    H224572   2.583   5.776   3.003 -0.3078  0.8694  0.9422
 8207TIP3   OH224573   3.284   0.543   2.994 -0.2547  0.2139 -0.3321
 8207TIP3    H124574   3.195   0.518   2.970  0.7861 -0.8287 -3.3313
 8207TIP3    H224575   3.297   0.628   2.951  0.7240 -0.4085 -1.3008
 8208TIP3   OH224576   3.290   0.131   3.576  0.3792 -0.4560  0.0359
 8208TIP3    H124577   3.332   0.149   3.660 -0.6892 -1.0720  0.7254
 8208TIP3    H224578   3.330   0.050   3.545  0.5592 -0.3924  0.1037
 8209TIP3   OH224579   5.453   0.767   3.185  0.2444  0.6812 -0.3716
 8209TIP3    H124580   5.516   0.838   3.180  1.1796 -0.1572 -0.5414
 8209TIP3    H224581   5.487   0.699   3.126 -0.9377  0.3212 -0.6750
 8210TIP3   OH224582   1.704   6.514   3.888 -0.1562 -0.2317  0.7562
 8210TIP3    H124583   1.739   6.448   3.948  0.7666 -0.3408  0.1087
 8210TIP3    H224584   1.781   6.560   3.855 -0.7560  0.7708  0.7410
 8211TIP3   OH224585   1.234   6.253   4.921  0.3714 -0.1136 -0.1672
 8211TIP3    H124586   1.173   6.241   4.994 -0.6166  2.4424 -0.5245
 8211TIP3    H224587   1.218   6.178   4.864 -0.1975 -1.1267  1.2906
 8212TIP3   OH224588   4.116   0.969   4.392  0.1375 -0.0283  0.3107
 8212TIP3    H124589   4.207   0.941   4.383  0.4442  1.0002  0.0845
 8212TIP3    H224590   4.066   0.904   4.344  0.8779  0.0748 -0.6186
 8213TIP3   OH224591   4.741   0.723   3.015 -0.3906  0.2004 -0.7570
 8213TIP3    H124592   4.762   0.638   3.055 -1.7902  0.1110 -0.1959
 8213TIP3    H224593   4.666   0.705   2.959 -0.5961  1.0433 -0.7527
 8214TIP3   OH224594   4.897   1.569   3.076 -0.4461 -0.3580  0.1635
 8214TIP3    H124595   4.838   1.641   3.099 -0.9826 -1.1059  1.1701
 8214TIP3    H224596   4.982   1.596   3.110 -0.1912  0.7493 -1.3338
 8215TIP3   OH224597   2.218   0.805   3.481 -0.0433  0.6983  0.8803
 8215TIP3    H124598   2.299   0.762   3.451 -0.8679 -0.6021  0.4837
 8215TIP3    H224599   2.159   0.733   3.501 -1.2141  1.6519  0.8828
 8216TIP3   OH224600   5.076   0.611   1.711  0.9720  0.6264 -0.0941
 8216TIP3    H124601   5.171   0.608   1.715  0.9048  0.0116  1.2578
 8216TIP3    H224602   5.047   0.553   1.781 -0.4033 -0.6426 -1.6735
 8217TIP3   OH224603   3.108   2.070   2.908  0.0231  0.4417  0.0981
 8217TIP3    H124604   3.099   2.031   2.995 -1.9593 -0.3725 -0.4383
 8217TIP3    H224605   3.101   2.165   2.923 -0.0068  0.3182  0.8591
 8218TIP3   OH224606   1.407   5.160   3.191  0.1624 -0.4495 -0.0617
 8218TIP3    H124607   1.402   5.088   3.128  0.5147 -0.3458 -0.2096
 8218TIP3    H224608   1.501   5.181   3.196  0.0256  0.2077 -0.2556
 8219TIP3   OH224609   4.446   0.650   3.438  0.4691 -0.7187  0.6293
 8219TIP3    H124610   4.495   0.570   3.420  0.4918 -0.9828  1.8306
 8219TIP3    H224611   4.369   0.644   3.381  0.3473 -1.7158  0.8804
 8220TIP3   OH224612   7.741   0.751   3.012 -0.2007 -0.2835  0.1261
 8220TIP3    H124613   7.830   0.744   3.048  0.1783  0.9637 -0.5311
 8220TIP3    H224614   7.753   0.762   2.918 -1.0167  0.7191  0.1286
 8221TIP3   OH224615   4.707   0.185   3.355 -0.0492 -0.3982  0.6682
 8221TIP3    H124616   4.746   0.257   3.305  0.3644 -0.6626  0.6022
 8221TIP3    H224617   4.782   0.137   3.390 -0.2725 -1.8041 -0.7223
 8222TIP3   OH224618   1.276   7.105   2.831  0.2245  0.0750  0.1251
 8222TIP3    H124619   1.246   7.174   2.772 -0.9512  0.9383  1.6977
 8222TIP3    H224620   1.371   7.115   2.834  0.0156  2.0747  0.8747
 8223TIP3   OH224621   5.266   0.287   2.217 -0.0460 -0.6854 -0.0303
 8223TIP3    H124622   5.328   0.342   2.168 -1.6783  0.0109 -1.3481
 8223TIP3    H224623   5.322   0.233   2.274  1.7779 -0.2108 -1.3301
 8224TIP3   OH224624   3.955   1.388   3.629  0.8504 -0.1955 -0.3177
 8224TIP3    H124625   4.008   1.319   3.670 -0.2000 -1.8122 -1.6408
 8224TIP3    H224626   3.865   1.361   3.646  0.4385  1.1534 -0.3725
 8225TIP3   OH224627   2.652   6.189   2.513  0.1663 -0.0952  0.1900
 8225TIP3    H124628   2.689   6.257   2.457 -0.2882  0.9963  1.2002
 8225TIP3    H224629   2.601   6.237   2.578 -0.5947 -1.4339  0.5896
 8226TIP3   OH224630   6.298   0.334   5.111 -0.0700 -0.3295  0.3675
 8226TIP3    H124631   6.373   0.357   5.166  0.7222 -0.7209 -0.5307
 8226TIP3    H224632   6.329   0.259   5.059 -0.9895 -0.3214 -0.1991
 8227TIP3   OH224633   0.736   5.388   3.584 -0.0192  0.0777 -0.3184
 8227TIP3    H124634   0.725   5.393   3.679  0.1297 -0.0972 -0.2916
 8227TIP3    H224635   0.722   5.478   3.554 -1.8204 -0.1848 -0.3181
 8228TIP3   OH224636   2.279   6.753   5.061 -0.3135  0.0048  0.0809
 8228TIP3    H124637   2.331   6.791   4.990  0.1776 -0.0774  0.3970
 8228TIP3    H224638   2.196   6.801   5.058  0.1662  0.8437  0.2396
 8229TIP3   OH224639   6.741   7.174   4.475  0.1417 -0.2572 -0.3580
 8229TIP3    H124640   6.657   7.174   4.428  0.7862 -1.1139 -1.5373
 8229TIP3    H224641   6.797   7.231   4.424  0.7032 -0.8145 -0.3668
 8230TIP3   OH224642   0.944   6.501   3.623 -0.6795  0.2841 -0.2393
 8230TIP3    H124643   0.942   6.408   3.648 -1.2103  0.2435 -0.4425
 8230TIP3    H224644   0.852   6.527   3.620 -0.5562  0.6470 -0.8178
 8231TIP3   OH224645   5.524   0.280   5.881  0.8266  0.2582  0.3898
 8231TIP3    H124646   5.461   0.227   5.832 -0.4368 -0.6365  2.9032
 8231TIP3    H224647   5.543   0.354   5.824 -2.8498  0.7810 -0.2282
 8232TIP3   OH224648   0.348   6.562   2.025  0.1536  0.3222 -0.5341
 8232TIP3    H124649   0.371   6.633   1.964 -0.9277  1.0555 -0.0895
 8232TIP3    H224650   0.366   6.599   2.111  2.1322 -0.8794 -0.3958
 8233TIP3   OH224651   5.255   5.279   4.523 -0.1652 -0.0130  0.8511
 8233TIP3    H124652   5.302   5.248   4.601  0.5080 -0.5387  0.2356
 8233TIP3    H224653   5.169   5.305   4.557  0.8850  1.9429  2.1753
 8234TIP3   OH224654   1.346   6.386   3.419  0.2415  0.8832 -0.2068
 8234TIP3    H124655   1.410   6.453   3.445 -0.1905  1.0033  0.5646
 8234TIP3    H224656   1.261   6.429   3.427 -0.0414  0.2427  0.3178
 8235TIP3   OH224657   1.425   6.586   5.013 -0.3109  0.0298 -0.5328
 8235TIP3    H124658   1.416   6.551   4.924  0.4670  1.8023 -1.3341
 8235TIP3    H224659   1.517   6.614   5.019 -0.4209  0.1582  0.7485
 8236TIP3   OH224660   0.187   6.123   4.399  0.5624  0.3660 -0.0605
 8236TIP3    H124661   0.250   6.054   4.420  1.2469  1.1549  0.5091
 8236TIP3    H224662   0.202   6.190   4.466 -0.6333  0.7199 -0.1401
 8237TIP3   OH224663   0.733   7.222   5.095 -0.1156 -0.0318 -0.2988
 8237TIP3    H124664   0.734   7.197   5.187  1.2099  0.1809 -0.2446
 8237TIP3    H224665   0.697   7.146   5.050 -2.4163  0.4931  0.5480
 8238TIP3   OH224666   1.754   3.504   1.929  0.0507 -0.7202 -0.1497
 8238TIP3    H124667   1.775   3.488   1.837  1.1698  2.8362 -0.5706
 8238TIP3    H224668   1.837   3.495   1.975 -0.2095 -0.9234  0.2806
 8239TIP3   OH224669   3.436   5.588   4.775 -0.2660 -0.1754  0.7371
 8239TIP3    H124670   3.346   5.595   4.805 -0.5681  2.0760 -0.6058
 8239TIP3    H224671   3.486   5.645   4.834 -0.0239  0.0451  0.3217
 8240TIP3   OH224672   6.550   3.993   0.493 -0.1435 -0.0037  0.6476
 8240TIP3    H124673   6.570   3.899   0.496 -1.1764 -0.2548  0.0554
 8240TIP3    H224674   6.470   4.002   0.545 -0.1061  0.5373  0.6111
 8241TIP3   OH224675   6.228   0.735   4.817  0.0429 -0.6795  0.4620
 8241TIP3    H124676   6.151   0.752   4.764  0.1863 -1.2679  0.0590
 8241TIP3    H224677   6.279   0.815   4.812 -1.4841  0.4459  2.3551
 8242TIP3   OH224678   1.788   6.011   4.895 -0.2053 -0.2231  0.1111
 8242TIP3    H124679   1.749   5.937   4.849  1.9496 -0.0592 -2.0597
 8242TIP3    H224680   1.795   6.079   4.828  0.2243  1.0503  1.4401
 8243TIP3   OH224681   2.332   7.303   4.530  0.8982 -0.1517  0.3815
 8243TIP3    H124682   2.296   7.230   4.480  1.7343  0.3657 -0.9929
 8243TIP3    H224683   2.275   7.377   4.508  1.0334 -0.0113  0.5018
 8244TIP3   OH224684   4.928   2.034   6.175 -0.0999  0.4962  0.6134
 8244TIP3    H124685   4.921   1.940   6.161 -0.9282  0.6735 -0.2456
 8244TIP3    H224686   4.857   2.072   6.122  1.9549  1.7997 -1.3117
 8245TIP3   OH224687   2.663   6.145   3.858  0.7512  0.7761 -0.1397
 8245TIP3    H124688   2.570   6.146   3.834  0.7487  1.3361 -0.1170
 8245TIP3    H224689   2.708   6.121   3.777  0.4931 -0.8788  0.1889
 8246TIP3   OH224690   4.022   0.324   2.233 -0.5315  0.0067  1.1273
 8246TIP3    H124691   4.073   0.288   2.305 -0.7733 -1.8938  0.3808
 8246TIP3    H224692   4.061   0.287   2.154 -1.5638  0.4047  0.4101
 8247TIP3   OH224693   2.975   5.951   3.444  0.1586  0.1953 -0.0822
 8247TIP3    H124694   3.037   5.956   3.371  1.2634  0.2477  0.8513
 8247TIP3    H224695   2.983   6.036   3.487  0.9553 -0.5398  1.2528
 8248TIP3   OH224696   5.893   2.487   5.568 -0.2445  0.0859 -0.4180
 8248TIP3    H124697   5.816   2.431   5.566 -0.0518 -0.1346 -2.2024
 8248TIP3    H224698   5.870   2.561   5.512  0.9259 -0.1027 -1.1545
 8249TIP3   OH224699   5.609   2.591   2.489  0.5251  0.2071  0.4398
 8249TIP3    H124700   5.552   2.539   2.545  1.4522 -1.6602 -0.3060
 8249TIP3    H224701   5.550   2.635   2.428 -0.2526 -0.1776  0.9144
 8250TIP3   OH224702   7.415   0.937   3.250 -0.0130  0.4351 -0.4849
 8250TIP3    H124703   7.429   0.994   3.174  0.3787 -1.3847 -1.8207
 8250TIP3    H224704   7.344   0.879   3.223 -0.6224  0.4915  0.9704
 8251TIP3   OH224705   2.087   7.318   2.766  0.2301 -0.5866 -0.2499
 8251TIP3    H124706   2.083   7.367   2.683 -0.1609  1.0719  0.7165
 8251TIP3    H224707   2.031   7.368   2.825  2.0662 -0.6366  1.5713
 8252TIP3   OH224708   4.587   6.138   3.131 -0.3012  0.1784  0.3250
 8252TIP3    H124709   4.528   6.169   3.062 -1.5161 -2.3957  0.1622
 8252TIP3    H224710   4.544   6.164   3.212 -0.3936  0.4943  0.1791
 8253TIP3   OH224711   2.942   6.576   5.563 -0.3355  0.0658  0.4755
 8253TIP3    H124712   3.000   6.541   5.631  0.4094  1.4608  0.5972
 8253TIP3    H224713   2.993   6.568   5.482 -0.6385 -0.2620  0.3204
 8254TIP3   OH224714   3.843   7.195   5.190 -0.5742 -0.0928  0.1738
 8254TIP3    H124715   3.899   7.155   5.123 -1.1624 -0.3862 -0.1491
 8254TIP3    H224716   3.859   7.142   5.268 -1.5212 -1.1370 -0.3100
 8255TIP3   OH224717   6.987   5.794   4.541 -0.3239 -0.3137 -0.3905
 8255TIP3    H124718   6.962   5.808   4.633  1.6803  0.5796  0.0431
 8255TIP3    H224719   7.040   5.870   4.519 -1.4321 -0.1387 -2.5534
 8256TIP3   OH224720   5.908   1.148   5.542  0.3721  0.1249 -0.2044
 8256TIP3    H124721   5.846   1.120   5.474 -0.7099  0.6834  0.5550
 8256TIP3    H224722   5.988   1.100   5.521 -1.0350 -2.5833  0.2706
 8257TIP3   OH224723   6.325   0.520   1.894  0.9322  0.1914 -0.2955
 8257TIP3    H124724   6.311   0.555   1.982  1.4836 -1.2828  0.3950
 8257TIP3    H224725   6.286   0.585   1.836 -0.9834  0.3702  1.1271
 8258TIP3   OH224726   1.075   6.638   4.520 -0.4254  0.3557 -0.3135
 8258TIP3    H124727   1.116   6.576   4.460 -0.9472  1.3559 -1.7211
 8258TIP3    H224728   1.135   6.712   4.523  0.7271 -0.5998  2.1903
 8259TIP3   OH224729   0.134   4.706   5.689  0.1905 -0.8336 -0.1087
 8259TIP3    H124730   0.162   4.736   5.603 -2.5056 -0.2250 -0.8044
 8259TIP3    H224731   0.138   4.610   5.683 -2.0669 -0.8690 -1.6791
 8260TIP3   OH224732   1.587   6.949   2.614  0.3732 -0.6671  0.1797
 8260TIP3    H124733   1.577   7.010   2.688  0.5676 -0.5029  0.0734
 8260TIP3    H224734   1.512   6.891   2.620 -1.2008  1.1389 -1.1823
 8261TIP3   OH224735   6.466   0.289   1.752  0.2076  0.0565 -0.0880
 8261TIP3    H124736   6.430   0.360   1.805 -0.1244  0.8162 -1.3030
 8261TIP3    H224737   6.410   0.214   1.770  0.2608  0.2268  0.8270
 8262TIP3   OH224738   5.900   1.731   1.511  0.1133 -0.0399 -0.1158
 8262TIP3    H124739   5.935   1.655   1.557 -0.1828 -0.3395 -0.3818
 8262TIP3    H224740   5.807   1.712   1.500 -0.0910  0.6619  0.4041
 8263TIP3   OH224741   2.381   5.609   2.839 -0.3681  0.2307 -0.3197
 8263TIP3    H124742   2.419   5.645   2.919 -1.4488 -1.0709  0.8210
 8263TIP3    H224743   2.412   5.518   2.837 -0.3846  0.2450 -1.3552
 8264TIP3   OH224744   5.316   7.247   1.491  0.2765  0.6101  0.5963
 8264TIP3    H124745   5.344   7.311   1.426  0.9643  0.6737  0.9528
 8264TIP3    H224746   5.278   7.300   1.562 -0.7418  0.5242  0.1190
 8265TIP3   OH224747   2.131   6.282   4.198 -0.0666 -0.1812  0.1699
 8265TIP3    H124748   2.175   6.365   4.217 -0.4906 -0.3181  1.8618
 8265TIP3    H224749   2.170   6.252   4.116  1.7020  0.5985  0.6921
 8266TIP3   OH224750   6.014   4.597   2.462 -0.3568 -0.4598 -0.7648
 8266TIP3    H124751   6.101   4.559   2.480  0.0524  0.9350  0.3250
 8266TIP3    H224752   5.953   4.524   2.475  0.5769 -1.2211 -0.5799
 8267TIP3   OH224753   2.271   7.259   2.946  0.1378 -0.2950 -0.1778
 8267TIP3    H124754   2.253   7.166   2.932  2.8710 -0.5627 -2.2123
 8267TIP3    H224755   2.225   7.303   2.874  1.1000 -0.3071 -0.8010
 8268TIP3   OH224756   4.367   0.133   2.692 -0.1192 -0.4524  0.0267
 8268TIP3    H124757   4.303   0.065   2.712 -0.5263  0.5625  2.3296
 8268TIP3    H224758   4.326   0.215   2.722  1.8961  0.3218  0.7915
 8269TIP3   OH224759   0.415   6.579   5.614 -0.1957  0.0386  0.3709
 8269TIP3    H124760   0.339   6.538   5.571  0.8999  0.7835 -2.4166
 8269TIP3    H224761   0.439   6.650   5.555  2.8880 -0.3987  1.0438
 8270TIP3   OH224762   5.499   0.664   4.171  0.2435  0.0910 -0.1385
 8270TIP3    H124763   5.474   0.664   4.263 -0.9070 -1.1543 -0.4352
 8270TIP3    H224764   5.580   0.612   4.167  1.2491  1.5749  0.3880
 8271TIP3   OH224765   5.552   1.067   3.516  0.4667  0.1911  0.3569
 8271TIP3    H124766   5.555   1.138   3.452  1.7111 -1.0480 -0.9839
 8271TIP3    H224767   5.635   1.073   3.562  0.5264 -0.3245  0.3187
 8272TIP3   OH224768   2.668   5.646   3.791 -0.5646  0.3850  0.3602
 8272TIP3    H124769   2.574   5.630   3.786 -0.3139 -0.9731 -0.2043
 8272TIP3    H224770   2.706   5.580   3.734  0.6710  1.5609 -0.2017
 8273TIP3   OH224771   4.767   0.632   4.015 -0.2550  0.0920 -0.4588
 8273TIP3    H124772   4.729   0.678   4.090 -1.8144 -1.0421 -0.5144
 8273TIP3    H224773   4.711   0.657   3.941  0.8676  0.6749 -1.1112
 8274TIP3   OH224774   2.125   0.531   3.266 -0.6416  0.3871  0.1161
 8274TIP3    H124775   2.054   0.559   3.208  0.1232  0.8143 -0.6307
 8274TIP3    H224776   2.204   0.538   3.212  0.1342  1.2020  1.3312
 8275TIP3   OH224777   0.564   5.640   4.038 -0.2572  0.5800 -0.1983
 8275TIP3    H124778   0.572   5.622   4.132  1.9967  0.7880 -0.3306
 8275TIP3    H224779   0.484   5.595   4.012  0.1166 -1.0794  1.4465
 8276TIP3   OH224780   4.914   0.197   3.049  0.4467 -0.0434 -0.1638
 8276TIP3    H124781   4.860   0.263   3.094  1.5155  0.1829  0.8044
 8276TIP3    H224782   4.889   0.114   3.091 -0.5348 -0.2125 -1.0423
 8277TIP3   OH224783   5.654   1.645   5.113 -1.1896 -0.2079 -0.4781
 8277TIP3    H124784   5.648   1.554   5.142 -1.6770 -0.8128 -2.3924
 8277TIP3    H224785   5.575   1.687   5.149 -1.5415 -0.8252 -0.5145
 8278TIP3   OH224786   5.064   6.394   4.336  0.0152 -0.0504 -0.0801
 8278TIP3    H124787   4.996   6.456   4.310  0.4035  0.1392 -0.6399
 8278TIP3    H224788   5.126   6.393   4.263  0.3070 -0.6711  0.1682
 8279TIP3   OH224789   6.793   3.569   2.400 -0.1245 -0.0644 -0.3939
 8279TIP3    H124790   6.782   3.494   2.459  0.4726  1.3345  1.5257
 8279TIP3    H224791   6.751   3.541   2.318 -1.6256 -1.7641  0.9102
 8280TIP3   OH224792   7.601   2.583   1.575  0.7284 -0.3209 -0.6143
 8280TIP3    H124793   7.600   2.491   1.601 -0.3998 -0.4814 -1.1989
 8280TIP3    H224794   7.545   2.587   1.497 -1.4606  1.2925  0.9720
 8281TIP3   OH224795   6.397   7.361   4.548 -0.4351  0.4726 -0.1292
 8281TIP3    H124796   6.323   7.337   4.492  0.3717 -1.1733 -0.5386
 8281TIP3    H224797   6.425   7.446   4.515 -0.9268  0.2261 -1.2328
 8282TIP3   OH224798   5.518   2.379   2.672  0.0615 -0.4983 -0.0136
 8282TIP3    H124799   5.442   2.323   2.683 -2.0040  1.5304 -3.1065
 8282TIP3    H224800   5.519   2.435   2.750 -0.3943 -1.9014  1.0009
 8283TIP3   OH224801   4.717   6.048   4.387  0.3491 -0.0767  0.2503
 8283TIP3    H124802   4.785   6.114   4.393  0.2419  0.3505 -2.8346
 8283TIP3    H224803   4.635   6.096   4.396  0.3552 -0.4234  2.5874
 8284TIP3   OH224804   2.259   7.275   3.386 -0.7015 -0.5155  0.0884
 8284TIP3    H124805   2.323   7.216   3.427  0.2198  0.9397  0.7703
 8284TIP3    H224806   2.179   7.263   3.438  0.3017  0.9193  2.0395
 8285TIP3   OH224807   4.121   7.203   2.316  0.5920 -0.0858 -0.3885
 8285TIP3    H124808   4.151   7.271   2.377 -0.5621  0.8001 -0.7865
 8285TIP3    H224809   4.048   7.243   2.270  0.9592 -1.0240 -1.8215
 8286TIP3   OH224810   5.601   0.628   5.095  0.1804  0.6612 -0.5016
 8286TIP3    H124811   5.571   0.559   5.035  0.3347 -1.8264  2.1487
 8286TIP3    H224812   5.695   0.612   5.105  0.2841  1.4691 -0.1176
 8287TIP3   OH224813   6.810   2.074   3.133 -0.0754 -0.3416  0.1805
 8287TIP3    H124814   6.828   2.048   3.043  0.4968 -0.1253  0.2282
 8287TIP3    H224815   6.819   1.993   3.184  0.0122 -0.3855  0.0954
 8288TIP3   OH224816   3.703   6.828   3.239 -0.0396  0.2406 -0.7681
 8288TIP3    H124817   3.753   6.748   3.218  1.8063  1.0809  0.3618
 8288TIP3    H224818   3.757   6.899   3.205 -0.3906  1.1856  0.6507
 8289TIP3   OH224819   3.167   6.869   2.625 -0.1157 -0.7208  0.6709
 8289TIP3    H124820   3.099   6.805   2.647 -0.3925 -0.9072 -0.6291
 8289TIP3    H224821   3.153   6.886   2.532 -0.2160  1.4579  1.0694
 8290TIP3   OH224822   7.163   0.279   0.543  0.1304 -0.2562  0.1124
 8290TIP3    H124823   7.228   0.319   0.600 -0.9163 -1.1491  1.9670
 8290TIP3    H224824   7.200   0.287   0.455  0.9570  2.7090  0.6978
 8291TIP3   OH224825   5.905   6.183   2.291 -0.0154  0.4617 -0.5261
 8291TIP3    H124826   5.988   6.175   2.338 -1.4924 -0.3521  2.0200
 8291TIP3    H224827   5.878   6.274   2.305 -0.7319  0.0637  0.6733
 8292TIP3   OH224828   5.442   1.734   1.985 -0.4178 -0.0652  0.1188
 8292TIP3    H124829   5.351   1.706   1.999 -1.1372  2.1236  0.1177
 8292TIP3    H224830   5.449   1.815   2.036  1.2717  0.2588 -0.6222
 8293TIP3   OH224831   3.482   6.476   6.249 -0.7536 -0.5738  0.1033
 8293TIP3    H124832   3.417   6.407   6.263  2.1713 -3.3366  0.3811
 8293TIP3    H224833   3.498   6.476   6.155 -2.2773  1.2153 -0.1885
 8294TIP3   OH224834   4.362   6.607   5.448 -0.0166  0.1838 -0.0257
 8294TIP3    H124835   4.277   6.565   5.434  0.5090 -0.8517 -0.1810
 8294TIP3    H224836   4.396   6.567   5.528  1.5250 -1.4661 -1.4376
 8295TIP3   OH224837   7.093   0.443   0.968 -0.6332 -0.2949  0.4935
 8295TIP3    H124838   7.103   0.496   1.047  2.1020 -1.8833  1.2676
 8295TIP3    H224839   7.139   0.493   0.900  0.1583 -0.6715  0.7491
 8296TIP3   OH224840   2.469   6.082   1.261 -0.9439  0.1130  0.2999
 8296TIP3    H124841   2.515   6.011   1.305 -0.4525  0.3511  0.1720
 8296TIP3    H224842   2.404   6.112   1.324 -1.1409 -0.4407  0.3593
 8297TIP3   OH224843   5.715   0.065   3.706  0.4975 -0.3700  0.2129
 8297TIP3    H124844   5.712   0.015   3.625  1.2983  0.2740 -0.2186
 8297TIP3    H224845   5.624   0.072   3.733  0.2580 -0.8707 -0.4551
 8298TIP3   OH224846   3.457   7.191   2.792 -0.0571  0.1671  0.8819
 8298TIP3    H124847   3.533   7.233   2.751 -2.5146  0.2828 -4.0080
 8298TIP3    H224848   3.406   7.264   2.827 -0.6566  0.6405 -0.9252
 8299TIP3   OH224849   6.365   0.289   4.006 -0.6122 -0.1094  0.5257
 8299TIP3    H124850   6.310   0.308   4.081 -2.2431 -0.4796 -0.5648
 8299TIP3    H224851   6.343   0.200   3.981 -0.5133  0.2077 -0.7411
 8300TIP3   OH224852   5.794   0.346   3.695  0.3750 -0.3080 -0.1734
 8300TIP3    H124853   5.738   0.269   3.708  0.3013 -0.6656 -2.3734
 8300TIP3    H224854   5.882   0.316   3.720 -0.1906 -0.0625  2.2563
 8301TIP3   OH224855   7.091   0.209   4.044  0.3385  0.4179 -0.0985
 8301TIP3    H124856   7.164   0.186   3.987 -0.2197  0.0844 -0.6840
 8301TIP3    H224857   7.130   0.221   4.131  0.8563 -1.2348 -0.1046
 8302TIP3   OH224858   3.706   4.265   4.749 -0.1531 -0.5969 -0.2088
 8302TIP3    H124859   3.722   4.240   4.658 -1.4868 -1.9676 -0.0897
 8302TIP3    H224860   3.787   4.242   4.795  0.5370  0.1282 -1.0426
 8303TIP3   OH224861   4.028   6.908   4.167 -0.4601 -0.0823 -0.0007
 8303TIP3    H124862   4.016   6.865   4.251  0.7620 -0.5018 -0.0164
 8303TIP3    H224863   4.037   7.001   4.188 -0.8450 -0.1085  0.2677
 8304TIP3   OH224864   5.845   1.589   3.542 -0.2040  0.0983  0.1459
 8304TIP3    H124865   5.821   1.573   3.451  1.6108 -1.1757 -0.1364
 8304TIP3    H224866   5.937   1.616   3.538 -0.7541  2.3453  1.4054
 8305TIP3   OH224867   4.725   6.151   4.131  0.3789  0.1523  0.4677
 8305TIP3    H124868   4.740   6.097   4.053  0.8276  0.6533  0.2100
 8305TIP3    H224869   4.719   6.087   4.202  3.1072 -0.1333  0.4986
 8306TIP3   OH224870   6.875   1.446   2.166  0.0433  0.5283  0.1888
 8306TIP3    H124871   6.871   1.470   2.074 -1.0994 -0.2443  0.0247
 8306TIP3    H224872   6.961   1.405   2.177 -0.2636 -0.3853 -0.7914
 8307TIP3   OH224873   7.519   0.076   2.248  0.1911  0.5055 -0.3253
 8307TIP3    H124874   7.609   0.044   2.249  0.3817  1.0468 -0.0038
 8307TIP3    H224875   7.489   0.061   2.158  0.4749 -0.0193 -0.3306
 8308TIP3   OH224876   6.070   0.818   2.159 -0.3360 -0.1637  0.0647
 8308TIP3    H124877   6.001   0.879   2.186 -1.0133 -1.0961  0.4710
 8308TIP3    H224878   6.038   0.781   2.077 -0.3993 -0.7048  0.3302
 8309TIP3   OH224879   7.115   0.314   6.468 -0.2376  0.6939 -0.0834
 8309TIP3    H124880   7.111   0.329   6.373  0.1029  0.6566 -0.1055
 8309TIP3    H224881   7.164   0.232   6.477 -1.4157 -0.0020  0.0699
 8310TIP3   OH224882   2.671   6.598   4.035  0.3419 -0.1632 -0.0633
 8310TIP3    H124883   2.718   6.519   4.060 -1.0244 -1.0915 -0.3823
 8310TIP3    H224884   2.646   6.639   4.117 -1.7347 -1.7558  0.1316
 8311TIP3   OH224885   3.788   7.207   4.376 -0.1655  0.4244 -0.4240
 8311TIP3    H124886   3.814   7.213   4.468  0.5578  1.2752 -0.6769
 8311TIP3    H224887   3.695   7.184   4.379 -0.7239  2.6367  0.5472
 8312TIP3   OH224888   2.979   7.063   3.548  0.0510  0.2388  0.3237
 8312TIP3    H124889   3.045   7.024   3.491 -0.3640 -0.5336  0.3706
 8312TIP3    H224890   3.022   7.069   3.634  0.7567  1.6234 -0.1123
 8313TIP3   OH224891   4.425   7.209   2.641 -0.4553 -0.3910  0.1853
 8313TIP3    H124892   4.373   7.259   2.578 -0.4466 -0.3074  0.2436
 8313TIP3    H224893   4.460   7.136   2.590 -0.4441 -0.3217  0.0918
 8314TIP3   OH224894   0.756   3.873   5.011  0.4001  0.2757 -0.0475
 8314TIP3    H124895   0.726   3.952   4.966  0.0435 -0.2029 -0.6668
 8314TIP3    H224896   0.840   3.897   5.050  0.3175  0.9399 -0.2840
 8315TIP3   OH224897   0.803   1.783   5.266 -0.3013 -0.7070 -0.0693
 8315TIP3    H124898   0.760   1.714   5.318 -1.2318 -1.0141 -1.2169
 8315TIP3    H224899   0.780   1.864   5.310  0.4529 -1.0988  1.0586
 8316TIP3   OH224900   3.700   7.399   3.248  0.1534 -0.3249 -0.2806
 8316TIP3    H124901   3.744   7.375   3.329  1.1648 -0.2081 -0.7902
 8316TIP3    H224902   3.607   7.381   3.265  0.2735  0.3539  1.1254
 8317TIP3   OH224903   5.299   0.240   3.734  0.4845  0.0374  0.0299
 8317TIP3    H124904   5.314   0.329   3.701  0.8295  0.0215  0.1370
 8317TIP3    H224905   5.234   0.250   3.803  2.5243  0.5887  1.9407
 8318TIP3   OH224906   4.018   5.757   2.572  0.8862 -0.1510 -0.5993
 8318TIP3    H124907   3.952   5.801   2.626 -0.5513 -0.2875 -2.2064
 8318TIP3    H224908   4.070   5.706   2.634 -0.3557  0.1822  0.7294
 8319TIP3   OH224909   0.671   0.336   2.837  0.0376 -0.3820 -0.4769
 8319TIP3    H124910   0.626   0.420   2.849 -0.7840 -0.8871  0.0973
 8319TIP3    H224911   0.634   0.301   2.756  0.1815 -0.3047 -0.5747
 8320TIP3   OH224912   3.720   4.594   4.098 -0.1456  0.2780 -0.4977
 8320TIP3    H124913   3.660   4.526   4.127 -0.5623 -0.0708 -2.0986
 8320TIP3    H224914   3.807   4.562   4.124 -0.6308  0.9117  2.0474
 8321TIP3   OH224915   5.670   2.076   2.517 -0.1187  0.2368  0.3332
 8321TIP3    H124916   5.680   2.151   2.459  2.1690 -1.7489 -1.8940
 8321TIP3    H224917   5.583   2.041   2.497  0.2374  0.1937 -1.1648
 8322TIP3   OH224918   6.712   1.038   4.170  0.2830  0.5738  0.3678
 8322TIP3    H124919   6.729   1.132   4.177  0.4901  0.8085 -2.7081
 8322TIP3    H224920   6.791   1.002   4.129 -1.2483 -0.3420 -1.8790
 8323TIP3   OH224921   4.410   5.515   1.713 -0.6582 -0.4373  0.3928
 8323TIP3    H124922   4.470   5.588   1.727  0.2896 -1.5012  2.0197
 8323TIP3    H224923   4.466   5.438   1.712 -1.7294 -1.2219 -0.6142
 8324TIP3   OH224924   2.703   6.953   0.606  0.3577  0.4247  1.0332
 8324TIP3    H124925   2.733   6.961   0.515  1.5564  1.5896  1.5240
 8324TIP3    H224926   2.635   6.886   0.602  0.4532  0.3988 -0.7156
 8325TIP3   OH224927   1.721   6.661   5.005 -0.1977  0.3370 -0.0468
 8325TIP3    H124928   1.802   6.666   5.056 -0.6188  1.9342  0.4891
 8325TIP3    H224929   1.731   6.729   4.938 -0.3488 -0.6607 -1.1077
 8326TIP3   OH224930   2.705   5.600   4.174 -0.7896  0.1771  0.2624
 8326TIP3    H124931   2.617   5.635   4.156 -1.6260 -0.7672  2.2986
 8326TIP3    H224932   2.694   5.550   4.255  2.3367  2.6571  2.2780
 8327TIP3   OH224933   4.504   6.904   2.148  0.2678  1.0823  0.2829
 8327TIP3    H124934   4.463   6.978   2.103 -0.6106  0.8167  0.6510
 8327TIP3    H224935   4.470   6.827   2.104 -0.5616  0.8218  1.3708
 8328TIP3   OH224936   7.917   0.351   4.068  0.1332  0.0230  0.5750
 8328TIP3    H124937   7.894   0.264   4.036 -1.2825  0.7572 -0.4814
 8328TIP3    H224938   7.845   0.407   4.037  0.1638  1.2574  2.6671
 8329TIP3   OH224939   7.047   1.793   4.248 -0.2262 -0.2081 -0.2420
 8329TIP3    H124940   6.999   1.875   4.238 -0.4671 -0.0396  1.9435
 8329TIP3    H224941   7.039   1.749   4.163 -0.0443  2.0354 -1.4553
 8330TIP3   OH224942   0.063   0.035   4.093 -0.1176  0.5199 -0.1105
 8330TIP3    H124943   0.034   0.061   4.005  0.0307  1.6612  0.1631
 8330TIP3    H224944  -0.003  -0.028   4.122  0.2338 -0.4314 -1.3205
 8331TIP3   OH224945   3.422   6.696   5.885  0.4121 -0.4697 -0.4375
 8331TIP3    H124946   3.444   6.789   5.889  0.8593 -0.5310 -1.2680
 8331TIP3    H224947   3.445   6.670   5.796 -1.7314 -0.8776 -0.9045
 8332TIP3   OH224948  -0.002   2.505   3.263 -0.3982 -0.4475  0.4202
 8332TIP3    H124949   0.077   2.525   3.313 -0.9867  0.1647  1.1014
 8332TIP3    H224950   0.020   2.531   3.173 -0.2551  0.8618  0.8287
 8333TIP3   OH224951   6.430   0.089   6.058  0.4198  0.2073 -0.2457
 8333TIP3    H124952   6.353   0.145   6.049 -0.0839 -0.3788  0.4281
 8333TIP3    H224953   6.490   0.121   5.990 -0.3064  0.8284 -0.6101
 8334TIP3   OH224954   2.132   6.972   5.138  0.0491 -0.0308  0.5904
 8334TIP3    H124955   2.038   6.983   5.150  0.0123  0.9121 -0.4621
 8334TIP3    H224956   2.171   7.003   5.220 -0.6612 -2.8430  2.0695
 8335TIP3   OH224957   6.857   0.646   4.661  0.2149  0.0330 -0.4633
 8335TIP3    H124958   6.892   0.725   4.619 -0.8802  0.4361 -0.6282
 8335TIP3    H224959   6.800   0.679   4.731 -0.5689 -0.5979 -0.7987
 8336TIP3   OH224960   6.549   0.702   3.987 -0.3254 -0.2858  0.4747
 8336TIP3    H124961   6.576   0.617   3.951  2.6650  0.0220  1.8226
 8336TIP3    H224962   6.596   0.766   3.935 -2.3196  0.5669 -0.3165
 8337TIP3   OH224963   3.161   6.631   4.762 -0.4464  0.6243 -0.1428
 8337TIP3    H124964   3.112   6.713   4.771 -0.3365  0.7980 -1.1062
 8337TIP3    H224965   3.135   6.597   4.676 -1.6959 -1.1465  0.8908
 8338TIP3   OH224966   0.591   6.047   3.439 -0.2468 -0.4179  0.3399
 8338TIP3    H124967   0.522   6.111   3.422  1.4419  1.5959  0.9004
 8338TIP3    H224968   0.666   6.099   3.467  1.3848 -2.6006  0.1643
 8339TIP3   OH224969   6.223   5.686   4.403 -0.2259  0.0178 -0.1011
 8339TIP3    H124970   6.273   5.616   4.443  0.4042  0.2622 -0.4525
 8339TIP3    H224971   6.164   5.716   4.471 -0.2160 -0.5828  0.1732
 8340TIP3   OH224972   6.304   0.667   3.223 -0.6717  0.6227  0.1175
 8340TIP3    H124973   6.313   0.743   3.280  0.6948  0.8101 -0.3239
 8340TIP3    H224974   6.273   0.703   3.140  1.6496  0.9482 -0.6362
 8341TIP3   OH224975   6.133   2.638   3.528 -0.6255 -0.6131  0.1634
 8341TIP3    H124976   6.113   2.546   3.547 -1.3159 -0.0895  2.1906
 8341TIP3    H224977   6.055   2.670   3.483 -1.5266 -0.3511  1.8712
 8342TIP3   OH224978   6.108   1.508   6.060  0.2321 -0.4880 -0.2144
 8342TIP3    H124979   6.069   1.421   6.045 -1.2622  0.1530 -0.1131
 8342TIP3    H224980   6.070   1.537   6.142 -0.0199  0.6926 -0.7491
 8343TIP3   OH224981   4.435   0.100   2.246  0.4681  0.2200  0.1247
 8343TIP3    H124982   4.376   0.174   2.238  1.9057  1.3063 -0.5702
 8343TIP3    H224983   4.381   0.030   2.284 -1.1704  1.2739 -0.2305
 8344TIP3   OH224984   4.647   6.319   4.858 -0.1732 -0.0953 -0.1438
 8344TIP3    H124985   4.653   6.410   4.829 -1.7589  0.6143  1.6652
 8344TIP3    H224986   4.722   6.307   4.915 -0.1517  0.1849 -0.1123
 8345TIP3   OH224987   6.203   0.417   2.563  0.6109 -0.4217 -0.5418
 8345TIP3    H124988   6.253   0.471   2.502  1.5673  1.1807  1.5921
 8345TIP3    H224989   6.124   0.468   2.581  0.5222 -0.6993 -0.1368
 8346TIP3   OH224990   5.533   6.797   5.741  0.1578 -0.2754 -0.3314
 8346TIP3    H124991   5.450   6.844   5.735 -0.0112 -0.7215 -1.5312
 8346TIP3    H224992   5.536   6.742   5.662  1.6816 -0.1203 -0.3955
 8347TIP3   OH224993   3.840   5.414   2.581  0.3076  0.4368 -0.1184
 8347TIP3    H124994   3.934   5.399   2.568  0.2961 -1.1271  1.4540
 8347TIP3    H224995   3.805   5.328   2.603 -1.9516  0.5328 -3.0621
 8348TIP3   OH224996   5.177   1.469   3.089 -0.4566  0.1808 -0.1585
 8348TIP3    H124997   5.159   1.540   3.027 -1.2619  0.1301  0.0152
 8348TIP3    H224998   5.223   1.403   3.037 -2.0424 -0.3215 -0.9787
 8349TIP3   OH224999   1.575   6.773   6.186 -0.5724  0.4035  0.0753
 8349TIP3    H125000   1.661   6.804   6.158  0.0954 -0.2977  1.3388
 8349TIP3    H225001   1.575   6.679   6.165 -1.1491  0.4586 -0.1967
 8350TIP3   OH225002   6.825   2.546   3.748 -0.0377 -0.0828  0.1826
 8350TIP3    H125003   6.786   2.459   3.755  1.0345 -0.7275 -1.4145
 8350TIP3    H225004   6.751   2.606   3.736 -0.8311 -0.6641  1.9512
 8351TIP3   OH225005   6.775   0.663   3.669  0.3806  0.6376 -0.1062
 8351TIP3    H125006   6.822   0.669   3.586 -0.1350 -1.9485 -0.6425
 8351TIP3    H225007   6.779   0.751   3.706 -0.1601  2.0553 -3.2893
 8352TIP3   OH225008   6.474   2.069   4.160  0.0312  0.0375 -0.1040
 8352TIP3    H125009   6.441   2.007   4.095  0.0786 -0.6492  0.5231
 8352TIP3    H225010   6.525   2.132   4.109  0.5584 -0.8291 -0.6721
 8353TIP3   OH225011   7.220   1.613   3.075  0.2693 -0.1733  0.3541
 8353TIP3    H125012   7.248   1.654   3.157  1.2612 -1.9862  0.9599
 8353TIP3    H225013   7.178   1.531   3.103  2.1321 -1.6377 -1.0000
 8354TIP3   OH225014   6.191   0.180   3.073  0.7602  0.3389 -0.0588
 8354TIP3    H125015   6.284   0.165   3.056  0.6269 -0.9548  0.2640
 8354TIP3    H225016   6.164   0.104   3.125 -0.9982 -0.4300 -2.0246
 8355TIP3   OH225017   6.979   1.688   2.908 -0.2950 -0.4334 -0.7871
 8355TIP3    H125018   6.984   1.687   2.813  0.0571  3.3758 -0.8669
 8355TIP3    H225019   7.069   1.673   2.937 -0.1645 -0.2349 -1.0899
 8356TIP3   OH225020   5.081   6.056   3.022  0.1338 -0.1692  0.0851
 8356TIP3    H125021   4.985   6.053   3.021  0.1067 -3.1577  2.5653
 8356TIP3    H225022   5.107   6.034   2.933 -1.4639  1.2445 -0.7581
 8357TIP3   OH225023   6.713   2.153   5.563 -0.0205 -0.0554  0.4393
 8357TIP3    H125024   6.732   2.135   5.655 -0.9915 -0.6863  0.5200
 8357TIP3    H225025   6.671   2.073   5.531 -0.2406  0.3860 -0.3903
 8358TIP3   OH225026   3.749   5.652   3.371 -0.3404 -0.1292  0.1414
 8358TIP3    H125027   3.816   5.649   3.303 -0.2735  0.4322  0.1860
 8358TIP3    H225028   3.797   5.643   3.453 -0.3379  0.1255  0.1658
 8359TIP3   OH225029   4.126   4.427   3.623  0.0557 -0.0183 -0.1170
 8359TIP3    H125030   4.056   4.386   3.674 -2.1331  2.2134 -1.2202
 8359TIP3    H225031   4.196   4.441   3.687 -0.6165 -1.9845  1.0947
 8360TIP3   OH225032   4.835   5.541   4.022  0.1401 -0.1897  0.3751
 8360TIP3    H125033   4.860   5.450   4.004  1.7501  0.1107  1.0742
 8360TIP3    H225034   4.830   5.546   4.118 -1.5303  0.0488  0.2923
 8361TIP3   OH225035   6.942   2.458   3.243 -0.1369  0.3701 -0.0099
 8361TIP3    H125036   7.017   2.465   3.184  0.3345 -1.5979  0.2982
 8361TIP3    H225037   6.979   2.421   3.324 -1.6044 -1.7785 -0.2837
 8362TIP3   OH225038   5.934   1.361   4.159 -0.3289  0.5022 -0.1687
 8362TIP3    H125039   6.007   1.413   4.192 -0.1662 -0.3474  0.8565
 8362TIP3    H225040   5.972   1.276   4.139 -0.1441  1.4242 -4.0022
 8363TIP3   OH225041   4.391   7.008   1.527 -0.0833  0.1118  0.0019
 8363TIP3    H125042   4.452   7.065   1.574  0.9400 -1.1366  0.2290
 8363TIP3    H225043   4.332   7.068   1.482 -0.4674  1.3299  2.0888
 8364TIP3   OH225044   1.496   2.324   2.257  0.6351 -0.1321 -0.5445
 8364TIP3    H125045   1.512   2.414   2.230 -2.0336  0.2393 -1.0930
 8364TIP3    H225046   1.551   2.310   2.334  0.4647  2.2284  0.0238
 8365TIP3   OH225047   5.476   6.697   2.088 -0.6193  0.3504  0.0248
 8365TIP3    H125048   5.429   6.654   2.159 -0.3613 -0.7013 -0.4363
 8365TIP3    H225049   5.409   6.750   2.044 -0.7231  1.2269  1.2084
 8366TIP3   OH225050   4.426   6.365   2.861  0.3407  0.4219  0.0153
 8366TIP3    H125051   4.388   6.296   2.807 -0.9985  0.8702  0.3668
 8366TIP3    H225052   4.350   6.415   2.893  1.1423  0.6458  1.6318
 8367TIP3   OH225053   3.711   5.788   3.797 -0.3449  0.0084  0.0599
 8367TIP3    H125054   3.680   5.711   3.749  1.0803  0.7235 -2.0776
 8367TIP3    H225055   3.793   5.761   3.837  0.2207  0.4589 -0.7973
 8368TIP3   OH225056   4.895   6.627   1.342  0.0283 -0.5501  0.1199
 8368TIP3    H125057   4.811   6.651   1.381  0.2621 -0.8020  0.7823
 8368TIP3    H225058   4.950   6.704   1.353 -0.1230 -0.3736 -0.3415
 8369TIP3   OH225059   6.502   0.712   2.414 -0.2150 -0.0195  0.1146
 8369TIP3    H125060   6.493   0.769   2.489 -0.1615  0.5110 -0.2821
 8369TIP3    H225061   6.597   0.700   2.404 -0.1752  0.8884 -0.6060
 8370TIP3   OH225062   5.298   7.259   2.411  0.0847 -0.0485 -0.1867
 8370TIP3    H125063   5.290   7.296   2.499  0.2610 -1.0530  0.2551
 8370TIP3    H225064   5.247   7.318   2.355 -1.5562 -0.4429  0.8849
 8371TIP3   OH225065   0.482   0.471   1.843 -0.1770 -0.1086  0.6314
 8371TIP3    H125066   0.526   0.398   1.799 -0.2122 -1.0434  2.0874
 8371TIP3    H225067   0.553   0.517   1.889 -0.0701  1.1300 -0.7322
 8372TIP3   OH225068   3.455   6.772   3.082  0.4070  0.1548 -0.0732
 8372TIP3    H125069   3.506   6.778   3.163  1.0118  1.7071 -0.5405
 8372TIP3    H225070   3.373   6.819   3.102 -0.1210 -0.8479  0.1372
 8373TIP3   OH225071   1.777   0.258   3.603 -0.0568 -0.1169  0.1596
 8373TIP3    H125072   1.871   0.277   3.612 -0.6169  2.2251  1.3584
 8373TIP3    H225073   1.740   0.339   3.567 -1.4062 -1.5601 -1.8008
 8374TIP3   OH225074   2.725   1.493   3.834 -0.3996 -0.0521 -0.1026
 8374TIP3    H125075   2.700   1.551   3.762 -0.0816  1.4273  0.9538
 8374TIP3    H225076   2.675   1.413   3.819  0.1827 -0.0214 -2.3386
 8375TIP3   OH225077   4.399   6.484   2.329 -0.6022 -0.6843 -0.4346
 8375TIP3    H125078   4.363   6.413   2.275 -1.7651 -0.3930 -0.0543
 8375TIP3    H225079   4.330   6.551   2.330 -0.6386 -0.7126  1.4672
 8376TIP3   OH225080   0.148   2.330   2.212 -0.0216 -0.6511  0.3993
 8376TIP3    H125081   0.167   2.332   2.305  1.2208 -0.7075  0.1590
 8376TIP3    H225082   0.231   2.351   2.170 -0.6998 -0.0807 -0.6850
 8377TIP3   OH225083   6.433   1.906   5.696 -0.4463  0.2675  0.2130
 8377TIP3    H125084   6.350   1.953   5.685 -1.7561 -1.6459  1.5747
 8377TIP3    H225085   6.410   1.827   5.746  2.1681 -0.4019  0.4553
 8378TIP3   OH225086   6.706   4.748   4.130 -0.0938  1.0853  0.5105
 8378TIP3    H125087   6.656   4.709   4.058 -2.1014 -0.2770  2.5585
 8378TIP3    H225088   6.679   4.840   4.131  0.6453  1.3248 -1.0433
 8379TIP3   OH225089   1.912   1.886   2.512 -0.3186  0.1596 -0.5289
 8379TIP3    H125090   1.941   1.866   2.423 -2.6509  2.6871 -1.9302
 8379TIP3    H225091   1.941   1.976   2.527 -1.8147  0.5015  0.4422
 8380TIP3   OH225092   4.340   5.852   3.620 -0.5221  0.8784  0.2389
 8380TIP3    H125093   4.340   5.786   3.551 -1.2831 -1.0816  2.0510
 8380TIP3    H225094   4.432   5.859   3.647 -0.5061  0.1477  0.3900
 8381TIP3   OH225095   4.630   5.794   3.678  0.1765  0.4685 -0.5866
 8381TIP3    H125096   4.595   5.739   3.748 -1.7404  2.5143  0.1420
 8381TIP3    H225097   4.725   5.792   3.691 -0.0768 -0.1741  1.3219
 8382TIP3   OH225098   0.963   1.259   3.893  0.4990  0.4689 -0.6439
 8382TIP3    H125099   0.999   1.203   3.824  0.1389 -0.6759  0.0837
 8382TIP3    H225100   0.932   1.198   3.960 -2.2588  1.4614 -0.9755
 8383TIP3   OH225101   7.013   0.319   1.433 -0.1555 -0.3125 -0.1249
 8383TIP3    H125102   7.107   0.336   1.439 -0.0388 -0.9148 -0.2315
 8383TIP3    H225103   6.973   0.405   1.441  0.3833 -0.1065  0.4165
 8384TIP3   OH225104   7.390   2.094   2.007 -0.3058 -0.1136  0.2076
 8384TIP3    H125105   7.380   2.182   2.043 -0.7004  0.0742 -0.3572
 8384TIP3    H225106   7.323   2.042   2.052 -2.6096  0.7088 -2.1458
 8385TIP3   OH225107   5.481   5.486   3.747 -0.7048  0.3896 -0.2312
 8385TIP3    H125108   5.541   5.556   3.771 -1.8822  0.2794  3.2422
 8385TIP3    H225109   5.533   5.406   3.748  0.0375  0.8430 -1.5828
 8386TIP3   OH225110   5.051   6.537   4.777  0.4133 -0.5967 -0.4130
 8386TIP3    H125111   5.100   6.615   4.805  0.4386 -0.3158 -1.2308
 8386TIP3    H225112   5.111   6.491   4.718  0.1951 -0.9531 -0.3571
 8387TIP3   OH225113   4.459   4.673   2.846 -0.2893 -0.3277 -0.4843
 8387TIP3    H125114   4.547   4.681   2.882 -0.7281  0.9530  0.3288
 8387TIP3    H225115   4.470   4.689   2.752  0.2453  0.5157 -0.2828
 8388TIP3   OH225116   1.371   2.751   6.131 -0.4242 -0.1195  0.3951
 8388TIP3    H125117   1.463   2.745   6.158  0.0850  2.9812 -0.4904
 8388TIP3    H225118   1.375   2.774   6.038 -2.1378 -1.4757 -0.0400
 8389TIP3   OH225119   6.238   1.638   3.246  0.0306 -0.0803 -0.5658
 8389TIP3    H125120   6.151   1.599   3.252  0.0252  0.2491  1.7979
 8389TIP3    H225121   6.223   1.727   3.213 -0.5398  0.0226 -0.0285
 8390TIP3   OH225122   4.641   5.233   0.692  0.1981  0.1589  0.4732
 8390TIP3    H125123   4.729   5.207   0.664 -0.3243 -2.6425  1.2858
 8390TIP3    H225124   4.597   5.150   0.711 -2.1358  1.6146  1.5438
 8391TIP3   OH225125   6.002   6.391   3.206  0.1094  0.6587 -0.1747
 8391TIP3    H125126   5.957   6.459   3.157 -1.7279  0.1143  0.6810
 8391TIP3    H225127   5.935   6.323   3.220  1.0577  0.0228  1.5210
 8392TIP3   OH225128   3.991   6.740   0.140 -0.4493 -0.3396 -0.5408
 8392TIP3    H125129   3.944   6.811   0.097 -2.1140  0.2556  2.1517
 8392TIP3    H225130   3.951   6.660   0.106 -2.2429  0.1402  0.3896
 8393TIP3   OH225131   7.921   1.539   3.043  0.1032  0.3451  0.0862
 8393TIP3    H125132   7.901   1.450   3.015  0.0996  0.4309 -0.1961
 8393TIP3    H225133   7.836   1.583   3.046  0.1581  0.4840 -0.3030
 8394TIP3   OH225134   4.889   5.423   2.808 -0.2076 -0.1319 -0.2555
 8394TIP3    H125135   4.831   5.379   2.746  0.3107 -0.9933 -0.1381
 8394TIP3    H225136   4.969   5.439   2.758 -0.0875 -0.0938 -0.0521
 8395TIP3   OH225137   6.215   0.940   3.824 -0.0015 -0.9018 -0.4143
 8395TIP3    H125138   6.127   0.977   3.826 -0.0872 -1.0870 -0.8202
 8395TIP3    H225139   6.212   0.868   3.888 -0.1097 -0.8387 -0.3489
 8396TIP3   OH225140   4.298   4.555   1.898 -0.3233 -0.2520 -0.5906
 8396TIP3    H125141   4.325   4.519   1.983 -0.3645 -1.1784 -0.9578
 8396TIP3    H225142   4.346   4.638   1.891  1.3943 -1.2135 -0.6230
 8397TIP3   OH225143   7.387   1.751   2.906  0.5813 -0.0491  0.2412
 8397TIP3    H125144   7.338   1.691   2.963 -2.1455  0.1319 -1.8178
 8397TIP3    H225145   7.378   1.836   2.948 -0.8076 -0.0335 -0.0705
 8398TIP3   OH225146   4.156   6.756   2.995 -0.6255  0.3760  0.4321
 8398TIP3    H125147   4.173   6.834   2.941 -1.2766  0.7368  0.7475
 8398TIP3    H225148   4.202   6.774   3.077 -0.6393  0.3500  0.4447
 8399TIP3   OH225149   5.553   6.375   0.930 -0.0735 -0.4352  0.2810
 8399TIP3    H125150   5.603   6.320   0.870  3.0455  1.8162  0.7015
 8399TIP3    H225151   5.581   6.346   1.017  0.4636  0.7622  0.5189
 8400TIP3   OH225152   4.388   5.217   3.220 -0.2217  0.2235 -0.1424
 8400TIP3    H125153   4.470   5.224   3.270 -0.3016 -0.1728  0.0461
 8400TIP3    H225154   4.340   5.147   3.264 -0.6815  0.4856 -0.2283
 8401TIP3   OH225155   7.292   2.473   5.211  0.0384 -0.3187 -0.3672
 8401TIP3    H125156   7.325   2.531   5.142  0.0996  2.8572  2.1897
 8401TIP3    H225157   7.351   2.398   5.210  3.7659  2.4976  0.1995
 8402TIP3   OH225158   0.056   0.764   2.488 -0.1633 -0.2300 -0.6798
 8402TIP3    H125159  -0.020   0.757   2.545 -2.7591 -1.8019 -4.1744
 8402TIP3    H225160   0.070   0.859   2.479 -1.4301  0.0659  0.3299
 8403TIP3   OH225161   5.629   7.010   4.043  0.2499  0.0183 -0.0517
 8403TIP3    H125162   5.549   7.048   4.080 -0.3837 -2.0177  0.7158
 8403TIP3    H225163   5.674   6.971   4.118  0.8829 -0.7691 -0.8362
 8404TIP3   OH225164   7.757   0.475   2.009  0.5462 -0.2890 -0.5201
 8404TIP3    H125165   7.842   0.432   2.013  0.4190 -0.6992 -1.8662
 8404TIP3    H225166   7.754   0.530   2.087  0.4359 -3.1892  1.6013
 8405TIP3   OH225167   4.510   5.358   2.306  0.3752  0.2227 -0.0025
 8405TIP3    H125168   4.497   5.392   2.395 -0.0427 -0.8505  0.3586
 8405TIP3    H225169   4.598   5.386   2.281 -0.2144  2.1393  0.0215
 8406TIP3   OH225170   1.100   0.120   2.310  0.6892  0.4135  0.0572
 8406TIP3    H125171   1.135   0.042   2.266  0.8611 -0.7738  2.2441
 8406TIP3    H225172   1.178   0.173   2.328  0.8143  0.0968  0.4611
 8407TIP3   OH225173   7.232   0.101   5.646 -0.1266 -0.8329 -0.3327
 8407TIP3    H125174   7.212   0.027   5.704 -0.1151 -1.6865 -1.3923
 8407TIP3    H225175   7.150   0.150   5.641  0.2416 -0.0068  1.4411
 8408TIP3   OH225176   1.196   0.843   2.686  0.0974  0.3050  0.4678
 8408TIP3    H125177   1.209   0.846   2.591  1.7372  0.5325  0.6816
 8408TIP3    H225178   1.191   0.935   2.712  0.6190  0.2643  0.7185
 8409TIP3   OH225179   0.325   0.169   4.973 -0.3798  0.1655 -0.0986
 8409TIP3    H125180   0.361   0.193   5.059 -0.1398 -0.2114 -0.0888
 8409TIP3    H225181   0.343   0.244   4.917  0.4390 -0.0158 -0.0961
 8410TIP3   OH225182   0.478   0.412   3.212 -0.3299 -0.5576  0.6909
 8410TIP3    H125183   0.461   0.366   3.294  0.6151 -0.4545  0.9438
 8410TIP3    H225184   0.530   0.488   3.237 -1.1710  0.2114  0.1648
 8411TIP3   OH225185   1.477   1.473   3.222  0.0925 -0.1158 -0.0654
 8411TIP3    H125186   1.558   1.509   3.187  0.6466 -0.9149  0.3824
 8411TIP3    H225187   1.451   1.534   3.291  2.0879 -1.5661  2.0521
 8412TIP3   OH225188   7.176   1.556   2.733  0.4879 -0.0424  0.0262
 8412TIP3    H125189   7.256   1.549   2.681  0.1215  0.5199 -0.6259
 8412TIP3    H225190   7.130   1.631   2.696 -0.4596 -0.5095  0.2358
 8413TIP3   OH225191   0.760   0.867   3.779 -0.0140  0.3350 -0.4039
 8413TIP3    H125192   0.832   0.882   3.719  0.7693 -1.9806 -0.1030
 8413TIP3    H225193   0.782   0.917   3.858  1.4266 -0.6056 -0.2005
 8414TIP3   OH225194   5.213   5.844   2.455 -0.1444 -0.0236 -0.3090
 8414TIP3    H125195   5.207   5.930   2.497  1.9804  0.7680 -1.5269
 8414TIP3    H225196   5.274   5.857   2.383  1.4181 -2.9089  0.3895
 8415TIP3   OH225197   7.719   1.572   3.938  0.1594  0.1828  0.0393
 8415TIP3    H125198   7.663   1.555   3.863  0.9054  1.4827 -0.8242
 8415TIP3    H225199   7.774   1.494   3.946 -1.8491 -1.1705  0.9936
 8416TIP3   OH225200   0.134   0.810   2.847  0.0718 -0.1766  0.1043
 8416TIP3    H125201   0.079   0.812   2.768  0.4759 -0.7802 -0.1997
 8416TIP3    H225202   0.074   0.789   2.918 -0.2482  0.0727 -0.0924
 8417TIP3   OH225203   3.389   7.350   5.942 -0.0135 -0.1625 -0.0864
 8417TIP3    H125204   3.337   7.295   6.001  0.8821  0.0350  0.8973
 8417TIP3    H225205   3.479   7.337   5.971  0.3841  0.3176 -1.1112
 8418TIP3   OH225206   7.721   0.225   3.653 -0.3042  0.1187 -0.0986
 8418TIP3    H125207   7.776   0.217   3.575 -0.2155 -1.8116  0.1199
 8418TIP3    H225208   7.646   0.169   3.635 -0.1018 -0.6658  1.3233
 8419TIP3   OH225209   6.586   6.282   2.801 -0.1799 -0.0154 -0.4452
 8419TIP3    H125210   6.561   6.264   2.892  2.5839  1.0340  0.5788
 8419TIP3    H225211   6.504   6.305   2.757 -1.3073  1.2849  2.2422
 8420TIP3   OH225212   7.902   1.727   2.088  0.0814 -0.4135  0.2114
 8420TIP3    H125213   7.853   1.808   2.085  1.3236  0.3984  1.1124
 8420TIP3    H225214   7.877   1.680   2.009 -1.8267  0.1470  0.4740
 8421TIP3   OH225215   6.727   0.692   2.742 -0.2219  0.3283 -0.3857
 8421TIP3    H125216   6.759   0.748   2.813 -1.3850  0.2836  0.1926
 8421TIP3    H225217   6.632   0.687   2.757 -0.3560 -0.3929 -1.4375
 8422TIP3   OH225218   7.202   2.160   2.915 -0.8196 -0.0049  0.0059
 8422TIP3    H125219   7.231   2.073   2.944 -1.5434  0.0356  0.8780
 8422TIP3    H225220   7.228   2.219   2.987  1.5289  0.8530 -1.4829
 8423TIP3   OH225221   4.976   3.890   1.734  0.0553 -0.8221 -0.4168
 8423TIP3    H125222   5.047   3.841   1.691 -0.1558  0.6116 -2.4718
 8423TIP3    H225223   5.020   3.947   1.796  0.8023  0.6241 -2.2403
 8424TIP3   OH225224   5.396   5.013   2.455  0.0618 -0.0978  0.5223
 8424TIP3    H125225   5.475   5.000   2.403  0.8208 -2.3503  2.1488
 8424TIP3    H225226   5.429   5.029   2.544 -1.3218 -1.0284  1.2119
 8425TIP3   OH225227   7.660   1.893   0.791  0.2834 -0.4649 -0.0429
 8425TIP3    H125228   7.595   1.838   0.836 -1.0309  0.1753 -1.1358
 8425TIP3    H225229   7.611   1.936   0.721  1.9606 -0.1800 -1.0598
 8426TIP3   OH225230   7.300   0.185   2.359  0.2872 -0.1834 -0.5242
 8426TIP3    H125231   7.255   0.172   2.275  0.4147 -0.5144 -0.5391
 8426TIP3    H225232   7.383   0.138   2.350  1.3803  1.8159 -1.0980
 8427TIP3   OH225233   5.538   4.695   4.053  0.8943 -0.5334  0.3462
 8427TIP3    H125234   5.473   4.728   3.991  0.3964 -1.3334  0.4323
 8427TIP3    H225235   5.550   4.766   4.116  0.1009 -0.3770  0.3235
 8428TIP3   OH225236   6.857  -0.015   3.861  0.2623 -0.0118 -0.0174
 8428TIP3    H125237   6.872   0.076   3.837 -1.0383  0.7514  2.0009
 8428TIP3    H225238   6.941  -0.044   3.898  0.2646  0.7749  0.6014
 8429TIP3   OH225239   5.302   7.123   2.931  0.0695 -0.0396  0.0436
 8429TIP3    H125240   5.283   7.158   3.019 -0.1256 -1.0102  0.3921
 8429TIP3    H225241   5.309   7.029   2.944  3.8470  0.1105 -0.3140
 8430TIP3   OH225242   0.133   1.644   3.408  0.1438  0.2670 -0.0715
 8430TIP3    H125243   0.046   1.674   3.432  0.1705 -0.1835  0.5971
 8430TIP3    H225244   0.188   1.665   3.484  0.4051 -0.3811 -0.0705
 8431TIP3   OH225245   5.929   6.848   3.195  0.5874  0.2280  0.0518
 8431TIP3    H125246   6.011   6.802   3.180  0.5482  0.3922 -0.6465
 8431TIP3    H225247   5.949   6.907   3.268  0.4860 -1.2634  1.3241
 8432TIP3   OH225248   5.378   6.312   4.282  0.4944 -0.6593  0.0986
 8432TIP3    H125249   5.457   6.270   4.246  1.1686  1.5395 -1.0949
 8432TIP3    H225250   5.312   6.302   4.213  0.0036 -1.6761  0.7135
 8433TIP3   OH225251   4.233   5.696   4.606  0.4645  0.1901  0.2480
 8433TIP3    H125252   4.140   5.672   4.605  0.5164 -0.0457  1.0845
 8433TIP3    H225253   4.259   5.690   4.698  0.3231  4.1731  0.6378
 8434TIP3   OH225254   1.321   1.501   2.170  0.2906 -0.0157 -0.3141
 8434TIP3    H125255   1.396   1.482   2.227  1.9315  1.2303 -1.9774
 8434TIP3    H225256   1.300   1.592   2.188 -0.2376 -0.1007 -0.5037
 8435TIP3   OH225257   3.472   4.237   1.948 -0.1286  0.3463  0.1528
 8435TIP3    H125258   3.555   4.249   1.901  0.1945 -1.8963  0.0954
 8435TIP3    H225259   3.405   4.264   1.885  0.5354  2.4914  0.3118
 8436TIP3   OH225260   0.102   0.044   5.120  0.1129 -0.5340 -0.4247
 8436TIP3    H125261   0.169   0.109   5.100  0.9065 -1.1045  0.3729
 8436TIP3    H225262   0.143  -0.015   5.183 -1.6507  0.0242  1.2912
 8437TIP3   OH225263   2.379   1.415   4.121 -0.2910  0.9815 -0.1666
 8437TIP3    H125264   2.336   1.329   4.126 -0.5816  1.1165 -0.3389
 8437TIP3    H225265   2.308   1.478   4.125 -0.1763  1.1907 -1.2437
 8438TIP3   OH225266   4.787   5.252   2.362 -0.4475  0.0856  0.1238
 8438TIP3    H125267   4.756   5.270   2.451 -1.5948  1.3700 -0.5289
 8438TIP3    H225268   4.802   5.157   2.361 -0.5990  0.0333  1.6224
 8439TIP3   OH225269   4.140   6.206   2.404  0.7662 -0.1569  0.4055
 8439TIP3    H125270   4.213   6.149   2.427  1.3705  0.4457  0.0139
 8439TIP3    H225271   4.062   6.157   2.430  1.3037 -0.8472  0.7388
 8440TIP3   OH225272   4.302   5.429   4.459  0.0063 -0.3923 -0.2551
 8440TIP3    H125273   4.280   5.506   4.511  1.1877 -1.1073  1.3500
 8440TIP3    H225274   4.352   5.463   4.385 -0.5963  0.5098 -0.2509
 8441TIP3   OH225275   0.408   1.059   4.808 -0.0016  0.3370 -0.3950
 8441TIP3    H125276   0.357   0.981   4.828 -0.8371  1.0909  0.4550
 8441TIP3    H225277   0.368   1.094   4.728  0.3517 -0.0826 -0.7562
 8442TIP3   OH225278   5.752   6.482   4.316  0.1466 -0.3600  0.7101
 8442TIP3    H125279   5.815   6.427   4.269  0.2071 -0.5985  1.0689
 8442TIP3    H225280   5.802   6.517   4.390  0.2869  0.6787  0.1399
 8443TIP3   OH225281   3.581   0.802   0.935  0.1980 -0.7809  0.0446
 8443TIP3    H125282   3.658   0.768   0.890 -0.6409 -1.9681 -0.5070
 8443TIP3    H225283   3.511   0.799   0.869 -0.1224  1.1551  0.2498
 8444TIP3   OH225284   3.311   3.509   0.724  0.0030 -0.0231  0.2424
 8444TIP3    H125285   3.238   3.560   0.760 -0.3770 -0.2897 -0.1434
 8444TIP3    H225286   3.269   3.440   0.673  0.5084 -1.0908  1.2539
 8445TIP3   OH225287   3.275   0.884   5.956 -0.2733 -0.5490  0.1952
 8445TIP3    H125288   3.311   0.931   6.030  2.8543 -1.8173 -0.4569
 8445TIP3    H225289   3.265   0.950   5.887 -1.3391  0.2302  1.0797
 8446TIP3   OH225290   4.141   3.562   0.438  0.3376 -0.2515 -0.2428
 8446TIP3    H125291   4.161   3.523   0.353  0.9648 -2.6761  0.9830
 8446TIP3    H225292   4.218   3.545   0.492 -0.9822 -0.8205  1.5233
 8447TIP3   OH225293   2.841   2.441   5.511  0.2216 -0.4004 -0.4504
 8447TIP3    H125294   2.800   2.503   5.450 -1.3215 -0.1948  0.7616
 8447TIP3    H225295   2.772   2.419   5.573  2.1165  0.4898  2.0788
 8448TIP3   OH225296   3.377   5.411   0.387  0.1098  0.4904  0.2849
 8448TIP3    H125297   3.354   5.350   0.316  0.9836 -0.7678  1.0722
 8448TIP3    H225298   3.427   5.480   0.344  0.8813 -0.4157 -0.2844
 8449TIP3   OH225299   7.471   7.139   6.033  0.2676  0.5269  0.5304
 8449TIP3    H125300   7.446   7.083   6.105 -2.6608  2.4100  1.0589
 8449TIP3    H225301   7.504   7.219   6.075  1.1640  0.5493 -0.2048
 8450TIP3   OH225302   5.474   4.230   1.011  0.6272 -0.1734 -0.1631
 8450TIP3    H125303   5.441   4.284   1.082  1.1015  0.2912 -0.2919
 8450TIP3    H225304   5.396   4.198   0.966  0.3337 -0.3143  0.4465
 8451TIP3   OH225305   0.921   0.945   5.042  0.7540 -0.7670 -0.3570
 8451TIP3    H125306   0.902   0.993   4.961  0.0624 -1.5364 -0.6614
 8451TIP3    H225307   1.016   0.949   5.050  0.7174  0.5148 -0.4611
 8452TIP3   OH225308   5.297   5.250   0.612 -0.3798  0.0577 -0.1977
 8452TIP3    H125309   5.260   5.253   0.700 -0.5022 -0.4950 -0.2322
 8452TIP3    H225310   5.368   5.314   0.615  0.7088 -1.1630  0.8082
 8453TIP3   OH225311   4.095   4.108   1.005  0.2608  0.6220 -0.7590
 8453TIP3    H125312   4.063   4.162   1.077 -0.5978 -0.4762 -0.3032
 8453TIP3    H225313   4.133   4.031   1.047  1.7521  0.9773 -1.3897
 8454TIP3   OH225314   5.440   4.435   1.203 -0.2081  0.5568  0.5857
 8454TIP3    H125315   5.367   4.433   1.265 -2.8415  0.0247 -2.3924
 8454TIP3    H225316   5.455   4.527   1.185 -1.6298  0.6148 -0.3976
 8455TIP3   OH225317   5.417   2.778   1.532  0.1820  0.3280  0.5824
 8455TIP3    H125318   5.397   2.702   1.587  3.6098 -1.7909 -0.8978
 8455TIP3    H225319   5.475   2.832   1.585  1.9103 -0.7363 -0.1795
 8456TIP3   OH225320   3.229   4.222   1.172  0.4475 -0.1543  0.4312
 8456TIP3    H125321   3.251   4.312   1.148 -0.3244 -0.4940 -1.5763
 8456TIP3    H225322   3.314   4.181   1.189  0.8671  0.6548  0.3350
 8457TIP3   OH225323   0.663   0.070   5.019 -0.1008 -0.3098 -0.6039
 8457TIP3    H125324   0.702   0.155   5.038  1.2651 -0.8080 -1.0961
 8457TIP3    H225325   0.685   0.054   4.927  0.1935 -1.4680 -0.3348
 8458TIP3   OH225326   4.796   5.234   1.036  0.5103  0.0049 -0.3810
 8458TIP3    H125327   4.848   5.154   1.028  0.9578  0.5241 -3.1417
 8458TIP3    H225328   4.861   5.305   1.033 -0.1925  0.5999 -2.2630
 8459TIP3   OH225329   1.319   0.131   5.902 -0.3066  0.1427 -0.0108
 8459TIP3    H125330   1.344   0.101   5.989 -1.0623 -0.7249 -0.0800
 8459TIP3    H225331   1.239   0.081   5.882  0.0080  0.1465 -1.2967
 8460TIP3   OH225332   0.580   2.233   5.395  0.3980  0.0051 -0.4195
 8460TIP3    H125333   0.501   2.279   5.421  0.0243 -0.5431 -0.5833
 8460TIP3    H225334   0.567   2.143   5.424  0.3241 -0.4276 -1.7512
 8461TIP3   OH225335   0.766   6.631   6.272 -0.1394  0.1327 -0.0687
 8461TIP3    H125336   0.690   6.615   6.328 -1.6047  1.9544 -1.4437
 8461TIP3    H225337   0.790   6.545   6.238 -0.4671 -0.7041  1.8008
 8462TIP3   OH225338   4.095   0.047   4.570  0.1145 -0.5665 -0.0999
 8462TIP3    H125339   4.084  -0.037   4.613  1.3093 -0.0696  1.1877
 8462TIP3    H225340   4.103   0.111   4.641 -0.4788  0.6042 -1.0509
 8463TIP3   OH225341   7.092   3.722   1.531 -0.4493  0.7462  0.4960
 8463TIP3    H125342   7.182   3.721   1.563 -1.2157  0.5285  2.7044
 8463TIP3    H225343   7.039   3.693   1.605 -2.2108 -0.6529 -1.2429
 8464TIP3   OH225344   6.328   1.650   1.424  0.1132  0.5235  0.0035
 8464TIP3    H125345   6.341   1.608   1.339  1.4932  3.6812 -1.4180
 8464TIP3    H225346   6.415   1.678   1.450 -0.4661  0.5572  1.9427
 8465TIP3   OH225347   5.072   3.754   2.392  0.1730 -0.0747 -0.1430
 8465TIP3    H125348   5.027   3.669   2.390 -1.3536  0.6943  1.1899
 8465TIP3    H225349   5.139   3.744   2.460 -0.8301  0.1773  0.9009
 8466TIP3   OH225350   7.470   6.095   0.260  0.0506  0.0205  0.5390
 8466TIP3    H125351   7.455   6.040   0.337  0.0119  0.3914  0.7973
 8466TIP3    H225352   7.382   6.113   0.226  0.0276  0.4340  0.8148
 8467TIP3   OH225353   3.730   3.140   0.808 -0.5133  0.3883 -0.0802
 8467TIP3    H125354   3.663   3.165   0.745  0.4037 -1.2571 -1.7613
 8467TIP3    H225355   3.812   3.173   0.771 -0.1506  0.7303  1.0048
 8468TIP3   OH225356   6.299   4.244   0.071  0.4425  0.8053  0.1334
 8468TIP3    H125357   6.289   4.310   0.139 -0.8842  0.8953 -0.1471
 8468TIP3    H225358   6.211   4.228   0.039  0.8034 -0.7358 -0.1512
 8469TIP3   OH225359   0.303   5.954   3.162 -0.0406 -0.1913  0.0871
 8469TIP3    H125360   0.382   6.006   3.174 -0.1139 -0.7077  3.2646
 8469TIP3    H225361   0.246   5.981   3.234 -1.3474 -2.3614 -0.0977
 8470TIP3   OH225362   2.012   1.170   6.422 -0.4390  0.2948 -0.1672
 8470TIP3    H125363   1.950   1.105   6.391 -1.0431  1.4893 -1.4892
 8470TIP3    H225364   2.000   1.246   6.365  1.8210  0.7649 -0.0923
 8471TIP3   OH225365   7.162   4.983   2.598  0.0383 -0.2049 -0.5104
 8471TIP3    H125366   7.178   5.077   2.586 -0.9935 -0.1197 -1.2646
 8471TIP3    H225367   7.226   4.956   2.665 -1.1861  1.5102  1.4041
 8472TIP3   OH225368   2.322   4.713   0.038 -0.4554 -0.1680  0.5196
 8472TIP3    H125369   2.289   4.670  -0.041  0.6579  0.1666 -0.1306
 8472TIP3    H225370   2.416   4.699   0.036 -0.5433 -1.2943  2.4861
 8473TIP3   OH225371   5.368   3.084   2.214 -0.8650  0.0113 -0.3982
 8473TIP3    H125372   5.307   3.026   2.169  0.4880 -0.5334 -1.5808
 8473TIP3    H225373   5.453   3.038   2.208  0.1760  1.9879 -1.1488
 8474TIP3   OH225374   5.761   3.541   0.743 -0.5702 -0.7161 -0.2958
 8474TIP3    H125375   5.844   3.530   0.790 -0.7039 -2.8671 -0.5258
 8474TIP3    H225376   5.713   3.607   0.794  0.5527 -0.7524  0.8283
 8475TIP3   OH225377   7.192   3.092   1.268  0.0274 -0.2047  0.2556
 8475TIP3    H125378   7.180   3.181   1.235  0.7725 -0.4080 -0.5668
 8475TIP3    H225379   7.103   3.061   1.285 -0.3528 -0.0131 -1.3594
 8476TIP3   OH225380   2.307   6.280   4.881 -0.1771  0.1900  0.7148
 8476TIP3    H125381   2.271   6.195   4.856 -0.8945  0.7507 -0.1792
 8476TIP3    H225382   2.267   6.299   4.966  0.6749 -0.7752  1.3345
 8477TIP3   OH225383   5.640   3.166   0.970 -0.3337  0.4182 -0.0501
 8477TIP3    H125384   5.685   3.162   1.055  0.8918 -0.6683 -0.7333
 8477TIP3    H225385   5.702   3.208   0.911 -1.1992  1.2054 -0.4017
 8478TIP3   OH225386   4.059   1.559   6.133 -0.2621 -0.5554  0.3178
 8478TIP3    H125387   3.976   1.538   6.176  0.0892 -0.9673  0.7915
 8478TIP3    H225388   4.123   1.503   6.175  0.3315  0.0409  0.2138
 8479TIP3   OH225389   4.417   1.509   5.390 -0.0847 -0.7680  0.0654
 8479TIP3    H125390   4.509   1.518   5.365  0.3781 -1.1380  1.5667
 8479TIP3    H225391   4.387   1.599   5.402  0.7817 -0.7160  1.9671
 8480TIP3   OH225392   0.130   3.719   0.108  0.0456  0.3265 -0.5967
 8480TIP3    H125393   0.097   3.788   0.165  1.5429 -0.4996  1.3040
 8480TIP3    H225394   0.087   3.639   0.138  0.6849 -0.0838 -0.7515
 8481TIP3   OH225395   7.448   6.412   5.539  0.4144  0.0967  0.1031
 8481TIP3    H125396   7.540   6.430   5.521  0.3682  0.3910  0.1679
 8481TIP3    H225397   7.428   6.336   5.484  0.6857  0.0513  0.0643
 8482TIP3   OH225398   2.406   0.511   6.040 -0.1510 -0.0665 -0.3604
 8482TIP3    H125399   2.367   0.431   6.075 -0.6539  0.6530  0.7365
 8482TIP3    H225400   2.338   0.550   5.985 -1.2475  1.4909  2.0125
 8483TIP3   OH225401   3.792   3.271   5.913  0.1504 -0.5193  0.5518
 8483TIP3    H125402   3.756   3.305   5.995 -1.0868  0.3961 -0.3509
 8483TIP3    H225403   3.719   3.226   5.871  0.0276  1.3161 -1.2860
 8484TIP3   OH225404   0.740   7.225   5.357  0.4594  0.1163  0.4010
 8484TIP3    H125405   0.765   7.265   5.440 -0.4919 -1.9826  1.7273
 8484TIP3    H225406   0.648   7.201   5.369 -0.2442  1.4789 -1.9391
 8485TIP3   OH225407   3.306   1.795   4.149  0.5645  0.1691  0.2549
 8485TIP3    H125408   3.334   1.799   4.057  1.5197  1.5370  0.6010
 8485TIP3    H225409   3.213   1.775   4.144  0.4882  0.7754 -1.0342
 8486TIP3   OH225410   0.334   5.980   1.200  0.6031 -0.2002  0.0678
 8486TIP3    H125411   0.417   5.954   1.160  0.0190  0.1303 -1.4008
 8486TIP3    H225412   0.309   6.059   1.153  0.4543  0.8613  1.8878
 8487TIP3   OH225413   5.124   5.760   1.549 -0.4412  0.0410  0.2406
 8487TIP3    H125414   5.218   5.773   1.565 -0.6327  2.0686 -0.2313
 8487TIP3    H225415   5.081   5.823   1.607 -1.5435 -1.0401  0.6279
 8488TIP3   OH225416   6.523   6.159   2.480 -0.4194 -0.1289 -0.1640
 8488TIP3    H125417   6.510   6.244   2.521  0.6979 -0.1425  0.2279
 8488TIP3    H225418   6.516   6.176   2.386 -1.4325  0.1732 -0.0391
 8489TIP3   OH225419   1.876   5.462   1.543 -0.4679 -0.6688  0.0005
 8489TIP3    H125420   1.835   5.451   1.629 -0.3206  1.1481  0.3118
 8489TIP3    H225421   1.829   5.535   1.503  1.0826  0.0994 -0.4679
 8490TIP3   OH225422   7.660   6.943   5.015 -0.3581  0.6402 -0.4550
 8490TIP3    H125423   7.593   7.012   5.018 -0.0556  0.8996  3.4582
 8490TIP3    H225424   7.742   6.990   4.998 -0.6117  0.8198 -1.1872
 8491TIP3   OH225425   0.504   3.331   0.536 -0.3084 -0.1107 -0.3056
 8491TIP3    H125426   0.533   3.407   0.587 -0.9636  1.2506 -1.9128
 8491TIP3    H225427   0.584   3.282   0.519 -0.0647 -0.5792  1.9661
 8492TIP3   OH225428   1.800   0.881   5.685  0.1791  0.0302  0.1001
 8492TIP3    H125429   1.868   0.831   5.640  0.9195  0.5489  0.6317
 8492TIP3    H225430   1.816   0.972   5.659 -1.4012 -0.0322 -1.1822
 8493TIP3   OH225431   1.902   0.936   4.741  0.1574 -0.6139  0.3492
 8493TIP3    H125432   1.848   0.992   4.685  0.4858  0.8090  1.4207
 8493TIP3    H225433   1.920   0.990   4.818  0.2186 -2.3327  1.5598
 8494TIP3   OH225434   0.249   5.454   5.786 -0.1991 -0.5317  0.0604
 8494TIP3    H125435   0.166   5.415   5.813 -0.6890  0.1373 -0.4525
 8494TIP3    H225436   0.314   5.386   5.802 -0.6953 -0.7013  1.4271
 8495TIP3   OH225437   5.840   6.176   1.597 -0.4766  0.3865 -0.5205
 8495TIP3    H125438   5.933   6.157   1.584 -0.5097  0.6104 -1.1312
 8495TIP3    H225439   5.794   6.100   1.561 -0.5504  0.6649 -1.0253
 8496TIP3   OH225440   4.549   3.497   5.245 -0.3271 -0.4403 -0.4875
 8496TIP3    H125441   4.475   3.455   5.289  0.5582  0.1283  1.6622
 8496TIP3    H225442   4.559   3.450   5.163 -2.0340 -1.5973 -0.0592
 8497TIP3   OH225443   2.625   4.317   6.209  0.3006 -0.0037 -0.7552
 8497TIP3    H125444   2.530   4.317   6.195 -0.0789  2.9862  1.3942
 8497TIP3    H225445   2.636   4.276   6.295  0.8534  0.6098 -0.5291
 8498TIP3   OH225446   2.996   0.856   6.001 -0.3478 -0.3972  0.2386
 8498TIP3    H125447   2.971   0.775   6.044 -1.3469  0.2009  0.8195
 8498TIP3    H225448   3.087   0.844   5.976 -0.3905 -1.5546  0.6414
 8499TIP3   OH225449   6.599   5.954   0.478  0.1731  0.3268 -0.0405
 8499TIP3    H125450   6.633   5.867   0.497 -2.2234 -0.5313  0.5158
 8499TIP3    H225451   6.561   5.984   0.560 -0.0098  1.4443 -0.5169
 8500TIP3   OH225452   7.413   6.870   2.090 -0.3769 -0.1722 -0.5141
 8500TIP3    H125453   7.418   6.923   2.010  0.5048  0.8312  0.1841
 8500TIP3    H225454   7.350   6.915   2.145  0.6714  0.3978  0.2435
 8501TIP3   OH225455   4.909   4.463   6.315 -0.2007 -0.1973  0.1191
 8501TIP3    H125456   4.852   4.487   6.388 -0.2610  1.1860 -0.3695
 8501TIP3    H225457   4.929   4.371   6.330 -2.0431 -0.5330  0.6433
 8502TIP3   OH225458   5.833   3.733   0.200 -0.6970  0.6373 -0.1153
 8502TIP3    H125459   5.860   3.683   0.123 -0.2078  1.0570 -0.2215
 8502TIP3    H225460   5.882   3.696   0.273  1.7034  2.6756 -0.6263
 8503TIP3   OH225461   5.509   1.255   4.435  0.4205 -0.0807  0.2532
 8503TIP3    H125462   5.500   1.338   4.483  0.6127  0.0400  0.0835
 8503TIP3    H225463   5.522   1.282   4.344 -1.5045 -0.3420 -0.1201
 8504TIP3   OH225464   6.100   1.580   5.670 -0.0001 -0.3475  0.1240
 8504TIP3    H125465   6.104   1.635   5.592 -0.7715  0.3048  0.5344
 8504TIP3    H225466   6.074   1.640   5.740 -2.5276 -1.5180  0.2658
 8505TIP3   OH225467   6.080   1.567   0.093  0.1625 -0.1244 -0.8290
 8505TIP3    H125468   5.995   1.585   0.132  1.1996 -0.0509  1.4896
 8505TIP3    H225469   6.085   1.626   0.017 -2.2409 -0.8732 -1.5953
 8506TIP3   OH225470   2.884   0.513   5.205 -0.1725 -0.5606 -0.1715
 8506TIP3    H125471   2.847   0.425   5.201  0.2221 -0.8037  1.1925
 8506TIP3    H225472   2.856   0.546   5.290 -1.2140  1.0443 -1.1091
 8507TIP3   OH225473   5.743   5.108   0.197 -0.1460 -0.2775  0.0854
 8507TIP3    H125474   5.818   5.160   0.168  0.0594 -0.3682  0.4444
 8507TIP3    H225475   5.777   5.057   0.270 -0.3647 -0.8826 -0.2389
 8508TIP3   OH225476   6.586   4.050   1.822  0.6031 -0.6551 -0.3695
 8508TIP3    H125477   6.608   3.969   1.776  0.6287 -0.6442 -0.3763
 8508TIP3    H225478   6.595   4.118   1.757  3.2343 -0.2986  0.3311
 8509TIP3   OH225479   1.905   6.888   5.495 -0.0913  0.1682 -0.0486
 8509TIP3    H125480   1.970   6.830   5.455 -1.6742 -2.8632  1.5811
 8509TIP3    H225481   1.953   6.935   5.563  0.9651 -0.1188 -0.5890
 8510TIP3   OH225482   7.698   6.760   5.653  0.1048  0.1551 -0.4020
 8510TIP3    H125483   7.705   6.761   5.749  0.3576 -0.0758 -0.4164
 8510TIP3    H225484   7.604   6.764   5.635 -0.0370 -1.5237 -0.1163
 8511TIP3   OH225485   6.385   6.045   0.659  0.0419  0.4342 -0.0223
 8511TIP3    H125486   6.381   5.991   0.738  1.1754  0.7440  0.2675
 8511TIP3    H225487   6.334   6.123   0.681  1.9316  1.4097  1.1593
 8512TIP3   OH225488   2.678   7.170   5.790  0.5826  0.3057 -0.1057
 8512TIP3    H125489   2.706   7.079   5.795  1.5372  0.4849 -1.7268
 8512TIP3    H225490   2.751   7.220   5.827 -0.0521  0.4063  1.0330
 8513TIP3   OH225491   4.152   3.323   0.258  0.4322 -0.0931 -0.4195
 8513TIP3    H125492   4.246   3.330   0.246  0.6143 -1.1957  0.3188
 8513TIP3    H225493   4.124   3.258   0.194  0.0319  0.8569 -1.2315
 8514TIP3   OH225494   1.672   0.508   4.908 -0.5625  0.0829  0.3160
 8514TIP3    H125495   1.715   0.570   4.851 -2.2877 -0.9559 -2.2175
 8514TIP3    H225496   1.598   0.556   4.945 -1.1217 -0.0331 -0.6163
 8515TIP3   OH225497   4.480   1.145   4.836 -0.4227 -0.6254  0.0498
 8515TIP3    H125498   4.453   1.175   4.922 -0.3412 -0.6960  0.1010
 8515TIP3    H225499   4.463   1.219   4.778  0.8981 -0.0397  0.3824
 8516TIP3   OH225500   6.616   4.656   2.758 -0.1887  0.2263 -0.1431
 8516TIP3    H125501   6.675   4.730   2.770 -1.5542  1.2308  0.4882
 8516TIP3    H225502   6.651   4.609   2.682  0.5320  1.6693 -0.7088
 8517TIP3   OH225503   0.311   2.994   2.251 -0.0214 -0.4983  0.0382
 8517TIP3    H125504   0.380   3.007   2.317 -0.7259 -1.0535  0.9008
 8517TIP3    H225505   0.338   3.049   2.177  0.3184  0.8641  1.1423
 8518TIP3   OH225506   5.629   6.105   0.784 -0.3031  0.0811 -0.4121
 8518TIP3    H125507   5.562   6.111   0.851  0.5712  0.3188  0.4557
 8518TIP3    H225508   5.582   6.077   0.705 -1.4227  0.3420  0.1517
 8519TIP3   OH225509   5.489   1.344   4.861 -0.2535  0.2672  0.3989
 8519TIP3    H125510   5.534   1.425   4.838  1.2498 -0.5694  0.3403
 8519TIP3    H225511   5.468   1.303   4.776  0.1135 -0.0187  0.4479
 8520TIP3   OH225512   6.125   1.629   4.196 -0.2244 -0.1734  0.3368
 8520TIP3    H125513   6.169   1.611   4.113  0.4117  1.0110  0.3965
 8520TIP3    H225514   6.046   1.677   4.171 -0.9073 -1.3180  0.3027
 8521TIP3   OH225515   1.676   7.131   5.821  0.2762 -0.0658 -0.1311
 8521TIP3    H125516   1.667   7.042   5.788  1.3612 -0.7248  1.2803
 8521TIP3    H225517   1.748   7.169   5.770  4.0986 -2.1122  3.3788
 8522TIP3   OH225518   7.005   3.482   0.294  0.2585  0.2029  0.5685
 8522TIP3    H125519   7.009   3.388   0.277  1.3945  0.0910  1.4100
 8522TIP3    H225520   7.090   3.516   0.266 -0.0035  0.9154  0.6157
 8523TIP3   OH225521   1.573   5.578   5.103 -0.4983 -0.2919  0.1885
 8523TIP3    H125522   1.585   5.526   5.183  0.1022  0.1545  0.3956
 8523TIP3    H225523   1.538   5.661   5.134  0.5915  0.2125  0.0810
 8524TIP3   OH225524   4.627   1.420   5.062  0.0577 -0.1440  0.2497
 8524TIP3    H125525   4.552   1.446   5.009  0.9059  1.2615 -0.3073
 8524TIP3    H225526   4.700   1.418   4.999  0.6454 -0.6618  0.9426
 8525TIP3   OH225527   6.049   3.290   0.407  0.4859 -0.2183 -0.1742
 8525TIP3    H125528   5.956   3.281   0.388  0.3203 -1.8025  1.2414
 8525TIP3    H225529   6.068   3.383   0.394 -2.0544  0.7932  2.7588
 8526TIP3   OH225530   7.582   7.098   2.527 -0.7422  0.1167  0.2106
 8526TIP3    H125531   7.602   7.113   2.619  1.7622  0.1116 -0.2773
 8526TIP3    H225532   7.521   7.168   2.503 -1.3729  0.1351  1.8528
 8527TIP3   OH225533   4.567   2.318   4.370  0.2446  0.2270 -0.0662
 8527TIP3    H125534   4.662   2.313   4.378  0.3316 -3.4273 -2.3449
 8527TIP3    H225535   4.552   2.345   4.279 -0.9238  0.9999  0.3449
 8528TIP3   OH225536   4.988   3.269   6.346 -0.1664 -0.2082 -0.0713
 8528TIP3    H125537   4.957   3.273   6.255  0.7362 -0.9282 -0.4308
 8528TIP3    H225538   4.987   3.175   6.366 -1.3948  0.0337  1.0413
 8529TIP3   OH225539   2.182   2.015   6.054  0.7145 -0.0468  0.3378
 8529TIP3    H125540   2.270   1.977   6.055  1.0380  0.4713 -2.3435
 8529TIP3    H225541   2.197   2.109   6.048  0.0863 -0.0633 -2.6667
 8530TIP3   OH225542   4.746   1.979   4.735 -0.5333 -0.3541 -0.2148
 8530TIP3    H125543   4.752   1.992   4.641  2.2062 -0.2278 -0.0400
 8530TIP3    H225544   4.755   1.884   4.747  2.2933 -0.0717  0.1157
 8531TIP3   OH225545   2.476   1.821   4.821 -0.1380  0.1036 -0.2869
 8531TIP3    H125546   2.475   1.731   4.790 -0.5416 -0.2166  0.6379
 8531TIP3    H225547   2.466   1.874   4.741 -0.7698 -0.6902 -0.7408
 8532TIP3   OH225548   4.137   5.271   1.304  0.7755 -0.5715 -0.2458
 8532TIP3    H125549   4.157   5.360   1.332 -1.3015 -0.1694  0.0502
 8532TIP3    H225550   4.105   5.281   1.214  1.0537 -1.0706 -0.3977
 8533TIP3   OH225551   6.075   3.814   0.553 -0.7787  0.1416 -0.2327
 8533TIP3    H125552   6.146   3.761   0.590 -1.6496  0.0140  1.3166
 8533TIP3    H225553   6.100   3.828   0.462 -0.5868 -3.0552 -0.7250
 8534TIP3   OH225554   5.139   1.535   6.186  0.3658  0.1127 -0.4300
 8534TIP3    H125555   5.171   1.585   6.261  2.0322 -1.7665  0.1496
 8534TIP3    H225556   5.165   1.445   6.204 -1.8154 -0.8573 -1.8815
 8535TIP3   OH225557   1.766   7.157   5.503 -0.0286 -0.2755 -0.2521
 8535TIP3    H125558   1.718   7.238   5.486 -0.6547 -0.4788  0.5029
 8535TIP3    H225559   1.847   7.185   5.545  0.5643  0.0778 -1.6039
 8536TIP3   OH225560   7.368   7.205   0.372 -0.2728 -0.3051 -0.1276
 8536TIP3    H125561   7.370   7.273   0.439 -0.9930 -1.4848  1.1203
 8536TIP3    H225562   7.319   7.244   0.300 -0.6832  0.5048  0.5770
 8537TIP3   OH225563   3.744   4.808   6.120  0.3200  0.5722  0.3112
 8537TIP3    H125564   3.679   4.741   6.141 -1.5553  1.6457 -1.8331
 8537TIP3    H225565   3.696   4.891   6.128  2.1229  1.5579  1.1536
 8538TIP3   OH225566   4.495   0.783   5.862 -0.2523 -0.0223 -0.0103
 8538TIP3    H125567   4.477   0.698   5.821  0.9944 -0.1558 -0.2879
 8538TIP3    H225568   4.546   0.831   5.796 -0.9669  0.9479  0.1403
 8539TIP3   OH225569   3.922   3.414   1.332  0.0656  0.4442 -1.0168
 8539TIP3    H125570   3.885   3.467   1.403  2.0959 -0.2925  0.6576
 8539TIP3    H225571   3.943   3.477   1.263  3.4282  2.0911  1.3422
 8540TIP3   OH225572   5.733   4.538   0.029 -0.5577 -0.3539  0.3906
 8540TIP3    H125573   5.690   4.551   0.114 -0.2199  1.0098  0.3548
 8540TIP3    H225574   5.702   4.610  -0.025  0.3751 -0.3823 -0.1895
 8541TIP3   OH225575   4.880   5.098   0.036 -0.1474  0.2922  0.3817
 8541TIP3    H125576   4.819   5.156  -0.009 -0.9503  0.2453  1.4081
 8541TIP3    H225577   4.962   5.147   0.039 -0.4703  0.8460  0.1042
 8542TIP3   OH225578   6.176   4.918   1.232  0.1279 -0.3000 -0.1768
 8542TIP3    H125579   6.175   4.990   1.169  1.3683  0.5645  0.7763
 8542TIP3    H225580   6.165   4.961   1.317  0.8159 -1.2457  0.3943
 8543TIP3   OH225581   2.200   1.119   5.077  0.2388 -0.5711  0.4367
 8543TIP3    H125582   2.276   1.170   5.049  0.6063 -1.6389 -0.6010
 8543TIP3    H225583   2.192   1.051   5.009  0.3631 -2.4747  2.2770
 8544TIP3   OH225584   3.132   6.386   1.107  0.2153 -0.2740 -0.3248
 8544TIP3    H125585   3.093   6.410   1.023 -0.2969  0.0834  0.0142
 8544TIP3    H225586   3.088   6.441   1.171  0.4247 -0.7266  0.2152
 8545TIP3   OH225587   5.929   3.301   1.724 -0.4851  0.6997 -0.1667
 8545TIP3    H125588   6.013   3.347   1.723  0.2846 -0.5601  1.8520
 8545TIP3    H225589   5.868   3.364   1.762 -0.3971  1.5137 -1.3536
 8546TIP3   OH225590   5.054   4.457   1.260  0.0799  0.2264  0.3262
 8546TIP3    H125591   5.108   4.378   1.257  0.7549  0.6848  0.4446
 8546TIP3    H225592   5.095   4.512   1.326 -2.0277 -0.4960  2.3231
 8547TIP3   OH225593   5.471   5.466   0.624  0.3275 -0.1969 -0.4051
 8547TIP3    H125594   5.421   5.510   0.692  1.2689 -1.3950  1.1023
 8547TIP3    H225595   5.427   5.490   0.542 -1.3842  0.5124  0.6934
 8548TIP3   OH225596   2.196   0.249   6.106  0.4247  0.0306 -0.2385
 8548TIP3    H125597   2.205   0.157   6.134 -2.4582  0.1507  1.3403
 8548TIP3    H225598   2.244   0.299   6.173  0.0483 -0.1999  0.2111
 8549TIP3   OH225599   5.597   5.595   0.220 -0.2057  0.3075  0.1326
 8549TIP3    H125600   5.568   5.513   0.261 -1.9288  0.9595  0.2388
 8549TIP3    H225601   5.525   5.621   0.163  0.2391  1.8676  0.2589
 8550TIP3   OH225602   1.467   3.371   4.823 -0.2014 -0.3566 -0.1424
 8550TIP3    H125603   1.548   3.421   4.808 -0.1026 -0.3552  0.4028
 8550TIP3    H225604   1.449   3.329   4.738 -0.1858  0.4528 -0.5499
 8551TIP3   OH225605   4.568   2.286   6.396  0.3088  0.2238  0.1337
 8551TIP3    H125606   4.633   2.350   6.370  0.9572 -1.1902 -1.9095
 8551TIP3    H225607   4.612   2.201   6.387 -0.7109 -0.5763  2.1641
 8552TIP3   OH225608   2.067   7.356   5.417 -0.1713  0.2986 -0.1407
 8552TIP3    H125609   2.084   7.449   5.399  0.1357  0.1432 -0.6802
 8552TIP3    H225610   2.014   7.328   5.342 -0.0774 -0.0161 -0.0857
 8553TIP3   OH225611   4.616   1.974   5.287  0.3288 -0.7492 -0.1371
 8553TIP3    H125612   4.612   1.972   5.191 -0.4345  0.2766 -0.1403
 8553TIP3    H225613   4.701   1.935   5.308 -0.0927 -2.2898 -1.1623
 8554TIP3   OH225614   6.983   6.029   1.546 -1.1103  0.3030 -0.1259
 8554TIP3    H125615   6.989   6.122   1.566  1.6749 -0.1100  1.2884
 8554TIP3    H225616   6.931   6.024   1.466  0.3956  3.1969 -1.3250
 8555TIP3   OH225617   7.861   6.285   4.637  0.1979  0.2637 -0.2626
 8555TIP3    H125618   7.918   6.254   4.708  1.0980  2.4425 -0.0146
 8555TIP3    H225619   7.833   6.205   4.593 -0.8155 -1.2001  2.8712
 8556TIP3   OH225620   0.256   6.599   4.114 -0.5720 -0.3074 -0.1630
 8556TIP3    H125621   0.220   6.530   4.058 -0.9330  0.7494 -1.2570
 8556TIP3    H225622   0.214   6.586   4.199 -0.9643 -1.1672 -0.4840
 8557TIP3   OH225623   7.538   1.227   5.278  0.6361  0.0123 -0.2309
 8557TIP3    H125624   7.619   1.233   5.328  1.2057 -0.2292 -1.1155
 8557TIP3    H225625   7.482   1.295   5.315  1.4087  0.4819  0.0814
 8558TIP3   OH225626   5.763   4.849   1.996 -0.3276  0.1743  0.4376
 8558TIP3    H125627   5.855   4.835   2.017  0.4181  1.9299 -1.5984
 8558TIP3    H225628   5.734   4.766   1.958 -0.8341 -1.9435  5.0259
 8559TIP3   OH225629   7.385   3.843   0.109  0.1858 -0.2318 -0.2768
 8559TIP3    H125630   7.426   3.779   0.168 -0.6941 -0.7763 -0.2458
 8559TIP3    H225631   7.370   3.795   0.028  0.7846  0.3337 -0.7288
 8560TIP3   OH225632   7.356   5.765   1.695  0.3223 -0.3017  0.1813
 8560TIP3    H125633   7.374   5.858   1.676  0.1677  0.1371  2.1086
 8560TIP3    H225634   7.432   5.719   1.658  1.6009  0.8173  1.3290
 8561TIP3   OH225635   1.513   2.296   5.594 -0.8034 -0.2194  0.0755
 8561TIP3    H125636   1.466   2.219   5.562 -2.4097  0.3392  1.0559
 8561TIP3    H225637   1.450   2.342   5.650  0.4809  1.2395  0.3688
 8562TIP3   OH225638   6.633   5.697   0.627  0.2689  0.0195  0.5224
 8562TIP3    H125639   6.722   5.711   0.593 -0.2867  1.0550 -0.5109
 8562TIP3    H225640   6.610   5.609   0.595  0.0975  0.6174 -1.0401
 8563TIP3   OH225641   6.103   5.294   0.697  0.7975  0.0164 -0.1033
 8563TIP3    H125642   6.098   5.363   0.632  0.5854 -0.5177 -0.6553
 8563TIP3    H225643   6.108   5.213   0.646 -1.3278 -0.5389  0.5501
 8564TIP3   OH225644   2.458   1.045   5.656  0.0421  0.3939 -0.0878
 8564TIP3    H125645   2.367   1.071   5.643  0.0670  1.3133  1.4705
 8564TIP3    H225646   2.508   1.124   5.634  0.3427  0.4992  0.9679
 8565TIP3   OH225647   7.083   6.112   0.170  0.3381 -0.0419 -0.2579
 8565TIP3    H125648   7.114   6.201   0.185  0.2284 -0.0927  0.2798
 8565TIP3    H225649   7.137   6.079   0.098  2.0564 -0.3891  1.1595
 8566TIP3   OH225650   4.378   0.285   5.808 -0.0728 -0.1198 -0.3566
 8566TIP3    H125651   4.312   0.340   5.765 -0.0409 -0.5541 -0.9797
 8566TIP3    H225652   4.387   0.209   5.750  1.6284  0.3538 -0.7330
 8567TIP3   OH225653   3.161   1.284   5.243  0.0604 -0.3834  0.2389
 8567TIP3    H125654   3.137   1.269   5.335  0.2564  1.3500  0.5841
 8567TIP3    H225655   3.251   1.318   5.247 -0.3250  0.7527 -0.5164
 8568TIP3   OH225656   6.316   4.996   0.882  0.0932 -0.7480 -0.0673
 8568TIP3    H125657   6.298   5.061   0.949  0.1175  0.2650 -1.0389
 8568TIP3    H225658   6.230   4.960   0.859 -0.0150 -0.3736 -0.2358
 8569TIP3   OH225659   4.707   0.894   4.143  0.1437 -0.0085 -0.0830
 8569TIP3    H125660   4.672   0.981   4.124 -0.4123 -0.0585  0.6976
 8569TIP3    H225661   4.631   0.836   4.141  0.1872 -0.1475  1.4484
 8570TIP3   OH225662   7.294   5.968   0.409  0.1726 -0.5992 -0.5591
 8570TIP3    H125663   7.355   5.915   0.460  0.1032 -0.1525 -0.0042
 8570TIP3    H225664   7.219   5.982   0.468  1.5482  2.8196  0.5073
 8571TIP3   OH225665   0.356   2.476   1.619 -0.3699 -0.3131 -0.4743
 8571TIP3    H125666   0.308   2.535   1.562 -1.3875 -1.0048 -0.3438
 8571TIP3    H225667   0.438   2.522   1.638 -0.5314  0.4176 -1.5377
 8572TIP3   OH225668   5.734   0.636   5.471  0.2436  0.6323  0.0202
 8572TIP3    H125669   5.756   0.633   5.378  0.5040 -2.1790  0.1368
 8572TIP3    H225670   5.800   0.694   5.509  2.5997 -1.3420 -0.9383
 8573TIP3   OH225671   6.998   4.330   0.073  0.2467  0.1522  0.0646
 8573TIP3    H125672   6.972   4.400   0.132 -0.9768  0.0729 -0.3808
 8573TIP3    H225673   7.021   4.257   0.131 -0.1954  0.3274  0.4594
 8574TIP3   OH225674   3.088   0.074   6.023  0.0128  0.6409 -0.0856
 8574TIP3    H125675   3.058   0.014   6.091  0.1872  1.0682  0.3682
 8574TIP3    H225676   3.106   0.156   6.069 -0.5943  1.1654 -0.7571
 8575TIP3   OH225677   5.358   1.374   4.618 -0.0576 -0.2986  0.0307
 8575TIP3    H125678   5.284   1.314   4.628  0.0405 -0.3332  0.5881
 8575TIP3    H225679   5.334   1.449   4.673 -0.0341  0.0288 -0.4103
 8576TIP3   OH225680   1.606   0.693   5.611 -0.2789  0.0033 -0.6665
 8576TIP3    H125681   1.694   0.728   5.624 -0.7081 -0.0979  2.8610
 8576TIP3    H225682   1.551   0.770   5.600  0.0551  0.1038 -1.7159
 8577TIP3   OH225683   3.008   3.170   3.216 -0.2063 -0.2885  0.8957
 8577TIP3    H125684   3.095   3.140   3.241 -0.1572  0.3136  1.4684
 8577TIP3    H225685   2.952   3.148   3.290 -0.1573  1.0629  1.3409
 8578TIP3   OH225686   3.995   5.009   1.153  0.6039 -0.1980 -0.9458
 8578TIP3    H125687   4.024   5.006   1.244  1.2457  0.0139 -1.1415
 8578TIP3    H225688   3.953   4.924   1.139 -0.2257  0.0902 -0.2167
 8579TIP3   OH225689   4.510   4.178   1.094  0.3838 -0.2626  0.2757
 8579TIP3    H125690   4.552   4.260   1.070 -0.2604 -0.2407 -0.8183
 8579TIP3    H225691   4.544   4.114   1.031 -1.5953 -0.1260 -0.9805
 8580TIP3   OH225692   1.495   1.726   0.492 -0.3213 -0.2413  0.4734
 8580TIP3    H125693   1.546   1.744   0.571  0.2038 -0.7135  0.2448
 8580TIP3    H225694   1.524   1.639   0.464 -0.6596 -0.1666 -0.1163
 8581TIP3   OH225695   3.809   0.460   6.287  0.3202  0.7688  0.2694
 8581TIP3    H125696   3.743   0.484   6.222  0.5190 -1.3354 -0.7593
 8581TIP3    H225697   3.770   0.485   6.371 -1.1613  0.8651 -0.4298
 8582TIP3   OH225698   4.048   6.571   1.419  0.4871 -0.1225 -0.0541
 8582TIP3    H125699   3.959   6.606   1.421  0.1967 -0.8228 -0.5397
 8582TIP3    H225700   4.084   6.601   1.336  1.3389  1.6706  0.9251
 8583TIP3   OH225701   6.707   5.524   1.570 -0.0636 -0.0528 -0.3661
 8583TIP3    H125702   6.652   5.520   1.493  0.2642  1.1788 -0.6828
 8583TIP3    H225703   6.753   5.440   1.572 -0.0838 -0.0951 -1.5008
 8584TIP3   OH225704   2.111   1.350   5.598  0.3224  0.4241  0.1101
 8584TIP3    H125705   2.157   1.309   5.524  0.7129  2.6787 -0.9342
 8584TIP3    H225706   2.173   1.414   5.632 -1.4144  2.3646 -0.2887
 8585TIP3   OH225707   2.786   1.351   4.192  0.0608  0.0601  0.7367
 8585TIP3    H125708   2.724   1.304   4.247 -1.3003 -1.3280 -1.9169
 8585TIP3    H225709   2.829   1.283   4.140  0.7310  1.3870 -0.4866
 8586TIP3   OH225710   2.471   1.195   4.724 -0.1091  0.4670 -0.2428
 8586TIP3    H125711   2.532   1.133   4.764 -1.1624 -0.2385  0.2994
 8586TIP3    H225712   2.425   1.143   4.658 -0.3840  0.8975 -0.3904
 8587TIP3   OH225713   4.848   0.501   5.380  0.7002 -0.3943 -0.1245
 8587TIP3    H125714   4.910   0.432   5.404  1.6849  0.6907  0.5321
 8587TIP3    H225715   4.880   0.535   5.297 -0.1837 -1.1805 -0.7981
 8588TIP3   OH225716   3.605   1.155   5.767 -0.5027 -0.2916  0.0040
 8588TIP3    H125717   3.598   1.115   5.854 -0.0626  3.7370  2.0245
 8588TIP3    H225718   3.698   1.148   5.745 -0.4848 -0.6957  0.2125
 8589TIP3   OH225719   6.482   1.779   4.757  0.0968 -0.0203 -0.3027
 8589TIP3    H125720   6.481   1.702   4.814 -1.2900  0.6693  0.6337
 8589TIP3    H225721   6.532   1.844   4.806  1.8062 -0.4977 -1.3633
 8590TIP3   OH225722   0.382   4.971   0.109  0.1832  0.6302 -0.1315
 8590TIP3    H125723   0.347   4.914   0.178 -2.9922  2.8921  0.2170
 8590TIP3    H225724   0.452   4.919   0.068  0.5558 -1.6559  3.2248
 8591TIP3   OH225725   7.201   5.103   0.096 -0.0794  0.1785 -0.3681
 8591TIP3    H125726   7.169   5.178   0.146 -1.2547 -0.2483 -0.4572
 8591TIP3    H225727   7.280   5.075   0.142 -1.0210 -0.0717  1.1194
 8592TIP3   OH225728   3.208   4.753   0.032  0.4271  0.0881  0.0566
 8592TIP3    H125729   3.269   4.795   0.093  1.1709  0.6310 -1.0488
 8592TIP3    H225730   3.129   4.739   0.084  0.0595  3.1222  0.3743
 8593TIP3   OH225731   3.615   2.777   5.748 -0.5118  0.0157 -0.4395
 8593TIP3    H125732   3.601   2.757   5.840  1.1526  0.6161 -0.0522
 8593TIP3    H225733   3.710   2.778   5.737 -0.6657  1.3628 -1.8393
 8594TIP3   OH225734   4.830   0.691   5.700  0.2009  0.1155  0.6544
 8594TIP3    H125735   4.921   0.668   5.680 -0.1553 -0.0547 -0.8735
 8594TIP3    H225736   4.810   0.644   5.781  1.4688  0.1595  1.0014
 8595TIP3   OH225737   6.824   5.167   0.260  0.3419  0.5115 -0.2506
 8595TIP3    H125738   6.865   5.089   0.223 -0.9589 -0.2528 -0.1184
 8595TIP3    H225739   6.859   5.240   0.209 -1.4568 -0.5123 -3.0685
 8596TIP3   OH225740   6.219   2.506   5.243  0.2147  0.3302  0.3934
 8596TIP3    H125741   6.186   2.428   5.198 -1.7011  0.7092  1.0804
 8596TIP3    H225742   6.308   2.483   5.270  0.9175 -0.3758 -2.3851
 8597TIP3   OH225743   6.174   2.883   0.639  0.3438  0.1981  0.2909
 8597TIP3    H125744   6.103   2.914   0.582  1.3116 -0.7708 -1.5037
 8597TIP3    H225745   6.229   2.960   0.653  0.5950  0.2508 -0.8823
 8598TIP3   OH225746   3.678   7.260   5.990 -0.4666  0.1558 -0.2865
 8598TIP3    H125747   3.723   7.184   6.027  1.1703  1.8732  1.4236
 8598TIP3    H225748   3.724   7.335   6.029 -1.6534  2.0109 -2.3846
 8599TIP3   OH225749   7.876   5.863   1.059  0.6036 -0.0752 -0.2663
 8599TIP3    H125750   7.799   5.807   1.067  0.4811  0.1441  0.0768
 8599TIP3    H225751   7.877   5.889   0.966  0.1565  0.0807 -0.2276
 8600TIP3   OH225752   3.936   3.045   6.463 -0.7624  0.7665  0.0178
 8600TIP3    H125753   3.866   3.086   6.413 -0.7583  1.4630  0.5633
 8600TIP3    H225754   4.011   3.104   6.452 -1.0409  1.4566  1.6129
 8601TIP3   OH225755   4.181   2.703   5.309 -0.6377  0.5335 -0.0331
 8601TIP3    H125756   4.210   2.725   5.398 -0.0260  0.1766 -0.1422
 8601TIP3    H225757   4.261   2.708   5.256 -1.0282  0.8911 -0.5893
 8602TIP3   OH225758   1.952   6.667   5.136 -0.0085  0.1007 -0.4177
 8602TIP3    H125759   2.003   6.600   5.090  1.0103  1.2795 -1.0350
 8602TIP3    H225760   1.971   6.652   5.228  0.1776 -0.4948 -0.5476
 8603TIP3   OH225761   6.362   2.149   4.988  0.1399 -0.5200 -0.3556
 8603TIP3    H125762   6.437   2.096   5.015  0.8105  1.0262  0.9255
 8603TIP3    H225763   6.361   2.144   4.893  2.1607 -0.1918 -0.4130
 8604TIP3   OH225764   7.201   2.352   0.180  0.1020  0.0380  0.6437
 8604TIP3    H125765   7.143   2.288   0.221  0.1465 -0.5762 -0.2394
 8604TIP3    H225766   7.268   2.370   0.246  1.1848 -2.2721  0.2090
 8605TIP3   OH225767   7.202   3.566   0.769 -0.0477 -0.1653 -0.1885
 8605TIP3    H125768   7.201   3.572   0.674 -0.3028  0.3187 -0.1532
 8605TIP3    H225769   7.289   3.598   0.794 -0.8948  2.1433 -0.0947
 8606TIP3   OH225770   0.077   6.233   1.406 -0.1888 -0.1964  0.2095
 8606TIP3    H125771   0.072   6.165   1.473 -1.3587  0.6058  0.9447
 8606TIP3    H225772   0.171   6.244   1.389  0.0851 -0.7364  1.3632
 8607TIP3   OH225773   4.740   2.071   5.951  0.4106 -0.1810 -0.0981
 8607TIP3    H125774   4.697   2.147   5.993 -0.1183 -0.4540 -0.1412
 8607TIP3    H225775   4.703   2.069   5.863  0.2787 -0.6081 -0.0319
 8608TIP3   OH225776   0.493   5.617   1.551 -0.0517  0.0308 -0.1760
 8608TIP3    H125777   0.584   5.593   1.567 -0.3492 -1.3765 -0.4500
 8608TIP3    H225778   0.488   5.711   1.569  1.5830  0.2378 -0.7949
 8609TIP3   OH225779   7.831   6.403   0.276  0.5312 -0.1882 -0.0139
 8609TIP3    H125780   7.809   6.479   0.329 -1.2421 -0.1671 -0.7503
 8609TIP3    H225781   7.900   6.434   0.217 -1.2907  1.3163 -1.3963
 8610TIP3   OH225782   7.171   0.981   6.372  0.1205 -0.3085  0.4361
 8610TIP3    H125783   7.183   0.890   6.345 -1.2052 -0.5418  0.6068
 8610TIP3    H225784   7.116   0.976   6.450  0.0305  0.6415  0.4441
 8611TIP3   OH225785   4.199   1.058   1.057 -0.5415  0.0024 -0.3473
 8611TIP3    H125786   4.158   1.083   0.974 -0.2358 -0.6058 -0.6840
 8611TIP3    H225787   4.293   1.071   1.043 -0.5383  0.5444  0.1311
 8612TIP3   OH225788   4.546   1.542   5.918  0.5060  0.0421 -0.2153
 8612TIP3    H125789   4.615   1.608   5.913  1.0789 -0.4627  0.9062
 8612TIP3    H225790   4.557   1.490   5.838  1.9300 -0.5173  0.3312
 8613TIP3   OH225791   7.059   2.209   5.722 -0.3443  0.1309 -0.3121
 8613TIP3    H125792   6.981   2.245   5.681 -1.2147 -1.6718 -0.2789
 8613TIP3    H225793   7.107   2.168   5.650  0.7023  1.4450 -0.3745
 8614TIP3   OH225794   0.831   4.896   0.447 -0.4850  0.0444  0.4503
 8614TIP3    H125795   0.770   4.950   0.398  2.0107  0.6478 -2.0662
 8614TIP3    H225796   0.845   4.943   0.529 -0.9481  1.5027 -0.3068
 8615TIP3   OH225797   6.659   2.329   6.177  0.7955  0.0599 -0.0507
 8615TIP3    H125798   6.581   2.353   6.127  1.8073 -1.3095 -2.3633
 8615TIP3    H225799   6.724   2.396   6.156  0.6058  0.5740  0.9858
 8616TIP3   OH225800   1.505   5.048   0.695 -0.0141 -0.2135  0.8141
 8616TIP3    H125801   1.478   5.116   0.757 -1.0462 -0.0488  0.1924
 8616TIP3    H225802   1.439   4.979   0.704 -0.9721  0.4350 -1.1209
 8617TIP3   OH225803   4.913   2.666   5.419  0.1332 -0.8581 -0.2253
 8617TIP3    H125804   4.881   2.724   5.489 -0.4813 -0.5984 -0.7089
 8617TIP3    H225805   5.007   2.659   5.434  0.1093 -0.2555  0.2322
 8618TIP3   OH225806   5.341   2.861   5.804  0.0772 -0.0478 -0.3327
 8618TIP3    H125807   5.402   2.904   5.744  0.2983 -0.7674 -0.6310
 8618TIP3    H225808   5.285   2.931   5.836  1.5646  0.7517  0.5548
 8619TIP3   OH225809   3.647   2.643   5.209  0.2995 -0.2140  0.2174
 8619TIP3    H125810   3.643   2.643   5.113  0.8669  2.9568  0.1441
 8619TIP3    H225811   3.730   2.600   5.229  0.1779 -0.8926 -0.7191
 8620TIP3   OH225812   6.489   6.565   0.948 -0.2434 -0.2063 -0.0959
 8620TIP3    H125813   6.410   6.547   0.897  0.2659 -0.1973 -0.9001
 8620TIP3    H225814   6.552   6.500   0.918  0.0144 -0.3135  0.6568
 8621TIP3   OH225815   5.819   2.641   5.908  0.0433  0.0710  0.4141
 8621TIP3    H125816   5.745   2.581   5.894 -0.7899  1.1130  0.2583
 8621TIP3    H225817   5.828   2.646   6.003  0.7840 -1.0993  0.4099
 8622TIP3   OH225818   5.863   0.644   5.209  0.1481  0.1008 -0.1599
 8622TIP3    H125819   5.929   0.711   5.194  1.6628 -1.3005  0.0250
 8622TIP3    H225820   5.892   0.570   5.155 -1.6685 -0.2766 -0.6345
 8623TIP3   OH225821   0.416   7.143   5.369  0.2468  0.2834 -0.6932
 8623TIP3    H125822   0.447   7.055   5.345  0.5056  0.1433  0.1580
 8623TIP3    H225823   0.428   7.148   5.463  0.0125  1.1542 -0.7074
 8624TIP3   OH225824   6.308   2.780   5.146 -0.2812  0.1602 -1.0009
 8624TIP3    H125825   6.350   2.735   5.072  1.3180  1.0650 -0.6647
 8624TIP3    H225826   6.281   2.709   5.205  1.3813 -0.4292 -0.9146
 8625TIP3   OH225827   6.341   4.684   0.072 -0.2638  0.4874 -0.7022
 8625TIP3    H125828   6.361   4.777   0.080 -0.0708  0.3695  0.3477
 8625TIP3    H225829   6.421   4.644   0.038  0.4232  0.3899  0.9943
 8626TIP3   OH225830   5.350   1.449   5.140  0.2196  0.1433  0.1365
 8626TIP3    H125831   5.260   1.463   5.113 -0.4360 -2.3911  0.8018
 8626TIP3    H225832   5.399   1.441   5.058 -0.4803 -0.2091 -0.2538
 8627TIP3   OH225833   7.412   5.812   1.338  0.3013 -0.7954  0.4858
 8627TIP3    H125834   7.492   5.803   1.390  0.0979  0.4893  1.0301
 8627TIP3    H225835   7.341   5.802   1.400  0.0584  0.9812  0.5238
 8628TIP3   OH225836   3.480   1.575   5.719 -0.4578  0.1923  0.1308
 8628TIP3    H125837   3.476   1.661   5.760  0.8196  0.7992 -0.9441
 8628TIP3    H225838   3.426   1.584   5.640  0.1478  0.2197 -0.2927
 8629TIP3   OH225839   7.858   4.723   2.176 -0.1675  0.4856  0.2848
 8629TIP3    H125840   7.892   4.811   2.192  1.8946 -0.1494 -0.3729
 8629TIP3    H225841   7.773   4.737   2.136  0.4361  2.2133 -0.4485
 8630TIP3   OH225842   7.210   6.324   0.581  0.0716  0.2143  0.3114
 8630TIP3    H125843   7.189   6.242   0.627  0.6280 -0.7554 -1.1177
 8630TIP3    H225844   7.138   6.383   0.603 -0.3553 -0.6778  1.3425
 8631TIP3   OH225845   1.978   0.162   0.434 -0.5337  0.0527 -0.3514
 8631TIP3    H125846   2.005   0.072   0.452 -1.4707 -0.2698 -0.5130
 8631TIP3    H225847   2.056   0.215   0.451 -0.2564 -0.6815  0.6920
 8632TIP3   OH225848   0.683   3.886   0.920  0.2322  0.3191  0.1147
 8632TIP3    H125849   0.695   3.791   0.924  0.4370  0.3476  0.1850
 8632TIP3    H225850   0.750   3.921   0.978  0.5916  0.5352 -0.4270
 8633TIP3   OH225851   4.984   2.107   3.805 -0.3485 -0.2946 -0.3391
 8633TIP3    H125852   4.934   2.188   3.797 -1.3448 -0.9016 -0.4593
 8633TIP3    H225853   5.071   2.129   3.774 -0.0884  1.2042  1.4050
 8634TIP3   OH225854   4.785   1.797   5.929  0.7326 -0.7803 -0.2464
 8634TIP3    H125855   4.768   1.890   5.943 -2.1907 -1.0319 -1.7129
 8634TIP3    H225856   4.861   1.778   5.984  0.7827  2.2415  0.8298
 8635TIP3   OH225857   3.934   2.289   5.293 -0.2973  0.1445  0.6064
 8635TIP3    H125858   3.956   2.228   5.364 -1.2382 -0.0318  0.7520
 8635TIP3    H225859   3.984   2.258   5.218  0.1982 -0.0562  1.0141
 8636TIP3   OH225860   6.689   1.592   5.599 -0.4926 -0.1778 -0.0673
 8636TIP3    H125861   6.705   1.649   5.674 -1.4736  0.7874 -0.5660
 8636TIP3    H225862   6.768   1.539   5.591  0.0805  0.5091  0.9441
 8637TIP3   OH225863   0.964   5.053   0.177  0.8305  0.1285  0.0774
 8637TIP3    H125864   0.871   5.045   0.155  0.7656  0.5806  0.1793
 8637TIP3    H225865   0.976   5.146   0.197  1.1055 -0.0982  0.9678
 8638TIP3   OH225866   6.905   5.696   0.585  0.6162  0.6898  0.0164
 8638TIP3    H125867   6.957   5.769   0.551  1.5072 -0.0446 -0.2300
 8638TIP3    H225868   6.965   5.621   0.582 -0.5504 -0.2307 -0.5530
 8639TIP3   OH225869   3.636   1.519   5.998  0.3187 -0.0629 -0.3068
 8639TIP3    H125870   3.626   1.591   5.936 -0.8500  1.2363  1.3421
 8639TIP3    H225871   3.603   1.443   5.951 -0.3157  0.8493 -1.3644
 8640TIP3   OH225872   7.560   6.329   0.385  0.6269 -0.2424 -0.0849
 8640TIP3    H125873   7.527   6.242   0.366  0.4442 -0.2863  0.4227
 8640TIP3    H225874   7.645   6.333   0.341 -1.0707  0.6970 -3.4010
 8641TIP3   OH225875   0.343   5.837   0.642  0.8304 -0.4915 -0.2022
 8641TIP3    H125876   0.254   5.865   0.623  0.5048 -0.4468  1.3494
 8641TIP3    H225877   0.352   5.752   0.598  0.9837  0.8137 -2.7538
 8642TIP3   OH225878   5.487   1.247   6.321  0.2011  0.1455 -0.0879
 8642TIP3    H125879   5.541   1.249   6.400  1.9057 -0.7002 -1.1985
 8642TIP3    H225880   5.502   1.160   6.284 -0.7939  0.4320 -1.1960
 8643TIP3   OH225881   4.419   0.546   4.627 -0.4775 -0.2722 -0.3195
 8643TIP3    H125882   4.367   0.471   4.598 -0.0582 -0.9809  0.7225
 8643TIP3    H225883   4.355   0.607   4.662 -0.8126 -0.1935 -1.0595
 8644TIP3   OH225884   4.017   0.971   6.119 -0.1497  0.5786 -0.1375
 8644TIP3    H125885   4.006   1.047   6.062  1.4869  0.6403 -0.3907
 8644TIP3    H225886   4.110   0.951   6.115 -0.6194 -1.6626 -0.3486
 8645TIP3   OH225887   4.409   1.373   4.661  0.0692 -0.1260  0.4488
 8645TIP3    H125888   4.356   1.386   4.582 -1.4953 -2.0867  1.1570
 8645TIP3    H225889   4.386   1.446   4.718 -1.8274 -0.9275  0.7197
 8646TIP3   OH225890   2.761   1.463   5.490  0.1089  0.1359  0.5829
 8646TIP3    H125891   2.833   1.469   5.553  1.5575 -3.2919 -0.6198
 8646TIP3    H225892   2.802   1.478   5.405 -1.2926  1.7810  0.1797
 8647TIP3   OH225893   4.233   4.256   1.681  0.4056  0.4158  0.3061
 8647TIP3    H125894   4.309   4.312   1.664  0.1559  0.6235 -0.1478
 8647TIP3    H225895   4.168   4.313   1.722 -0.4638  0.8720 -1.6495
 8648TIP3   OH225896   7.395   4.477   1.095  0.0790 -0.4380  0.2373
 8648TIP3    H125897   7.468   4.502   1.152  0.0146 -0.8659  0.5010
 8648TIP3    H225898   7.346   4.559   1.084  0.4728 -0.1965  0.2365
 8649TIP3   OH225899   1.106   5.258   5.917  0.1134  0.3151  0.2095
 8649TIP3    H125900   1.041   5.193   5.943 -0.7088  0.8055 -0.6191
 8649TIP3    H225901   1.183   5.205   5.892 -0.5569 -0.3450 -0.4818
 8650TIP3   OH225902   6.463   2.278   5.956 -0.1474 -0.1361 -0.3388
 8650TIP3    H125903   6.380   2.268   6.003 -0.5709  1.1162 -0.8264
 8650TIP3    H225904   6.516   2.204   5.986 -0.9400 -0.1613  1.0280
 8651TIP3   OH225905   0.166   6.522   1.152  0.0002 -0.1502 -0.5970
 8651TIP3    H125906   0.197   6.612   1.144  0.1767 -0.2785 -1.4759
 8651TIP3    H225907   0.081   6.529   1.195  0.7959  0.2876  0.9118
 8652TIP3   OH225908   7.736   3.675   1.153  0.6164 -0.1828  0.1192
 8652TIP3    H125909   7.762   3.587   1.177 -0.6828 -0.2839  1.2255
 8652TIP3    H225910   7.649   3.665   1.114 -0.1259  0.7320  1.4829
 8653TIP3   OH225911   1.457   4.943   1.905  0.2534 -0.2126 -0.0543
 8653TIP3    H125912   1.421   4.956   1.818 -0.0701  0.0579  0.1163
 8653TIP3    H225913   1.456   4.848   1.918 -0.7069 -0.1928  0.0761
 8654TIP3   OH225914   4.218   3.030   5.708 -0.3077  0.3769  0.3569
 8654TIP3    H125915   4.262   3.111   5.684 -0.9728  0.8505  0.7283
 8654TIP3    H225916   4.155   3.055   5.775  0.1779 -0.6063  1.2167
 8655TIP3   OH225917   3.379   1.803   4.853  0.5540 -0.2188 -0.0598
 8655TIP3    H125918   3.313   1.839   4.794  0.4635  0.3655  0.3990
 8655TIP3    H225919   3.329   1.745   4.912  0.4490  0.2152  0.2809
 8656TIP3   OH225920   7.760   5.206   0.103  0.1452  0.5548 -0.3985
 8656TIP3    H125921   7.850   5.220   0.075  0.2090  0.8006 -0.0666
 8656TIP3    H225922   7.717   5.291   0.092 -0.4002  0.0990 -1.8675
 8657TIP3   OH225923   6.274   0.558   5.935  0.2096  0.4867  0.7878
 8657TIP3    H125924   6.363   0.525   5.934  0.0062 -0.0549 -0.7795
 8657TIP3    H225925   6.280   0.647   5.901 -0.0426 -0.1362 -0.9600
 8658TIP3   OH225926   7.167   5.860   1.434  0.2508 -0.3375 -0.0129
 8658TIP3    H125927   7.097   5.919   1.463  1.5748  1.9881 -1.4177
 8658TIP3    H225928   7.174   5.795   1.504 -2.7557 -0.1501  0.5255
 8659TIP3   OH225929   4.763   1.115   4.837  0.9694 -0.7020 -0.1950
 8659TIP3    H125930   4.668   1.126   4.850  1.0419 -0.9601  0.5950
 8659TIP3    H225931   4.797   1.205   4.839  0.8625 -0.6741  0.5301
 8660TIP3   OH225932   7.633   6.035   0.026  0.1613  0.4214 -0.1200
 8660TIP3    H125933   7.657   6.109  -0.030 -1.3327  0.5803 -0.5715
 8660TIP3    H225934   7.573   6.073   0.091  0.7260 -0.0578  0.6848
 8661TIP3   OH225935   5.572   0.375   4.309  0.0428 -0.1256 -0.7818
 8661TIP3    H125936   5.606   0.301   4.359 -1.0509 -1.0681 -1.4090
 8661TIP3    H225937   5.528   0.430   4.374 -1.4155 -1.3661 -0.6762
 8662TIP3   OH225938   4.827   0.967   6.378  0.6586  0.4199 -0.1631
 8662TIP3    H125939   4.801   0.933   6.464  0.9242 -0.9372 -0.6093
 8662TIP3    H225940   4.871   1.050   6.397  3.1905 -1.1867  1.2610
 8663TIP3   OH225941   7.459   4.447   2.524 -0.3292  0.4394  0.4091
 8663TIP3    H125942   7.434   4.381   2.589 -1.3874 -1.5334 -1.9255
 8663TIP3    H225943   7.376   4.486   2.497 -0.0218  0.3783 -0.6361
 8664TIP3   OH225944   0.350   7.067   1.856 -0.5506 -0.3736  0.2559
 8664TIP3    H125945   0.267   7.107   1.881 -0.1413  0.3590  0.4495
 8664TIP3    H225946   0.379   7.117   1.779  0.6306  0.5985  1.3189
 8665TIP3   OH225947   6.151   2.012   6.202  0.2674 -0.1371 -0.0325
 8665TIP3    H125948   6.152   2.042   6.293 -2.6395  0.5256 -0.1791
 8665TIP3    H225949   6.231   1.960   6.194  0.2468 -0.7981  3.0999
 8666TIP3   OH225950   7.206   4.832  -0.015  0.4864 -0.0574  0.5565
 8666TIP3    H125951   7.239   4.823   0.075  1.6616  1.8463  0.3353
 8666TIP3    H225952   7.243   4.914  -0.046 -0.6479 -0.2532 -1.3790
 8667TIP3   OH225953   5.454   4.613   6.406  0.2240  0.6998  0.1951
 8667TIP3    H125954   5.485   4.535   6.360 -0.6901  0.5259 -0.1275
 8667TIP3    H225955   5.359   4.609   6.400  0.0518  0.2926  2.7346
 8668TIP3   OH225956   2.043   1.535   5.147 -0.6882  0.2583 -0.0352
 8668TIP3    H125957   2.002   1.512   5.064  0.2130 -1.4412 -0.0437
 8668TIP3    H225958   2.007   1.473   5.210 -0.9887  1.2127  0.7329
 8669TIP3   OH225959   4.707   2.920   5.301  0.3342  0.3198  0.0878
 8669TIP3    H125960   4.664   2.966   5.228 -0.1496  0.1602  0.2756
 8669TIP3    H225961   4.792   2.896   5.266 -0.0798 -0.1736 -0.5858
 8670TIP3   OH225962   5.306   0.880   5.191  0.2719  0.3901 -0.2131
 8670TIP3    H125963   5.308   0.973   5.168 -1.0671  0.5975  0.4561
 8670TIP3    H225964   5.397   0.859   5.212  1.0245  0.9332 -2.6982
 8671TIP3   OH225965   6.185   1.311   5.625 -0.3166 -0.2894 -0.1519
 8671TIP3    H125966   6.137   1.256   5.563  1.9709  0.1826 -2.3972
 8671TIP3    H225967   6.132   1.391   5.632 -1.5276 -1.0856 -0.0499
 8672TIP3   OH225968   5.586   4.838   0.120 -0.1275 -0.4953 -0.2766
 8672TIP3    H125969   5.659   4.828   0.059 -0.1211 -1.5075 -0.1108
 8672TIP3    H225970   5.601   4.923   0.162  1.0636 -0.7850 -0.0952
 8673TIP3   OH225971   3.413   1.214   4.523 -0.1216  0.2086 -0.1006
 8673TIP3    H125972   3.499   1.181   4.549  0.5910 -0.4919 -3.1755
 8673TIP3    H225973   3.427   1.308   4.508  0.6017 -0.2553 -2.4731
 8674TIP3   OH225974   0.315   6.792   1.818  0.0557  0.6648 -0.0603
 8674TIP3    H125975   0.313   6.888   1.816  1.6473  0.7010 -0.1010
 8674TIP3    H225976   0.371   6.768   1.744 -1.8176 -0.3773 -1.1932
 8675TIP3   OH225977   5.684   1.725   3.725  0.8096  0.6535 -0.1065
 8675TIP3    H125978   5.725   1.685   3.649 -0.0202  0.6337 -0.5499
 8675TIP3    H225979   5.704   1.666   3.797 -3.5332 -2.6394 -1.3969
 8676TIP3   OH225980   7.102   1.106   5.847 -0.0517  0.1185  0.2513
 8676TIP3    H125981   7.029   1.148   5.892 -0.1433 -0.8900  1.0616
 8676TIP3    H225982   7.081   1.113   5.754 -0.1410  1.7144  0.3762
 8677TIP3   OH225983   3.257   0.456   1.126 -0.1709  0.1613 -0.2491
 8677TIP3    H125984   3.257   0.387   1.192  0.1314  0.3621 -0.0387
 8677TIP3    H225985   3.176   0.443   1.077  0.1738 -0.7157 -0.5986
 8678TIP3   OH225986   1.091   5.668   0.113 -0.4217 -0.0929  0.4095
 8678TIP3    H125987   1.152   5.626   0.173 -0.1626  0.5198  0.5706
 8678TIP3    H225988   1.005   5.635   0.141 -0.1692 -1.0468  0.1024
 8679TIP3   OH225989   6.154   5.309   0.236 -0.0235 -0.0443  0.5579
 8679TIP3    H125990   6.249   5.306   0.239  0.0874  1.6184 -0.2924
 8679TIP3    H225991   6.131   5.385   0.290 -0.7977  0.0636  0.0884
 8680TIP3   OH225992   4.401   2.094   5.378  0.4826 -0.0276  0.3277
 8680TIP3    H125993   4.471   2.037   5.347  0.1708  0.5085 -1.4462
 8680TIP3    H225994   4.418   2.178   5.334 -1.4245  0.0279 -0.3496
 8681TIP3   OH225995   5.885   0.563   3.923 -0.1986  0.5199  0.6346
 8681TIP3    H125996   5.835   0.526   3.850  0.1429  0.3592  0.4830
 8681TIP3    H225997   5.976   0.545   3.901 -0.0732  0.8128  0.9126
 8682TIP3   OH225998   1.856   4.081   1.588  0.2783  0.6139  0.1565
 8682TIP3    H125999   1.833   4.003   1.638 -0.6783  1.4912  1.1074
 8682TIP3    H226000   1.945   4.102   1.616 -0.9225  2.2043  2.9793
 8683TIP3   OH226001   5.985   3.669   5.583 -0.3861 -0.5326  0.8174
 8683TIP3    H126002   5.914   3.613   5.553  0.3592 -0.6673 -0.7447
 8683TIP3    H226003   5.977   3.669   5.679 -2.5337 -0.4496  0.6538
 8684TIP3   OH226004   6.807   3.070   0.060 -0.1859 -0.2413 -0.1481
 8684TIP3    H126005   6.735   3.041   0.004  0.4532  1.9995 -2.1846
 8684TIP3    H226006   6.886   3.049   0.010  0.3965  1.6737 -0.0558
 8685TIP3   OH226007   6.470   6.124   0.114 -0.0697  0.6698 -0.1545
 8685TIP3    H126008   6.455   6.216   0.092 -1.5454  0.2619 -0.9176
 8685TIP3    H226009   6.478   6.080   0.029  0.4719  0.0768  0.2019
 8686TIP3   OH226010   4.458   0.149   1.581  0.9283 -0.4586  0.3188
 8686TIP3    H126011   4.494   0.094   1.650  0.5065 -1.3040 -0.1214
 8686TIP3    H226012   4.524   0.217   1.566  1.6077 -1.0473  0.6317
 8687TIP3   OH226013   4.758   7.424   5.955  0.7237  0.7446 -0.1599
 8687TIP3    H126014   4.790   7.417   5.866 -0.3719 -0.5286 -0.4698
 8687TIP3    H226015   4.834   7.404   6.010  0.7324 -1.3413 -0.8663
 8688TIP3   OH226016   6.309   6.892   1.801  0.2445 -0.0406 -0.4315
 8688TIP3    H126017   6.378   6.937   1.849  0.8135  0.7948 -1.9891
 8688TIP3    H226018   6.232   6.949   1.808  0.4877  0.3584 -0.9795
 8689TIP3   OH226019   1.357   1.242   5.633  0.2687  0.0803  0.3527
 8689TIP3    H126020   1.274   1.232   5.679  0.2957  2.3118  0.9316
 8689TIP3    H226021   1.411   1.169   5.664 -0.7608 -0.1910  1.5309
 8690TIP3   OH226022   1.525   4.213   0.760  0.1471 -0.1328  0.3785
 8690TIP3    H126023   1.448   4.265   0.782 -1.1211 -2.3247  1.3567
 8690TIP3    H226024   1.571   4.264   0.694  0.2921  3.3347  3.0257
 8691TIP3   OH226025   7.555   5.791   0.220  0.3596 -0.0447 -0.6577
 8691TIP3    H126026   7.544   5.819   0.311  3.0258  0.8744 -0.5883
 8691TIP3    H226027   7.601   5.864   0.178 -1.3462 -0.2191 -2.9109
 8692TIP3   OH226028   5.823   2.392   6.101 -0.1275 -0.0769 -0.3604
 8692TIP3    H126029   5.800   2.388   6.008 -1.5461  1.1885 -0.0969
 8692TIP3    H226030   5.880   2.317   6.115 -0.8054 -0.9366 -2.0131
 8693TIP3   OH226031   5.865   3.932   0.704  0.3606  0.3770 -0.5854
 8693TIP3    H126032   5.807   3.867   0.665  1.3170 -0.6772 -0.3198
 8693TIP3    H226033   5.953   3.898   0.688  0.8270  0.7313  1.0343
 8694TIP3   OH226034   5.517   6.413   4.502 -0.0235  0.0895  0.3404
 8694TIP3    H126035   5.466   6.357   4.443 -0.6078  1.1307 -0.1524
 8694TIP3    H226036   5.575   6.463   4.444 -0.1368  0.6380  0.6975
 8695TIP3   OH226037   1.653   6.746   0.284 -0.0465  0.1866 -0.0753
 8695TIP3    H126038   1.736   6.790   0.303 -0.2090  0.9638 -1.1089
 8695TIP3    H226039   1.671   6.696   0.204 -0.7874  1.0040 -0.7693
 8696TIP3   OH226040   5.830   1.830   6.115 -0.0641 -0.6124  0.3310
 8696TIP3    H126041   5.755   1.871   6.159  2.0758  1.5887  2.0319
 8696TIP3    H226042   5.870   1.901   6.064  0.9910 -1.7234 -0.4389
 8697TIP3   OH226043   7.254   5.586   0.163 -0.0096 -0.3774  0.2935
 8697TIP3    H126044   7.317   5.515   0.171  0.2626 -0.1287  0.3504
 8697TIP3    H226045   7.298   5.653   0.112 -0.1276 -0.0928  0.5586
 8698TIP3   OH226046   7.019   2.608   4.778  0.1439 -0.0182 -0.3707
 8698TIP3    H126047   7.063   2.690   4.757 -2.8987  1.8705  0.4271
 8698TIP3    H226048   6.995   2.616   4.871 -0.9217 -1.4554 -0.4986
 8699TIP3   OH226049   0.019   6.867   1.277 -0.2329  0.3287  0.1570
 8699TIP3    H126050   0.027   6.957   1.245  0.0716 -0.7772 -3.0413
 8699TIP3    H226051   0.099   6.824   1.248 -0.9630 -1.3029  0.5168
 8700TIP3   OH226052   7.675   3.697   2.209 -0.3633 -0.1051 -0.0929
 8700TIP3    H126053   7.644   3.650   2.132  1.3645 -0.8169 -0.3983
 8700TIP3    H226054   7.612   3.677   2.277 -2.5883  1.5206 -1.6225
 8701TIP3   OH226055   5.019   1.775   6.097  0.3287  0.3576  0.1777
 8701TIP3    H126056   5.051   1.690   6.127 -1.0046 -0.2911 -0.2307
 8701TIP3    H226057   5.038   1.777   6.004 -0.5742  0.0720 -0.0184
 8702TIP3   OH226058   5.087   1.773   5.842  0.3364  0.1976  0.1873
 8702TIP3    H126059   5.158   1.832   5.816  1.4755 -0.8169  0.9806
 8702TIP3    H226060   5.026   1.776   5.768  0.2634  2.5209  0.2910
 8703TIP3   OH226061   5.263   3.505   5.704 -0.3829  0.7686 -0.1868
 8703TIP3    H126062   5.250   3.553   5.622 -1.0603  2.9477  1.1609
 8703TIP3    H226063   5.269   3.573   5.771  3.0587 -0.8238  1.2468
 8704TIP3   OH226064   1.144   5.440   1.805  0.6416  0.0951 -0.4452
 8704TIP3    H126065   1.086   5.378   1.761 -0.9835  0.1569  1.5079
 8704TIP3    H226066   1.226   5.392   1.818 -0.4633 -1.5102  0.6753
 8705TIP3   OH226067   1.814   7.326   6.121 -0.0989 -0.1697 -0.6034
 8705TIP3    H126068   1.860   7.388   6.178  0.8901 -0.8895 -0.6029
 8705TIP3    H226069   1.760   7.381   6.064  0.4247  0.6674 -0.3001
 8706TIP3   OH226070   7.239   3.602   0.211 -0.3275  0.0110 -0.3774
 8706TIP3    H126071   7.248   3.693   0.184 -0.5127  0.1967  0.1985
 8706TIP3    H226072   7.291   3.553   0.147  1.2525  0.6841  0.3891
 8707TIP3   OH226073   7.689   2.425   6.429 -0.4227  0.3674 -0.8249
 8707TIP3    H126074   7.669   2.442   6.520  2.0733  0.2650 -0.2204
 8707TIP3    H226075   7.635   2.486   6.380  1.4507  3.5453  0.9017
 8708TIP3   OH226076   6.364   4.214   1.555  0.0600 -0.0007  0.9089
 8708TIP3    H126077   6.274   4.181   1.547  0.9437 -2.0491 -1.0128
 8708TIP3    H226078   6.356   4.309   1.544 -1.5855 -0.3968 -1.5633
 8709TIP3   OH226079   5.658   3.870   0.546  0.0677 -0.2095  0.2419
 8709TIP3    H126080   5.608   3.894   0.468 -0.8913 -0.0616  0.8958
 8709TIP3    H226081   5.602   3.806   0.591  0.6590 -0.3679  0.7501
 8710TIP3   OH226082   4.622   1.391   5.697 -0.3538 -0.5043  0.1523
 8710TIP3    H126083   4.701   1.358   5.740 -0.1903 -0.8937 -0.4414
 8710TIP3    H226084   4.653   1.424   5.612 -0.8570 -0.8626 -0.1785
 8711TIP3   OH226085   5.836   1.196   2.362 -0.0155  0.0532 -0.2631
 8711TIP3    H126086   5.821   1.275   2.414 -0.4751 -1.0044  1.2713
 8711TIP3    H226087   5.768   1.198   2.295 -1.0128  0.1640  0.7369
 8712TIP3   OH226088   7.635   5.974   4.514  0.2166 -0.4810 -0.1359
 8712TIP3    H126089   7.710   5.918   4.490 -0.5900 -1.2772 -0.8678
 8712TIP3    H226090   7.571   5.957   4.445 -0.4099  0.6411  0.1712
 8713TIP3   OH226091   5.962   5.223   0.065  0.0849 -0.2201  0.1664
 8713TIP3    H126092   5.931   5.297   0.012 -2.4181 -1.4335 -0.1249
 8713TIP3    H226093   6.034   5.260   0.117 -0.4978  2.1778 -0.6365
 8714TIP3   OH226094   1.041   5.734   0.860  0.1140  0.3533  0.0885
 8714TIP3    H126095   0.989   5.801   0.814  1.0836 -0.4214 -2.2413
 8714TIP3    H226096   0.985   5.706   0.932 -1.1604  2.1893 -0.1413
 8715TIP3   OH226097   0.804   5.589   0.530  0.3205  0.8546  0.0994
 8715TIP3    H126098   0.788   5.673   0.571  2.4406  0.8658  0.9830
 8715TIP3    H226099   0.875   5.550   0.581  0.2707 -0.8909 -1.0971
 8716TIP3   OH226100   2.354   7.141   2.449  0.1079  0.5853  0.1461
 8716TIP3    H126101   2.427   7.100   2.495 -1.1955 -1.6370  0.3142
 8716TIP3    H226102   2.334   7.220   2.500  1.7429  0.7087  0.6250
 8717TIP3   OH226103   7.601   3.004   5.238 -0.1319  0.4557  0.2465
 8717TIP3    H126104   7.532   3.013   5.305  1.6994  2.6511  1.9099
 8717TIP3    H226105   7.652   3.085   5.246  3.2457 -1.5461 -0.2510
 8718TIP3   OH226106   1.040   4.840   1.217 -0.0187  0.2399 -0.1332
 8718TIP3    H126107   1.062   4.750   1.238  1.2695  1.3899  3.9713
 8718TIP3    H226108   1.124   4.883   1.203 -0.6204  0.8222 -2.0833
 8719TIP3   OH226109   6.774   2.901   6.308  0.4201  0.2488 -0.3437
 8719TIP3    H126110   6.788   2.843   6.382 -1.4070 -0.4461 -0.5174
 8719TIP3    H226111   6.809   2.986   6.337  0.4525 -0.2115  0.9947
 8720TIP3   OH226112   1.040   7.416   1.542  0.1171 -0.1589 -0.3856
 8720TIP3    H126113   1.081   7.375   1.618 -1.1272  1.2056  1.0528
 8720TIP3    H226114   1.065   7.360   1.468  4.2048  0.3994  0.4541
 8721TIP3   OH226115   6.162   1.780   4.549 -0.4471  0.4657 -0.0976
 8721TIP3    H126116   6.118   1.789   4.633  0.3082  1.1066  0.2304
 8721TIP3    H226117   6.206   1.695   4.554 -0.1077  0.6669  0.2861
 8722TIP3   OH226118   5.948   0.987   3.801 -0.2538 -0.7653 -0.6857
 8722TIP3    H126119   5.965   0.904   3.756 -0.4381 -0.9165 -0.4769
 8722TIP3    H226120   5.885   0.965   3.869  1.7591 -0.9921  1.1638
 8723TIP3   OH226121   7.023   2.834   4.207 -0.7614  0.6584  0.6101
 8723TIP3    H126122   6.967   2.772   4.161  0.5485  0.1666 -0.3504
 8723TIP3    H226123   7.031   2.909   4.147  1.9122 -0.4788 -0.5483
 8724TIP3   OH226124   3.446   2.946   5.617  0.1238  0.2627  0.0623
 8724TIP3    H126125   3.395   2.884   5.566  1.2600  0.2578 -1.1011
 8724TIP3    H226126   3.496   2.892   5.678  0.4951  0.0816 -0.3947
 8725TIP3   OH226127   2.408   6.030   0.622 -0.1362 -0.2521 -0.1174
 8725TIP3    H126128   2.315   6.010   0.611 -0.0495 -0.9641  0.4519
 8725TIP3    H226129   2.450   5.985   0.549 -0.3258  0.7986 -0.8897
 8726TIP3   OH226130   7.646   5.472   0.196 -0.7566  0.2030  0.2408
 8726TIP3    H126131   7.642   5.564   0.173 -1.4565  0.1162 -0.0021
 8726TIP3    H226132   7.642   5.471   0.292 -0.5368  0.4323  0.2518
 8727TIP3   OH226133   7.650   5.722   0.677 -0.2737  0.0245  0.6974
 8727TIP3    H126134   7.743   5.739   0.662 -0.0865 -0.6982  0.9883
 8727TIP3    H226135   7.636   5.634   0.642 -0.6180 -0.2735  1.5764
 8728TIP3   OH226136   5.463   1.484   6.155  0.4234 -0.3289  0.5588
 8728TIP3    H126137   5.487   1.394   6.177  2.4397 -0.0445 -0.3613
 8728TIP3    H226138   5.485   1.493   6.062 -0.0298  1.0190  0.5661
 8729TIP3   OH226139   7.636   7.194   5.248 -0.0846 -0.1379  0.3532
 8729TIP3    H126140   7.629   7.268   5.188 -0.5287 -2.4546 -2.5885
 8729TIP3    H226141   7.719   7.152   5.226 -0.1276 -0.8900  1.5491
 8730TIP3   OH226142   4.019   3.991   6.220  0.9312 -0.1046 -0.0307
 8730TIP3    H126143   3.972   3.926   6.273  0.7784 -0.9077 -1.1295
 8730TIP3    H226144   4.049   3.942   6.143  2.9600  0.5642  0.3020
 8731TIP3   OH226145   2.929   2.595   6.033 -0.0290  0.2894  0.4282
 8731TIP3    H126146   2.889   2.578   6.118  1.2011 -2.9740  0.4355
 8731TIP3    H226147   2.882   2.539   5.972  1.5569 -0.2046 -0.3683
 8732TIP3   OH226148   5.277   4.523   0.093  0.5114  0.1625  0.0091
 8732TIP3    H126149   5.248   4.599   0.043  0.2901 -0.2899 -0.5617
 8732TIP3    H226150   5.365   4.505   0.060 -0.1366 -0.9329 -1.1686
 8733TIP3   OH226151   2.600   4.653  -0.006 -0.4136 -0.1290 -0.1537
 8733TIP3    H126152   2.646   4.728   0.032 -2.1109  0.8171  0.0921
 8733TIP3    H226153   2.666   4.584  -0.011  0.9432  1.0980  0.4617
 8734TIP3   OH226154   6.357   1.301   6.346 -0.2112 -0.0058 -0.1332
 8734TIP3    H126155   6.372   1.382   6.395 -0.3458  0.5474 -0.9808
 8734TIP3    H226156   6.313   1.243   6.408 -0.4016  0.6863  0.3891
 8735TIP3   OH226157   0.074   6.112   1.667  0.5535  0.1774 -0.4923
 8735TIP3    H126158   0.133   6.086   1.737 -0.8462  0.6603  0.9110
 8735TIP3    H226159   0.074   6.208   1.669 -2.8839  0.2279  1.8839
 8736TIP3   OH226160   6.587   5.944   3.748  0.5659  0.0419  0.7619
 8736TIP3    H126161   6.663   5.957   3.690 -0.2372 -0.3084 -0.3751
 8736TIP3    H226162   6.577   6.028   3.792  0.3563  0.7595 -0.6176
 8737TIP3   OH226163   5.365   3.163   4.011 -0.1045  0.4808  0.2671
 8737TIP3    H126164   5.300   3.232   4.006 -1.3432 -0.5213  1.9974
 8737TIP3    H226165   5.445   3.206   4.040 -0.4008  1.4475 -0.3378
 8738TIP3   OH226166   1.568   5.511   0.607  0.2700 -0.8398 -0.4973
 8738TIP3    H126167   1.477   5.538   0.595  0.2872  0.1994  1.3815
 8738TIP3    H226168   1.619   5.573   0.555  0.0324  0.1379  0.4110
 8739TIP3   OH226169   2.740   7.350   1.057 -0.0321  0.4383 -0.2004
 8739TIP3    H126170   2.782   7.400   0.987  2.3138 -0.0731  0.7643
 8739TIP3    H226171   2.765   7.396   1.138  0.3510 -1.0367  0.5410
 8740TIP3   OH226172   6.429   1.346   5.259  0.0406  0.3630  0.1957
 8740TIP3    H126173   6.439   1.442   5.257  0.0403  0.4241  2.4662
 8740TIP3    H226174   6.337   1.332   5.239  0.3204  0.7588 -1.4518
 8741TIP3   OH226175   5.533   3.387   5.092  0.5613 -0.1469 -0.1883
 8741TIP3    H126176   5.611   3.442   5.100  0.0517  0.5767 -0.1413
 8741TIP3    H226177   5.491   3.416   5.011 -1.2969  1.6195  1.3353
 8742TIP3   OH226178   3.698   3.833   6.216  0.0122 -0.2771  0.2778
 8742TIP3    H126179   3.691   3.752   6.267  0.0275 -0.2770  0.2804
 8742TIP3    H226180   3.760   3.812   6.146  1.1027  0.1711  1.1079
 8743TIP3   OH226181   4.473   3.165   4.246 -0.1155 -0.0733  0.6378
 8743TIP3    H126182   4.387   3.124   4.233 -0.1853  0.3731 -0.3528
 8743TIP3    H226183   4.534   3.106   4.202 -0.0129  0.0609  0.6042
 8744TIP3   OH226184   6.500   0.396   5.282  0.0425 -0.5739  0.6114
 8744TIP3    H126185   6.571   0.361   5.228 -0.1605 -0.4054  0.2311
 8744TIP3    H226186   6.472   0.322   5.335 -1.3267 -1.3772 -1.1935
 8745TIP3   OH226187   7.181   1.405   6.229 -0.3840 -0.4118  0.5808
 8745TIP3    H126188   7.090   1.380   6.214  0.2242 -2.6524  0.4548
 8745TIP3    H226189   7.218   1.415   6.142  0.2348 -2.4599  0.5681
 8746TIP3   OH226190   4.140   3.077   4.800  0.2948 -0.6175  0.2501
 8746TIP3    H126191   4.203   3.030   4.746  0.9979  0.6100 -0.0217
 8746TIP3    H226192   4.126   3.020   4.876  2.4337 -0.5243  0.7559
 8747TIP3   OH226193   0.849   7.241   0.712  0.0913  0.6606 -0.4121
 8747TIP3    H126194   0.797   7.166   0.683  0.8495  1.0370 -2.8442
 8747TIP3    H226195   0.830   7.248   0.805 -0.2321 -2.3897 -0.1723
 8748TIP3   OH226196   0.746   2.023   5.495  0.3285 -0.2396  0.3255
 8748TIP3    H126197   0.840   2.040   5.498  0.3566 -0.4540  0.8101
 8748TIP3    H226198   0.733   1.951   5.556 -0.1863 -0.0398  0.4589
 8749TIP3   OH226199   4.681   2.804   5.599  0.6213 -0.0452 -0.4256
 8749TIP3    H126200   4.635   2.738   5.546 -0.1837  0.5789 -0.5143
 8749TIP3    H226201   4.694   2.878   5.540  2.0345 -0.3311 -0.4914
 8750TIP3   OH226202   0.762   4.146   0.475  0.4849 -0.2145  0.2764
 8750TIP3    H126203   0.830   4.197   0.519 -0.1362 -1.8268  3.2593
 8750TIP3    H226204   0.805   4.063   0.454 -0.3757 -1.0193  1.6560
 8751TIP3   OH226205   0.595   3.772   0.564  0.1568 -0.9555 -0.1362
 8751TIP3    H126206   0.616   3.838   0.630  0.7713 -0.9016 -0.3915
 8751TIP3    H226207   0.513   3.803   0.525 -0.0961 -0.8735  0.4442
 8752TIP3   OH226208   4.061   2.599   4.913  0.4703 -0.3005 -0.5245
 8752TIP3    H126209   4.136   2.569   4.862 -0.4212 -1.1252 -1.3372
 8752TIP3    H226210   3.985   2.556   4.875 -0.4806  0.7674  0.0988
 8753TIP3   OH226211   0.022   5.972   0.799 -0.1289 -0.2566  0.0897
 8753TIP3    H126212   0.085   6.036   0.765 -2.2777  1.1952 -1.3204
 8753TIP3    H226213   0.031   5.896   0.741  1.5936 -0.8100  1.0407
 8754TIP3   OH226214   5.727   2.159   4.854 -0.0698  0.0527 -0.1245
 8754TIP3    H126215   5.774   2.162   4.937  0.3065 -2.4304 -0.2190
 8754TIP3    H226216   5.734   2.068   4.825 -1.1359  0.6299 -2.3382
 8755TIP3   OH226217   0.119   2.404   4.700 -0.1157 -0.2382 -0.3304
 8755TIP3    H126218   0.057   2.429   4.631 -1.0669  0.9957  0.9504
 8755TIP3    H226219   0.135   2.485   4.748  0.3784 -1.1323  1.0274
 8756TIP3   OH226220   5.436   2.245   4.943 -0.2766  0.1990  0.0062
 8756TIP3    H126221   5.471   2.219   4.858 -1.1113 -0.2763 -0.1937
 8756TIP3    H226222   5.386   2.169   4.972  0.0282  0.3489  0.9351
 8757TIP3   OH226223   4.708   0.441   5.086  0.5897 -0.6847  1.0141
 8757TIP3    H126224   4.647   0.461   5.015  0.5209 -1.0802  0.9646
 8757TIP3    H226225   4.745   0.526   5.110  2.3067 -0.8303 -1.0343
 8758TIP3   OH226226   1.504   5.589   0.021 -0.0044  0.0683  0.0402
 8758TIP3    H126227   1.431   5.573  -0.039  0.0672 -1.1205  0.2643
 8758TIP3    H226228   1.502   5.515   0.082 -0.1247  1.2940  1.5566
 8759TIP3   OH226229   1.170   2.591   5.944  0.3759 -0.0597 -0.4431
 8759TIP3    H126230   1.243   2.551   5.898  0.8244 -0.0267  0.2317
 8759TIP3    H226231   1.168   2.681   5.913  1.2493  0.2164  0.2783
 8760TIP3   OH226232   5.064   2.987   6.397  0.2357 -0.1568 -0.6226
 8760TIP3    H126233   5.066   2.980   6.492 -2.5384  1.0689 -0.4099
 8760TIP3    H226234   5.034   2.901   6.367  0.1779 -0.2399 -0.3197
 8761TIP3   OH226235   5.367   2.152   5.204 -0.1131 -0.1176  0.1011
 8761TIP3    H126236   5.314   2.090   5.254 -0.8306 -0.1473 -0.6839
 8761TIP3    H226237   5.308   2.226   5.187  0.8295  0.9204  1.2974
 8762TIP3   OH226238   7.597   3.072   4.011 -0.1398 -0.4914 -0.3733
 8762TIP3    H126239   7.631   3.148   3.965 -0.6585 -0.2385 -0.3446
 8762TIP3    H226240   7.675   3.028   4.045  0.1760 -0.0748 -0.5473
 8763TIP3   OH226241   0.232   0.835   4.799 -0.6670  0.4900 -0.2429
 8763TIP3    H126242   0.299   0.796   4.743  0.9019  0.8730  1.3297
 8763TIP3    H226243   0.185   0.760   4.835 -0.0593  0.1522 -0.1345
 8764TIP3   OH226244   7.113   2.369   4.972 -0.6930  0.3019 -0.4859
 8764TIP3    H126245   7.166   2.448   4.983 -0.5980  0.1464  0.1852
 8764TIP3    H226246   7.028   2.391   5.011 -0.1728 -0.4419  1.1290
 8765TIP3   OH226247   6.422   0.429   4.377 -0.4951 -0.0656  0.0937
 8765TIP3    H126248   6.374   0.476   4.445 -0.4287 -1.6908  1.2873
 8765TIP3    H226249   6.459   0.498   4.322 -3.4700  1.2501 -0.3684
 8766TIP3   OH226250   6.922   3.252   3.444 -0.1020 -0.2852  0.4051
 8766TIP3    H126251   6.948   3.184   3.381  1.4566 -0.4549  1.1858
 8766TIP3    H226252   6.998   3.310   3.449 -0.8353  0.6486  0.9009
 8767TIP3   OH226253   0.416   0.677   4.008 -0.1170 -0.4154  0.3385
 8767TIP3    H126254   0.424   0.719   3.922 -0.4308  0.2155  0.6184
 8767TIP3    H226255   0.363   0.599   3.990  1.0299 -1.0730 -0.2985
 8768TIP3   OH226256   6.839   1.219   5.946 -0.1139 -0.5422 -0.2418
 8768TIP3    H126257   6.797   1.269   5.876 -1.0966 -1.9983 -0.7052
 8768TIP3    H226258   6.768   1.167   5.983  0.5765 -0.4157  1.2894
 8769TIP3   OH226259   0.136   1.707   5.615  0.2077  0.1497 -0.1429
 8769TIP3    H126260   0.182   1.741   5.539  0.2090  1.4361  0.4053
 8769TIP3    H226261   0.194   1.726   5.689 -0.5684  0.5167  0.3824
 8770TIP3   OH226262   6.230   0.707   5.552  0.3413  0.0754 -0.6087
 8770TIP3    H126263   6.223   0.778   5.616  0.0706 -0.0671 -0.4781
 8770TIP3    H226264   6.312   0.663   5.573  0.0974 -0.1649 -0.1605
 8771TIP3   OH226265   0.634   5.751   0.218 -0.0938 -0.3371 -0.1259
 8771TIP3    H126266   0.661   5.834   0.258  0.3824 -0.9804  0.9152
 8771TIP3    H226267   0.539   5.748   0.228 -0.0989  0.0266 -0.0731
 8772TIP3   OH226268   4.399   4.366   0.145 -0.5265  0.2059 -0.5341
 8772TIP3    H126269   4.492   4.390   0.143 -1.1290  3.1779  2.1046
 8772TIP3    H226270   4.361   4.412   0.071 -0.1784  0.3630 -0.6179
 8773TIP3   OH226271   1.921   4.730   1.782  0.4114  0.0865 -0.4624
 8773TIP3    H126272   1.843   4.759   1.735  0.2240 -0.8280 -0.7172
 8773TIP3    H226273   1.888   4.697   1.866  0.8780  3.1694  1.0391
 8774TIP3   OH226274   0.547   0.395   6.055  0.0516  0.5579 -0.3188
 8774TIP3    H126275   0.536   0.490   6.051  0.9973  0.6333 -1.3205
 8774TIP3    H226276   0.617   0.376   5.992 -0.0800 -0.7924 -0.0741
 8775TIP3   OH226277   2.148   6.738   1.583  0.0888  0.2276  0.6242
 8775TIP3    H126278   2.161   6.805   1.650  0.9251  0.0849  0.6091
 8775TIP3    H226279   2.053   6.737   1.568 -0.0469  0.5964  1.4487
 8776TIP3   OH226280   0.615   1.096   6.046 -0.0071 -0.2871 -0.3451
 8776TIP3    H126281   0.612   1.072   5.953 -0.4662 -2.9353  0.3153
 8776TIP3    H226282   0.571   1.024   6.091  0.1691  0.9832  1.9424
 8777TIP3   OH226283   0.584   5.186   0.708 -0.2978  0.3798 -0.2471
 8777TIP3    H126284   0.598   5.183   0.803  0.1245 -2.9009 -0.3439
 8777TIP3    H226285   0.672   5.187   0.670 -0.4119 -1.1516 -0.6037
 8778TIP3   OH226286   1.077   6.325   0.215  0.3104  0.2251  0.7516
 8778TIP3    H126287   1.152   6.273   0.245 -0.0233 -0.8107 -0.1572
 8778TIP3    H226288   1.115   6.385   0.150  0.2134 -0.9693 -0.4368
 8779TIP3   OH226289   7.732   1.145   5.941  0.3071 -0.5181  0.0646
 8779TIP3    H126290   7.804   1.082   5.930  1.6084  0.6451  1.5861
 8779TIP3    H226291   7.741   1.204   5.866 -0.9437 -2.1118 -1.3914
 8780TIP3   OH226292   2.314   6.738   0.369  0.1354  0.7794  0.2046
 8780TIP3    H126293   2.242   6.730   0.307 -0.3103  0.5669  0.7423
 8780TIP3    H226294   2.294   6.674   0.437  1.0071  0.4883  0.1850
 8781TIP3   OH226295   6.244   2.718   6.213  0.3131 -0.2431 -0.4747
 8781TIP3    H126296   6.190   2.723   6.292  0.6626 -0.0185 -0.2482
 8781TIP3    H226297   6.217   2.637   6.169  0.3247 -0.5185  0.0266
 8782TIP3   OH226298   3.158   5.420   1.414 -0.3918  0.2853 -0.0148
 8782TIP3    H126299   3.225   5.486   1.432 -0.1782  0.4628 -1.4081
 8782TIP3    H226300   3.095   5.465   1.357 -1.8190  0.1914  1.4639
 8783TIP3   OH226301   6.705   3.093   5.524 -0.2999 -0.0800 -0.1995
 8783TIP3    H126302   6.688   3.169   5.579  0.8186 -0.1468  0.2588
 8783TIP3    H226303   6.676   3.118   5.437  0.2835  0.9617 -0.1015
 8784TIP3   OH226304   3.879   5.182   2.368  0.0527  0.2188  0.8892
 8784TIP3    H126305   3.966   5.201   2.334  0.4838 -1.5410  0.9432
 8784TIP3    H226306   3.825   5.166   2.291  0.0875  0.0256  0.9060
 8785TIP3   OH226307   1.083   6.992   1.661  0.0436 -0.6144  0.5029
 8785TIP3    H126308   1.152   7.033   1.714  0.5004 -0.9864  0.1964
 8785TIP3    H226309   1.002   7.013   1.707  0.5058 -1.6481  1.8096
 8786TIP3   OH226310   7.546   2.488   4.845  0.1521  0.3079 -0.5714
 8786TIP3    H126311   7.608   2.558   4.824  0.2738  0.0600 -1.0399
 8786TIP3    H226312   7.600   2.410   4.857  0.1458  0.5725  1.2996
 8787TIP3   OH226313   7.474   2.186   5.779 -0.4451 -0.3311 -0.9469
 8787TIP3    H126314   7.411   2.116   5.796 -2.0399  1.2770 -0.0305
 8787TIP3    H226315   7.552   2.160   5.827 -1.9045 -0.2485  1.5665
 8788TIP3   OH226316   1.645   2.059   4.871  0.0731 -0.2635  0.3097
 8788TIP3    H126317   1.584   2.052   4.944  0.6251 -2.1512  0.6225
 8788TIP3    H226318   1.603   2.012   4.799  1.2471 -1.8542  0.6213
 8789TIP3   OH226319   0.304   3.779   5.680  0.4469 -0.3694 -0.6051
 8789TIP3    H126320   0.253   3.853   5.646  0.3085  0.2827  0.9393
 8789TIP3    H226321   0.243   3.732   5.737  0.6890 -1.3786 -1.1753
 8790TIP3   OH226322   5.161   2.604   5.488  0.1667  0.1314 -0.0116
 8790TIP3    H126323   5.133   2.625   5.578  1.4525 -1.9117  0.8830
 8790TIP3    H226324   5.255   2.591   5.495  0.0251 -1.6330 -1.3601
 8791TIP3   OH226325   5.327   1.610   6.388  0.0036 -0.1806 -0.3638
 8791TIP3    H126326   5.379   1.555   6.329  0.2754  1.4986 -1.7287
 8791TIP3    H226327   5.313   1.691   6.339 -2.6052 -0.0091  0.5795
 8792TIP3   OH226328   3.591   0.129   0.940 -0.4094 -0.0377 -0.4991
 8792TIP3    H126329   3.660   0.064   0.926  0.6614  1.0110 -0.2193
 8792TIP3    H226330   3.628   0.190   1.005 -1.5970  0.5378 -0.3443
 8793TIP3   OH226331   7.221   2.250   5.949 -0.1648  0.1155 -0.0208
 8793TIP3    H126332   7.183   2.228   6.034 -0.3145  1.9299  0.4063
 8793TIP3    H226333   7.160   2.214   5.886 -1.0702  0.4434  0.6541
 8794TIP3   OH226334   2.015   3.757   0.667  0.0576 -0.2553 -0.0678
 8794TIP3    H126335   2.045   3.758   0.576  0.1045 -0.7639 -0.0586
 8794TIP3    H226336   2.083   3.805   0.714  0.0445 -0.0093 -0.2914
 8795TIP3   OH226337   0.908   7.008   0.433  0.1827  0.1429 -0.3006
 8795TIP3    H126338   0.995   6.969   0.438 -0.8811 -2.1981  0.7012
 8795TIP3    H226339   0.873   6.976   0.350 -0.0231  0.4668 -0.3397
 8796TIP3   OH226340   3.149   4.871   0.523 -0.6053  0.1026  0.2646
 8796TIP3    H126341   3.084   4.808   0.555 -0.3409  0.3572  1.3168
 8796TIP3    H226342   3.233   4.831   0.544 -0.4197 -0.2283 -1.1098
 8797TIP3   OH226343   1.448   7.129   0.032  0.3951 -0.3510  0.3973
 8797TIP3    H126344   1.435   7.045  -0.012 -0.4650  0.1767 -0.3882
 8797TIP3    H226345   1.457   7.107   0.125 -1.4358 -1.1956  0.4072
 8798TIP3   OH226346   6.885   4.083   5.055  0.5397 -0.3089 -0.4507
 8798TIP3    H126347   6.898   4.177   5.040 -1.1811  0.0087 -0.0687
 8798TIP3    H226348   6.850   4.051   4.972 -1.9702  0.0472  0.4000
 8799TIP3   OH226349   2.802   0.149   0.129 -0.1878  0.1657  0.2790
 8799TIP3    H126350   2.868   0.117   0.068 -2.0466 -0.4320 -1.4872
 8799TIP3    H226351   2.815   0.098   0.209  1.1045 -0.3261 -0.2428
 8800TIP3   OH226352   2.038   2.143   5.643  0.4361 -0.2554 -0.3349
 8800TIP3    H126353   2.022   2.063   5.693 -0.2413  0.3769  0.4600
 8800TIP3    H226354   1.958   2.156   5.593 -0.3362  1.1757  1.2553
 8801TIP3   OH226355   4.770   3.316   4.460 -0.5073  0.3957 -0.0383
 8801TIP3    H126356   4.678   3.344   4.458  0.0560  2.2733 -0.8601
 8801TIP3    H226357   4.817   3.392   4.494  0.5032 -1.3050  2.4472
 8802TIP3   OH226358   2.553   4.297   0.681 -0.3787  0.0851 -0.3219
 8802TIP3    H126359   2.485   4.330   0.740  0.1505  0.8435 -0.1319
 8802TIP3    H226360   2.505   4.264   0.605 -0.9659  0.5042 -0.1337
 8803TIP3   OH226361   0.006   4.866   2.602  0.5594  0.0236  0.8310
 8803TIP3    H126362  -0.070   4.832   2.649  0.0932  2.0165  1.5681
 8803TIP3    H226363   0.079   4.854   2.662  0.1585  1.5406  1.6441
 8804TIP3   OH226364   7.082   4.542   5.501  0.5415 -0.1545 -0.5192
 8804TIP3    H126365   7.117   4.463   5.461 -1.4286 -0.3297 -1.9548
 8804TIP3    H226366   7.026   4.511   5.572  2.3065  0.0899  1.0250
 8805TIP3   OH226367   0.971   2.446   3.510 -0.2447  0.4010  0.3404
 8805TIP3    H126368   1.059   2.439   3.473 -0.2149 -1.1013  0.6721
 8805TIP3    H226369   0.980   2.418   3.601 -0.8163  1.5520  0.7622
 8806TIP3   OH226370   6.704   4.184   5.648 -0.2556 -0.2229 -0.1254
 8806TIP3    H126371   6.614   4.149   5.650 -0.9146  1.4392  1.1683
 8806TIP3    H226372   6.693   4.275   5.621  1.0375  0.0231  0.1733
 8807TIP3   OH226373   2.091   0.167   3.890  0.2074 -0.1973 -0.0741
 8807TIP3    H126374   2.150   0.240   3.874 -0.5532  0.5020  0.2747
 8807TIP3    H226375   2.117   0.133   3.975  0.7285 -0.4934 -0.3516
 8808TIP3   OH226376   2.456   6.913   1.123  0.1484  0.1710  0.7413
 8808TIP3    H126377   2.506   6.993   1.141 -1.1895  1.2416 -0.2051
 8808TIP3    H226378   2.506   6.869   1.055  0.6298  0.4513  0.9069
 8809TIP3   OH226379   5.532   1.797   4.722  0.1577  0.0763 -0.2559
 8809TIP3    H126380   5.559   1.818   4.632  2.3898  2.4895  0.9277
 8809TIP3    H226381   5.610   1.759   4.762 -0.6553 -0.4349  0.8576
 8810TIP3   OH226382   6.056   1.099   5.914  1.0178 -0.1523 -0.1213
 8810TIP3    H126383   6.011   1.034   5.861  0.9802  1.1108 -1.6958
 8810TIP3    H226384   5.987   1.136   5.969  0.5355  0.2536 -0.9728
 8811TIP3   OH226385   0.861   3.687   5.465  0.7308  0.3121  0.1101
 8811TIP3    H126386   0.786   3.647   5.509  2.5135 -2.4937  0.7578
 8811TIP3    H226387   0.861   3.649   5.377  2.0088 -0.5747  0.4759
 8812TIP3   OH226388   2.139   5.268   0.657  0.2991 -0.2170 -0.2774
 8812TIP3    H126389   2.076   5.214   0.703  0.6879 -1.7272 -1.4478
 8812TIP3    H226390   2.192   5.309   0.726 -1.0887  0.0348  0.6601
 8813TIP3   OH226391   7.077   0.085   5.380 -0.1259 -0.5621  0.1818
 8813TIP3    H126392   7.098   0.177   5.398 -0.5124 -0.3325 -0.5444
 8813TIP3    H226393   7.150   0.037   5.419 -0.3649 -0.0058  1.3515
 8814TIP3   OH226394   6.286   2.419   3.864 -0.7463 -0.4529 -0.6647
 8814TIP3    H126395   6.275   2.324   3.875  0.0373 -0.5143 -0.3597
 8814TIP3    H226396   6.380   2.430   3.845 -1.0329  0.1573 -1.8110
 8815TIP3   OH226397   1.926   2.826   6.151  0.4152  0.0770  0.6922
 8815TIP3    H126398   1.902   2.891   6.217 -0.4016 -0.8620  1.3242
 8815TIP3    H226399   2.009   2.858   6.115  1.4063  0.0664  2.8938
 8816TIP3   OH226400   2.449   3.279   0.306  0.2911 -0.1570 -0.2820
 8816TIP3    H126401   2.466   3.369   0.333 -0.7504 -0.5513  1.7943
 8816TIP3    H226402   2.505   3.226   0.362  0.0909 -0.8658 -0.7392
 8817TIP3   OH226403   2.028   1.778   6.178 -1.0021 -0.3082  0.8418
 8817TIP3    H126404   1.946   1.818   6.205 -2.1708  0.0819 -2.9174
 8817TIP3    H226405   2.065   1.839   6.114  1.4693 -1.2167  1.3285
 8818TIP3   OH226406   0.352   6.228   0.700  0.0882  0.4306  0.0721
 8818TIP3    H126407   0.351   6.294   0.769 -0.6936  0.0694  0.4074
 8818TIP3    H226408   0.430   6.175   0.718 -0.3224  0.1047  0.8901
 8819TIP3   OH226409  -0.014   6.104   2.682  0.1157 -0.1071 -0.2878
 8819TIP3    H126410   0.064   6.149   2.716 -0.3989 -0.6942  1.7628
 8819TIP3    H226411   0.021   6.044   2.617  1.7800 -2.2147  2.3962
 8820TIP3   OH226412   6.709   1.719   5.046  0.1222  0.1148 -0.3421
 8820TIP3    H126413   6.803   1.710   5.058  0.1741  0.6307 -0.3362
 8820TIP3    H226414   6.673   1.635   5.076  0.6627 -0.5064 -1.4110
 8821TIP3   OH226415   0.689   6.444   1.065  0.5808 -0.0108  0.1147
 8821TIP3    H126416   0.779   6.461   1.038  0.6577  0.2544  0.5277
 8821TIP3    H226417   0.694   6.363   1.116  0.4803 -0.3560 -0.4173
 8822TIP3   OH226418   6.857   1.260   6.412  0.4659 -0.0721  0.3538
 8822TIP3    H126419   6.817   1.175   6.395 -0.1267 -0.1355  1.9808
 8822TIP3    H226420   6.919   1.244   6.483  2.1001  0.3856 -0.9573
 8823TIP3   OH226421   7.849   3.096   4.969  0.0043  0.3829  0.4537
 8823TIP3    H126422   7.807   3.010   4.970  0.7044  0.0162  3.9827
 8823TIP3    H226423   7.782   3.154   4.932 -0.3939 -1.6371 -2.2100
 8824TIP3   OH226424   5.529   0.779   5.307 -0.0239 -0.2148 -0.5631
 8824TIP3    H126425   5.545   0.709   5.370 -0.5570 -0.1428 -0.3498
 8824TIP3    H226426   5.567   0.747   5.225  2.8460  0.6902  0.3496
 8825TIP3   OH226427   7.072   1.781   5.773 -0.3408 -0.3735  0.0160
 8825TIP3    H126428   6.990   1.741   5.744  0.5231 -0.4874 -2.3395
 8825TIP3    H226429   7.118   1.710   5.819 -1.3378 -0.4310  0.9434
 8826TIP3   OH226430   1.514   5.332   0.190  0.2684  0.6469 -0.1010
 8826TIP3    H126431   1.466   5.269   0.136  1.9081  0.0525 -0.9009
 8826TIP3    H226432   1.554   5.279   0.259 -1.3335  1.3242  1.3971
 8827TIP3   OH226433   0.215   6.085   0.512  0.4392  0.7822  0.1471
 8827TIP3    H126434   0.262   6.140   0.574 -1.1619  2.0463  0.2577
 8827TIP3    H226435   0.249   6.111   0.426  0.4635  1.1750  0.2778
 8828TIP3   OH226436   2.861   4.938   0.380  0.7131 -0.2938 -0.1446
 8828TIP3    H126437   2.934   4.931   0.319  1.0211 -0.7720  0.2677
 8828TIP3    H226438   2.872   5.023   0.422  0.3816  0.1226 -0.9010
 8829TIP3   OH226439   6.001   3.661   5.178 -0.1218 -0.0965 -0.1103
 8829TIP3    H126440   5.992   3.747   5.219  0.1565  0.1575 -0.5838
 8829TIP3    H226441   6.056   3.611   5.238 -2.2012 -0.7000  1.3379
 8830TIP3   OH226442   7.228   2.606   6.166  0.3036 -0.8073  0.9035
 8830TIP3    H126443   7.314   2.630   6.201  0.7803  0.0628 -0.8205
 8830TIP3    H226444   7.246   2.556   6.087 -0.7586  0.2145 -0.0158
 8831TIP3   OH226445   5.899   0.591   6.231  0.7121 -0.4817  0.1561
 8831TIP3    H126446   5.986   0.586   6.193  0.0719 -0.3358 -1.3616
 8831TIP3    H226447   5.863   0.673   6.197 -0.1564 -0.7159  0.4970
 8832TIP3   OH226448   0.296   2.714   4.518  0.2684 -0.3611 -0.3595
 8832TIP3    H126449   0.250   2.642   4.476  0.2343 -0.7943  0.4079
 8832TIP3    H226450   0.362   2.671   4.573 -1.9723  0.0545  2.7568
 8833TIP3   OH226451   1.931   7.245   1.173 -0.1836 -0.1731  0.1529
 8833TIP3    H126452   2.023   7.236   1.196 -0.0064  0.6517 -0.2113
 8833TIP3    H226453   1.929   7.231   1.078 -0.3120  0.6681  0.0300
 8834TIP3   OH226454   4.954   2.649   5.115 -0.2907 -0.1156 -0.2455
 8834TIP3    H126455   4.920   2.641   5.204 -0.2641  0.0959 -0.2181
 8834TIP3    H226456   4.988   2.738   5.109 -1.0653  0.1600 -0.7287
 8835TIP3   OH226457   2.579   6.851   0.375  0.1356  1.0175  0.0508
 8835TIP3    H126458   2.505   6.792   0.364  2.1825 -1.5541 -0.1836
 8835TIP3    H226459   2.568   6.917   0.307 -1.1145 -0.2113 -0.9486
 8836TIP3   OH226460   3.128   6.521   1.390  0.4785 -0.1819  1.1518
 8836TIP3    H126461   3.209   6.516   1.340  0.1413 -1.7997  0.7305
 8836TIP3    H226462   3.112   6.614   1.403  0.9100  0.2239 -1.1887
 8837TIP3   OH226463   2.099   7.212   2.193 -0.2560 -0.1011  0.0351
 8837TIP3    H126464   2.089   7.121   2.164  1.3138 -0.7624  1.5282
 8837TIP3    H226465   2.182   7.241   2.156 -1.6548  1.4158 -2.0853
 8838TIP3   OH226466   7.721   3.589   4.358  0.4409 -0.1113  0.4121
 8838TIP3    H126467   7.752   3.676   4.332 -0.6833 -0.0227 -0.6803
 8838TIP3    H226468   7.768   3.570   4.439  0.4843  1.6444  0.8264
 8839TIP3   OH226469   7.194   1.932   4.927  0.3864  0.0419  0.2899
 8839TIP3    H126470   7.271   1.879   4.907 -0.7447 -1.5644  0.0341
 8839TIP3    H226471   7.196   1.942   5.023  1.7397  1.3497  0.1377
 8840TIP3   OH226472   1.948   6.551   0.799 -0.0994  0.3356 -0.2827
 8840TIP3    H126473   1.895   6.620   0.839  1.1405 -0.1511  2.2671
 8840TIP3    H226474   1.926   6.472   0.848  0.5923 -0.5384 -1.3506
 8841TIP3   OH226475   6.101   1.228   3.944 -0.3031  0.1382  0.0765
 8841TIP3    H126476   6.020   1.216   3.895  0.5687 -1.4424 -1.0272
 8841TIP3    H226477   6.128   1.318   3.924 -0.9678  0.1501 -0.8086
 8842TIP3   OH226478   7.439   2.414   5.655 -0.7172  0.3504 -0.1190
 8842TIP3    H126479   7.361   2.456   5.692 -1.1718 -0.5854 -0.0059
 8842TIP3    H226480   7.442   2.328   5.696  0.7059  0.5871  0.3041
 8843TIP3   OH226481   2.085   7.237   1.674 -0.2300  0.5291 -0.2962
 8843TIP3    H126482   2.127   7.180   1.739  2.2713  1.5972 -0.9147
 8843TIP3    H226483   2.091   7.188   1.592  0.1222  0.8230 -0.4485
 8844TIP3   OH226484   6.850   3.335   3.716  0.3727 -0.2865 -0.0366
 8844TIP3    H126485   6.836   3.286   3.635 -0.0268  1.2139 -0.8704
 8844TIP3    H226486   6.944   3.329   3.731  0.4805 -0.3809 -0.7249
 8845TIP3   OH226487   0.946   3.610   5.207 -0.5003  0.1811 -0.0196
 8845TIP3    H126488   0.938   3.609   5.112 -1.5234  0.0072  0.0548
 8845TIP3    H226489   1.036   3.638   5.224  0.3202 -1.7394 -1.0641
 8846TIP3   OH226490   7.578   3.755   5.446 -0.7607 -0.0314  0.3212
 8846TIP3    H126491   7.494   3.801   5.452 -1.1552 -0.6439 -0.5526
 8846TIP3    H226492   7.590   3.718   5.533 -1.3361  0.1566  0.4859
 8847TIP3   OH226493   0.616   3.671   4.865 -0.1308 -0.8336 -0.2301
 8847TIP3    H126494   0.537   3.698   4.912 -0.4828 -2.7221  0.2993
 8847TIP3    H226495   0.687   3.716   4.911 -0.9192  1.3445 -1.0680
 8848TIP3   OH226496   5.317   4.314   0.502 -0.4519  0.2634 -0.3871
 8848TIP3    H126497   5.264   4.335   0.424 -0.6993  2.2480  0.3027
 8848TIP3    H226498   5.353   4.398   0.530  0.1113 -0.5357  1.3212
 8849TIP3   OH226499   1.758   3.549   5.724  0.0356 -0.0914 -0.4541
 8849TIP3    H126500   1.796   3.562   5.637  4.9603  0.1754  1.5813
 8849TIP3    H226501   1.719   3.634   5.746 -1.7641 -0.3326 -2.5669
 8850TIP3   OH226502   4.468   6.516   2.593  0.1862 -1.0492  0.3063
 8850TIP3    H126503   4.482   6.423   2.606 -0.0005 -1.3874 -1.7324
 8850TIP3    H226504   4.452   6.525   2.499  0.7248  1.0923  0.3856
 8851TIP3   OH226505   4.740   6.765   0.465 -0.1338 -0.4146 -0.1192
 8851TIP3    H126506   4.721   6.778   0.372 -2.2446  0.4294  0.3851
 8851TIP3    H226507   4.654   6.772   0.508  0.8497 -0.4715  1.9308
 8852TIP3   OH226508   4.458   4.504   0.666  0.0721  0.3104 -0.1344
 8852TIP3    H126509   4.538   4.518   0.718 -0.2546  1.6353  0.0440
 8852TIP3    H226510   4.488   4.507   0.575  0.0668  2.0294 -0.0988
 8853TIP3   OH226511   1.376   3.518   3.896  0.1107 -0.5144 -0.2215
 8853TIP3    H126512   1.301   3.577   3.904 -0.0110 -0.4239 -1.8688
 8853TIP3    H226513   1.436   3.547   3.964 -0.2502  1.0792 -0.5496
 8854TIP3   OH226514   2.300   2.240   3.903 -0.2057  0.6207  0.1427
 8854TIP3    H126515   2.236   2.277   3.843  0.0226  0.8439  0.0346
 8854TIP3    H226516   2.250   2.179   3.957 -0.2075 -0.4263 -1.0119
 8855TIP3   OH226517   1.522   1.214   6.116 -0.1068  0.1548 -0.3081
 8855TIP3    H126518   1.507   1.305   6.091 -2.6715  0.1087  0.8964
 8855TIP3    H226519   1.476   1.163   6.049  1.5313 -0.3088 -1.1248
 8856TIP3   OH226520   4.468   6.636   0.579  0.1568 -0.5759 -0.4144
 8856TIP3    H126521   4.492   6.551   0.543  1.3148 -1.9126  3.2466
 8856TIP3    H226522   4.388   6.661   0.532  1.2475 -2.4030 -3.3808
 8857TIP3   OH226523   1.054   2.752   4.997  0.0813  0.2965 -0.0254
 8857TIP3    H126524   1.088   2.705   4.921 -0.2066 -0.0996  0.0876
 8857TIP3    H226525   0.984   2.696   5.030 -0.4655  0.9443 -0.0629
 8858TIP3   OH226526   2.450   4.579   4.803  0.7051 -0.2018  0.0238
 8858TIP3    H126527   2.531   4.607   4.763  0.1102  1.2841 -0.1496
 8858TIP3    H226528   2.382   4.628   4.758 -0.1726 -0.3546  1.1543
 8859TIP3   OH226529   1.754   2.822   5.907  0.5544  0.5084 -0.4106
 8859TIP3    H126530   1.840   2.795   5.939  0.0735 -0.0255  0.4646
 8859TIP3    H226531   1.704   2.840   5.987 -0.5676 -0.5108 -0.8779
 8860TIP3   OH226532   4.229   6.924   0.305  0.4621  0.1869 -0.4707
 8860TIP3    H126533   4.218   7.018   0.317  2.4955  0.4086 -0.0821
 8860TIP3    H226534   4.151   6.885   0.344 -0.7182  1.7312 -1.2269
 8861TIP3   OH226535   3.068   3.474   5.006  0.2536 -0.7940 -0.4330
 8861TIP3    H126536   3.127   3.547   5.023 -1.1165  0.7179 -2.0433
 8861TIP3    H226537   3.110   3.426   4.934  0.5674 -0.9436 -0.1537
 8862TIP3   OH226538   7.732   0.642   5.226 -0.5132 -0.0521 -0.0746
 8862TIP3    H126539   7.763   0.714   5.171  1.3126  1.1195  2.3880
 8862TIP3    H226540   7.796   0.572   5.213 -0.3565  0.0439  0.1767
 8863TIP3   OH226541   2.968   1.547   5.801 -0.3269  0.1002  0.2703
 8863TIP3    H126542   3.055   1.559   5.838 -0.1795 -1.0959  0.3295
 8863TIP3    H226543   2.936   1.635   5.785  1.0015  0.5355  0.0040
 8864TIP3   OH226544   3.624   4.653   0.084 -0.1146  0.3831 -0.0385
 8864TIP3    H126545   3.634   4.720   0.016 -3.3985 -2.2899 -3.3706
 8864TIP3    H226546   3.699   4.595   0.071 -1.0372 -0.4355 -1.8013
 8865TIP3   OH226547   1.988   5.879   0.843  0.5371 -0.7031  0.2903
 8865TIP3    H126548   1.987   5.822   0.766 -1.5587 -1.1794  0.6504
 8865TIP3    H226549   2.042   5.832   0.907  1.8274 -0.5634 -0.6612
 8866TIP3   OH226550   2.162   2.572   4.565 -0.1293  0.0463  0.2159
 8866TIP3    H126551   2.223   2.529   4.505 -0.6939 -0.3806 -0.0560
 8866TIP3    H226552   2.218   2.624   4.623  0.4537  0.0442 -0.3439
 8867TIP3   OH226553   3.241   7.175   1.242  0.6121 -0.1021 -0.1357
 8867TIP3    H126554   3.270   7.260   1.209  0.3386  0.0682  0.0593
 8867TIP3    H226555   3.315   7.141   1.292  0.3099  0.5423  0.7517
 8868TIP3   OH226556   3.228   1.546   5.924 -0.3211 -0.4538  0.6503
 8868TIP3    H126557   3.234   1.581   6.013 -0.1407 -0.5069  0.6586
 8868TIP3    H226558   3.290   1.473   5.923  0.4144  0.1886  0.1703
 8869TIP3   OH226559   0.408   7.307   4.861  0.2075 -0.8818  0.2561
 8869TIP3    H126560   0.486   7.360   4.880  0.2004 -1.0933  0.9041
 8869TIP3    H226561   0.419   7.279   4.770  1.2732 -1.5319  0.5708
 8870TIP3   OH226562   1.816   2.920   4.688  0.1697 -0.2459  0.1960
 8870TIP3    H126563   1.874   2.886   4.620 -0.8827 -1.0551 -0.3054
 8870TIP3    H226564   1.842   2.874   4.767  0.4457 -0.3435  0.0486
 8871TIP3   OH226565   4.774   5.119   1.564  0.0248 -0.1136  0.8805
 8871TIP3    H126566   4.742   5.107   1.475  1.0415 -0.4000  0.5504
 8871TIP3    H226567   4.854   5.067   1.569  0.0478 -0.0011  1.9245
 8872TIP3   OH226568   0.618   6.260   2.522  0.3323 -0.1414 -0.5173
 8872TIP3    H126569   0.617   6.324   2.593 -0.4180  1.0619 -1.5953
 8872TIP3    H226570   0.706   6.266   2.485  0.9907 -1.3533  0.8110
 8873TIP3   OH226571   6.048   1.929   5.206  0.2988  0.9037  0.6775
 8873TIP3    H126572   5.996   1.852   5.227  1.0080  0.4405  0.7645
 8873TIP3    H226573   6.138   1.898   5.205  0.4798  1.4189 -0.7106
 8874TIP3   OH226574   4.499   6.565   1.566  0.5174 -0.4016  0.1857
 8874TIP3    H126575   4.557   6.517   1.625 -0.5822 -0.3717  1.2958
 8874TIP3    H226576   4.557   6.627   1.521  1.3737 -0.4351  1.2192
 8875TIP3   OH226577   1.539   2.629   0.674 -0.6906  0.0354 -0.3888
 8875TIP3    H126578   1.591   2.700   0.713 -0.9078 -1.6545  3.1441
 8875TIP3    H226579   1.451   2.643   0.708 -0.4356 -2.7437  1.5310
 8876TIP3   OH226580   2.059   3.616   3.488 -0.4200  0.0669 -0.4052
 8876TIP3    H126581   2.131   3.678   3.490 -0.8453  0.5702 -0.7183
 8876TIP3    H226582   1.985   3.662   3.528 -0.7119 -0.2668 -0.5484
 8877TIP3   OH226583   2.271   2.782   5.500 -0.1723 -0.8215 -0.0261
 8877TIP3    H126584   2.242   2.758   5.588 -0.7398 -2.1013 -0.5591
 8877TIP3    H226585   2.196   2.828   5.462  0.5337  0.9049  0.6079
 8878TIP3   OH226586   1.993   6.301   0.537  0.1450 -0.4827 -0.4615
 8878TIP3    H126587   1.921   6.276   0.594  0.1550 -1.9563 -1.0644
 8878TIP3    H226588   1.951   6.323   0.454  0.2673  0.0447 -0.3834
 8879TIP3   OH226589   4.082   5.622   0.339  0.4396 -0.4326 -0.0726
 8879TIP3    H126590   4.032   5.548   0.374 -0.7168  0.8841  1.1047
 8879TIP3    H226591   4.035   5.647   0.259 -0.8206  0.7819  1.0150
 8880TIP3   OH226592   7.615   1.397   4.960  0.4070  0.1358  0.0616
 8880TIP3    H126593   7.520   1.402   4.957  0.4966  1.5142 -0.5578
 8880TIP3    H226594   7.641   1.461   5.026  0.8278 -1.4962  1.5398
 8881TIP3   OH226595   0.362   1.590   5.232 -0.2176  0.7734  0.2349
 8881TIP3    H126596   0.296   1.614   5.167 -1.7042 -1.9186  0.7018
 8881TIP3    H226597   0.432   1.549   5.182 -0.4365  0.5595  0.1039
 8882TIP3   OH226598   6.818   2.759   3.258 -0.4892 -0.0279 -0.0125
 8882TIP3    H126599   6.781   2.807   3.184  1.4295  2.2187  0.4450
 8882TIP3    H226600   6.856   2.680   3.218 -0.6797  0.4905 -1.2480
 8883TIP3   OH226601   3.973   6.075   2.128  0.1261 -0.6386 -0.0493
 8883TIP3    H126602   3.960   6.029   2.211  1.2981 -2.6112 -0.9239
 8883TIP3    H226603   3.940   6.163   2.144 -2.1173 -1.7471  1.6847
 8884TIP3   OH226604   0.223   2.493   6.047 -0.2396 -0.3667  0.7780
 8884TIP3    H126605   0.313   2.494   6.079  0.5561  1.3725 -1.3992
 8884TIP3    H226606   0.232   2.494   5.951 -2.5593  0.2219  0.5438
 8885TIP3   OH226607   2.207   2.854   4.311 -0.1673 -0.1368 -0.1157
 8885TIP3    H126608   2.127   2.834   4.360 -0.0976 -1.2938 -0.4644
 8885TIP3    H226609   2.273   2.796   4.348  0.4874  0.7260  0.0827
 8886TIP3   OH226610   3.009   1.475   5.102  1.0466 -0.2975  0.7257
 8886TIP3    H126611   3.051   1.401   5.145  0.9876 -0.4354  0.5428
 8886TIP3    H226612   2.946   1.507   5.166  0.8646 -0.5869  0.6896
 8887TIP3   OH226613   1.814   4.743   0.550  0.2982  0.3956 -0.8952
 8887TIP3    H126614   1.779   4.788   0.627 -0.7014 -0.1713 -1.0183
 8887TIP3    H226615   1.899   4.784   0.535  0.7918  0.0477  0.9063
 8888TIP3   OH226616   4.051   0.454   4.275  0.4647  0.7467 -0.1013
 8888TIP3    H126617   4.083   0.383   4.219 -1.4511 -0.4544  0.2991
 8888TIP3    H226618   3.974   0.487   4.230  0.4785  1.5786  0.4768
 8889TIP3   OH226619   1.085   3.186   5.580  0.0177  0.2336  0.2659
 8889TIP3    H126620   1.147   3.176   5.508  0.7972 -1.4307  1.1562
 8889TIP3    H226621   1.047   3.099   5.592 -1.7578  1.0087  0.3958
 8890TIP3   OH226622   4.605   4.903   2.552 -0.0794 -0.0663  0.2572
 8890TIP3    H126623   4.525   4.861   2.585 -1.2986  2.4208  0.6077
 8890TIP3    H226624   4.595   4.901   2.457 -1.0549  1.0967  0.3195
 8891TIP3   OH226625   2.705   4.635   0.576  0.4648 -0.4813 -0.0488
 8891TIP3    H126626   2.754   4.560   0.541  0.6368  0.0005 -0.8634
 8891TIP3    H226627   2.628   4.596   0.618  1.1340 -1.1895  0.5297
 8892TIP3   OH226628   1.350   5.126   5.883  0.0454  0.2433 -0.0887
 8892TIP3    H126629   1.415   5.060   5.907  1.3160  0.4733 -2.7996
 8892TIP3    H226630   1.393   5.210   5.902 -0.2924  0.3720  0.1324
 8893TIP3   OH226631   3.558   0.939   5.190  0.2942 -0.0636 -0.5996
 8893TIP3    H126632   3.504   0.860   5.200 -0.3190  0.3335 -0.7024
 8893TIP3    H226633   3.603   0.947   5.273  0.9849 -0.9757 -0.8763
 8894TIP3   OH226634   1.308   3.049   3.403 -0.3016 -0.3834  0.6511
 8894TIP3    H126635   1.290   2.962   3.439 -1.3824 -0.0050  1.0434
 8894TIP3    H226636   1.222   3.089   3.392  0.0863 -0.0472 -1.2880
 8895TIP3   OH226637   0.592   1.197   0.224  0.7302 -0.0647 -0.3331
 8895TIP3    H126638   0.655   1.126   0.215  1.7595  0.9329 -1.1064
 8895TIP3    H226639   0.645   1.277   0.224 -0.3581  0.6841  1.1571
 8896TIP3   OH226640   0.674   2.548   3.945 -0.2686  0.4228 -0.2661
 8896TIP3    H126641   0.703   2.594   3.866 -0.0267  1.1842  0.2631
 8896TIP3    H226642   0.582   2.527   3.929 -0.1091  0.2234 -0.9161
 8897TIP3   OH226643   3.501   2.544   6.093  0.6896 -0.4050 -0.4720
 8897TIP3    H126644   3.426   2.589   6.054  0.6594 -1.3013 -1.4725
 8897TIP3    H226645   3.463   2.481   6.153  0.7292  0.8159  0.8625
 8898TIP3   OH226646   1.588   2.669   3.825  0.5114  0.5271 -0.1386
 8898TIP3    H126647   1.611   2.622   3.905 -0.1294 -0.0677 -0.2952
 8898TIP3    H226648   1.565   2.600   3.762  1.0179  0.9870 -0.8376
 8899TIP3   OH226649   6.968   2.623   6.081 -0.0587  0.0174 -0.0072
 8899TIP3    H126650   6.983   2.668   5.998 -3.1995  1.7327  0.2923
 8899TIP3    H226651   7.040   2.652   6.138 -0.3201  2.2709 -0.7928
 8900TIP3   OH226652   7.697   1.589   6.201 -0.2854 -0.2994 -0.8026
 8900TIP3    H126653   7.778   1.540   6.213 -0.2679 -0.2844 -0.8572
 8900TIP3    H226654   7.648   1.539   6.136  0.0930  0.1904 -1.4735
 8901TIP3   OH226655   2.018   2.616   1.921  0.3450  0.0885 -0.7007
 8901TIP3    H126656   2.106   2.580   1.932  0.2181 -0.0769 -0.2094
 8901TIP3    H226657   1.998   2.658   2.004  0.4379  1.2033 -1.2242
 8902TIP3   OH226658   0.369   2.709   5.082 -0.4475  0.4223  0.1427
 8902TIP3    H126659   0.456   2.700   5.122 -0.0771  0.2198 -0.6915
 8902TIP3    H226660   0.365   2.801   5.055  0.4062 -0.0821 -1.8158
 8903TIP3   OH226661   1.728   4.908   0.769  0.1529  0.0571 -0.4456
 8903TIP3    H126662   1.695   4.866   0.848 -0.2992  0.1055 -0.6025
 8903TIP3    H226663   1.656   4.966   0.741  0.8800  1.1489 -0.0711
 8904TIP3   OH226664   4.548   5.652   0.805 -0.5613  0.4197 -0.0913
 8904TIP3    H126665   4.460   5.620   0.783 -0.9315 -0.2586  2.2369
 8904TIP3    H226666   4.586   5.583   0.859  1.0978  1.1046 -0.3443
 8905TIP3   OH226667   0.007   0.461   5.275  0.5195  0.5103 -0.5323
 8905TIP3    H126668  -0.016   0.370   5.258  1.0083  0.2341  0.2650
 8905TIP3    H226669   0.103   0.464   5.269  0.4611  1.1152 -1.2415
 8906TIP3   OH226670   1.179   0.284   5.074 -0.3610  0.4541  0.6368
 8906TIP3    H126671   1.155   0.352   5.011  2.1963  0.0748 -0.7791
 8906TIP3    H226672   1.161   0.201   5.028  0.7110  0.1727  0.7218
 8907TIP3   OH226673   0.090   2.107   5.464 -0.6945  0.2586  0.1106
 8907TIP3    H126674   0.030   2.079   5.395 -1.9359 -1.0839  1.7107
 8907TIP3    H226675   0.130   2.188   5.430 -0.3398 -1.0574 -2.6946
 8908TIP3   OH226676   2.863   2.199   6.182 -0.2610  0.5429 -0.5448
 8908TIP3    H126677   2.813   2.250   6.246 -0.0512 -1.5437  1.3570
 8908TIP3    H226678   2.803   2.131   6.152 -0.0378  0.8986 -1.8085
 8909TIP3   OH226679   7.381   7.059   6.275 -0.5493 -0.0765  0.3227
 8909TIP3    H126680   7.295   7.062   6.316 -1.3711  1.4309 -1.4699
 8909TIP3    H226681   7.439   7.105   6.336 -0.8369 -1.7476  1.8866
 8910TIP3   OH226682   3.307   3.633   5.079 -0.3171 -0.0435  0.3441
 8910TIP3    H126683   3.362   3.712   5.072  1.3072 -1.2399 -1.0230
 8910TIP3    H226684   3.299   3.617   5.173  0.2970  1.0929  0.6044
 8911TIP3   OH226685   4.222   7.357   1.620 -0.0825  0.3560 -0.4455
 8911TIP3    H126686   4.252   7.448   1.615 -1.1149  0.7740  0.4912
 8911TIP3    H226687   4.247   7.318   1.536 -0.1668  1.6834 -1.1026
 8912TIP3   OH226688   2.466   2.663   4.014  0.3313  0.5258  0.8619
 8912TIP3    H126689   2.440   2.646   3.923  0.1873  0.3234  0.9414
 8912TIP3    H226690   2.411   2.604   4.066 -0.5553  1.6073  1.1789
 8913TIP3   OH226691   0.880   2.101   5.143  0.3613 -0.2523 -0.2045
 8913TIP3    H126692   0.870   2.107   5.048  1.4065 -0.7764 -0.3530
 8913TIP3    H226693   0.793   2.077   5.174 -0.2719  1.0076 -0.9155
 8914TIP3   OH226694   0.234   1.853   5.843 -0.8486 -0.5534  0.2528
 8914TIP3    H126695   0.267   1.791   5.908 -0.6211 -0.3481  0.3326
 8914TIP3    H226696   0.302   1.920   5.837 -0.2755 -1.2194 -1.1118
 8915TIP3   OH226697   3.365   5.127   5.784  0.1703 -0.2577 -0.4489
 8915TIP3    H126698   3.293   5.180   5.751 -0.9891  0.3362  2.9148
 8915TIP3    H226699   3.328   5.040   5.796  0.0825 -0.0352  0.9694
 8916TIP3   OH226700   2.448   1.916   5.073  0.2187 -0.0898  0.2681
 8916TIP3    H126701   2.421   1.842   5.128 -1.1641  1.7828  2.2060
 8916TIP3    H226702   2.446   1.882   4.984 -1.2785 -2.1324  1.0379
 8917TIP3   OH226703   1.058   5.246   0.498  0.1077  0.1987 -0.2881
 8917TIP3    H126704   1.088   5.155   0.500  0.6182  0.3815  0.5550
 8917TIP3    H226705   1.099   5.287   0.574  1.1655  1.5439 -1.5417
 8918TIP3   OH226706   0.301   0.320   5.853 -0.9265 -0.0322 -0.1510
 8918TIP3    H126707   0.208   0.344   5.852 -0.8953  0.1452  0.9156
 8918TIP3    H226708   0.302   0.228   5.881 -0.7102  0.2797  0.8582
 8919TIP3   OH226709   0.735   2.904   5.623 -0.5893 -0.0387  0.1475
 8919TIP3    H126710   0.716   2.998   5.618  1.5357  0.5065  1.3308
 8919TIP3    H226711   0.769   2.892   5.712  0.5306 -1.6432 -0.4729
 8920TIP3   OH226712   6.972   4.233   6.082 -0.1464  0.2564 -0.2145
 8920TIP3    H126713   6.896   4.256   6.136 -2.2048 -2.3241 -1.9070
 8920TIP3    H226714   7.016   4.164   6.132  1.1669  1.7542  0.7676
 8921TIP3   OH226715   5.126   1.073   0.595  0.0154  0.2547 -0.0938
 8921TIP3    H126716   5.205   1.120   0.568  0.8014 -0.0966  1.5432
 8921TIP3    H226717   5.134   0.987   0.554 -0.6273  0.9842 -1.7660
 8922TIP3   OH226718   3.934   5.045   0.366 -0.1222  0.1906 -0.2255
 8922TIP3    H126719   3.991   5.118   0.345 -1.0479  0.9385 -0.1678
 8922TIP3    H226720   3.902   5.014   0.282  1.8602 -1.4871 -0.4243
 8923TIP3   OH226721   7.122   5.855   2.578 -0.2924 -0.0355 -0.3282
 8923TIP3    H126722   7.067   5.883   2.505 -0.4803  0.4205 -0.0150
 8923TIP3    H226723   7.205   5.902   2.565  0.1500 -0.9895 -0.9925
 8924TIP3   OH226724   1.698   4.774   3.460 -0.1054 -0.2154  0.1393
 8924TIP3    H126725   1.788   4.748   3.475  0.5556  1.3803 -0.9548
 8924TIP3    H226726   1.651   4.747   3.539  1.1777 -1.6498  0.4278
 8925TIP3   OH226727   1.208   2.358   5.710  0.1398  0.7127  0.4949
 8925TIP3    H126728   1.263   2.436   5.714 -0.9884  1.5208  0.6173
 8925TIP3    H226729   1.143   2.379   5.642  0.8506 -0.7954 -0.6634
 8926TIP3   OH226730   4.527   6.244   1.624  0.0836  0.0874 -0.1513
 8926TIP3    H126731   4.463   6.194   1.676  0.1319  0.3317  0.1422
 8926TIP3    H226732   4.573   6.299   1.688 -1.1566  1.7964 -0.6790
 8927TIP3   OH226733   5.182   5.775   1.282  0.0046  0.1751 -0.1292
 8927TIP3    H126734   5.216   5.864   1.293 -1.3271  0.7659 -0.6488
 8927TIP3    H226735   5.131   5.760   1.362 -0.5083  0.2311 -0.4423
 8928TIP3   OH226736   3.038   2.256   5.553  0.0693 -0.1862  0.2889
 8928TIP3    H126737   2.954   2.279   5.513  0.7624  0.6999 -0.6583
 8928TIP3    H226738   3.049   2.319   5.624  1.4397  1.7700 -1.6083
 8929TIP3   OH226739   0.364   1.120   5.401 -0.1859  0.0583  0.3281
 8929TIP3    H126740   0.288   1.178   5.406 -0.3601 -0.2598  1.4988
 8929TIP3    H226741   0.439   1.179   5.392 -0.4385  0.4348  0.7049
 8930TIP3   OH226742   1.337   1.743   6.336 -0.1165  0.5327  0.0273
 8930TIP3    H126743   1.382   1.827   6.328 -0.3091  0.5882 -0.4592
 8930TIP3    H226744   1.271   1.744   6.267  0.1290 -0.1718 -0.2188
 8931TIP3   OH226745   3.447   5.295   0.706  0.1824  0.0057 -0.1552
 8931TIP3    H126746   3.484   5.311   0.793  1.0723 -0.9639 -0.3573
 8931TIP3    H226747   3.401   5.211   0.714  1.1480 -0.6012 -0.8992
 8932TIP3   OH226748   3.946   4.739   5.043 -0.3994  0.4150 -0.6218
 8932TIP3    H126749   3.941   4.809   4.978 -2.6238 -0.2748 -1.2358
 8932TIP3    H226750   3.916   4.780   5.124  0.3509  0.7328 -0.5067
 8933TIP3   OH226751   5.612   4.368   0.284 -0.3296  0.5954  0.9182
 8933TIP3    H126752   5.632   4.461   0.274  0.3483  0.4470  0.8458
 8933TIP3    H226753   5.597   4.356   0.378 -1.3086  0.9492  0.8065
 8934TIP3   OH226754   3.515   3.856   1.033  0.1337  0.3272 -0.0453
 8934TIP3    H126755   3.439   3.805   1.060  0.9347 -0.4834  0.6914
 8934TIP3    H226756   3.590   3.801   1.055  0.8657  0.2306 -2.6742
 8935TIP3   OH226757   4.740   6.056   0.954 -0.7706  0.4887 -0.1713
 8935TIP3    H126758   4.830   6.036   0.929 -1.0376 -0.1151 -0.6550
 8935TIP3    H226759   4.747   6.136   1.007  0.0357  0.4907 -0.2745
 8936TIP3   OH226760   1.258   2.877   3.820  0.1560 -0.1585  0.0003
 8936TIP3    H126761   1.229   2.943   3.883 -2.0185 -0.6052 -0.4982
 8936TIP3    H226762   1.311   2.926   3.757 -0.8135  0.9999  0.0543
 8937TIP3   OH226763   7.624   0.032   0.713  0.1034  0.0449 -0.1070
 8937TIP3    H126764   7.700   0.084   0.689  0.8543  0.2892  2.6047
 8937TIP3    H226765   7.551   0.094   0.710  0.2731  0.2106 -1.0529
 8938TIP3   OH226766   2.125   1.046   5.809 -0.3755 -0.2677  0.3964
 8938TIP3    H126767   2.132   0.952   5.793 -0.7394 -0.1602 -0.4034
 8938TIP3    H226768   2.055   1.054   5.874 -0.3476 -0.5472  0.4613
 8939TIP3   OH226769   6.563   1.941   2.839  0.5789  0.1645  0.0611
 8939TIP3    H126770   6.652   1.944   2.875 -0.3708 -0.4085  2.6155
 8939TIP3    H226771   6.540   1.848   2.840  0.6121  0.1040 -2.3933
 8940TIP3   OH226772   4.375   0.318   1.062  0.1235  0.1352 -0.5152
 8940TIP3    H126773   4.439   0.265   1.014 -1.3353  0.0442 -2.3981
 8940TIP3    H226774   4.428   0.373   1.119  2.1018  2.0000 -3.9741
 8941TIP3   OH226775   4.584   5.036   0.219  0.1503 -0.0250 -0.1607
 8941TIP3    H126776   4.587   4.968   0.152  0.3015 -1.2282  1.0487
 8941TIP3    H226777   4.529   5.105   0.181  1.1715 -0.1804 -1.9715
 8942TIP3   OH226778   1.259   2.756   6.425  0.0003  0.4301  0.4848
 8942TIP3    H126779   1.275   2.678   6.372 -0.9358  0.4056  0.2267
 8942TIP3    H226780   1.229   2.821   6.362 -0.2370  0.6812  0.8567
 8943TIP3   OH226781   4.407   4.759   0.612  0.0712 -0.4984  0.0480
 8943TIP3    H126782   4.413   4.665   0.627 -0.7803 -0.4593  0.6223
 8943TIP3    H226783   4.357   4.767   0.531  0.8091 -0.5564 -0.4240
 8944TIP3   OH226784   7.208   3.156   6.241  0.6598 -0.5294  0.3830
 8944TIP3    H126785   7.261   3.179   6.317 -0.1486  1.5488  0.3451
 8944TIP3    H226786   7.272   3.135   6.173  1.3827 -2.0415  1.5067
 8945TIP3   OH226787   3.746   4.885   2.559  0.7088 -0.4012  0.6063
 8945TIP3    H126788   3.655   4.887   2.587  0.4545 -0.6312 -0.2041
 8945TIP3    H226789   3.743   4.870   2.464  1.6124 -1.4897  0.7312
 8946TIP3   OH226790   7.465   0.763   5.300 -0.4845  0.0876  0.0167
 8946TIP3    H126791   7.542   0.707   5.309 -0.1889  0.7047  1.3361
 8946TIP3    H226792   7.469   0.794   5.209  0.8920  0.2166  0.1118
 8947TIP3   OH226793   7.224   3.569   6.011  0.0733 -0.4647 -0.2900
 8947TIP3    H126794   7.138   3.569   5.968  0.3064 -1.4077 -0.7755
 8947TIP3    H226795   7.218   3.638   6.077 -0.8017 -0.0114 -0.8337
 8948TIP3   OH226796   3.261   0.618   6.359 -0.0529  0.6049 -0.1590
 8948TIP3    H126797   3.188   0.662   6.403  0.4536 -0.0744  1.3942
 8948TIP3    H226798   3.325   0.687   6.345  0.6621  0.4475  2.0985
 8949TIP3   OH226799   4.611   6.724   1.137  0.0360  0.3996  0.0751
 8949TIP3    H126800   4.574   6.807   1.107 -0.9650  0.2157  0.7904
 8949TIP3    H226801   4.704   6.743   1.148 -0.0637  1.2366 -0.4303
 8950TIP3   OH226802   3.068   2.613   5.338 -0.0982 -0.3637  0.4860
 8950TIP3    H126803   3.061   2.666   5.417 -0.1071  1.3835 -0.6510
 8950TIP3    H226804   3.157   2.579   5.338 -0.8900 -2.6101  2.5894
 8951TIP3   OH226805   4.783   5.620   1.631  0.1782 -0.0760  0.2071
 8951TIP3    H126806   4.857   5.631   1.691  0.7529  0.5343 -0.5905
 8951TIP3    H226807   4.750   5.532   1.648  0.8695 -0.2179  0.8245
 8952TIP3   OH226808   4.509   6.095   1.186 -0.6168  0.0717 -0.0914
 8952TIP3    H126809   4.544   6.022   1.134 -2.3542 -1.1878  0.4544
 8952TIP3    H226810   4.495   6.165   1.123 -0.4730 -0.6379 -0.9187
 8953TIP3   OH226811   3.560   5.119   5.551  0.3103 -0.1377  0.0558
 8953TIP3    H126812   3.527   5.113   5.641  0.0290 -0.7268 -0.0829
 8953TIP3    H226813   3.530   5.038   5.509  2.3288 -0.9314  0.0780
 8954TIP3   OH226814   0.604   1.046   5.779  0.0528 -0.1762  0.3767
 8954TIP3    H126815   0.628   1.136   5.759 -0.1376  0.0390  1.1321
 8954TIP3    H226816   0.556   1.017   5.701  2.0615 -0.3704 -0.8138
 8955TIP3   OH226817   2.375   3.044   5.505  0.6195  0.6218  0.3688
 8955TIP3    H126818   2.373   2.949   5.497  0.6171  0.6414  0.1299
 8955TIP3    H226819   2.349   3.076   5.418  2.4736  0.8527 -0.1180
 8956TIP3   OH226820   2.016   2.905   5.746  0.0623  0.9518  0.3475
 8956TIP3    H126821   1.982   2.975   5.802  0.0751  0.4135  1.0213
 8956TIP3    H226822   2.011   2.942   5.657 -0.3356  1.6481  0.6541
 8957TIP3   OH226823   4.873   6.576   0.140  0.2306  0.3465  0.7305
 8957TIP3    H126824   4.872   6.655   0.087  0.1323  0.6559  1.1848
 8957TIP3    H226825   4.780   6.559   0.158  0.1216 -1.0055 -1.0225
 8958TIP3   OH226826   6.755   6.569   1.841  0.2570 -0.6841 -0.2770
 8958TIP3    H126827   6.843   6.543   1.869  0.3462 -1.3367 -1.1405
 8958TIP3    H226828   6.758   6.565   1.746 -1.5576 -3.5729 -0.2651
 8959TIP3   OH226829   4.210   3.870   6.051  0.0272  0.0986 -0.0036
 8959TIP3    H126830   4.265   3.947   6.042  0.5666 -0.2073  0.6044
 8959TIP3    H226831   4.173   3.856   5.964  2.2068 -0.6454 -0.8530
 8960TIP3   OH226832   4.976   5.669   1.844  0.5776 -0.9127  0.3874
 8960TIP3    H126833   4.998   5.751   1.799 -0.0242 -0.7496  0.3912
 8960TIP3    H226834   5.049   5.610   1.822 -0.3060 -1.2475 -1.8642
 8961TIP3   OH226835   1.638   0.042   1.728 -0.2324  0.0008 -0.2838
 8961TIP3    H126836   1.619  -0.020   1.657  1.9311 -1.9661  0.7849
 8961TIP3    H226837   1.712   0.093   1.696  0.0715 -0.1807  0.1286
 8962TIP3   OH226838   3.798   0.461   4.596 -0.5438  0.9383  0.6245
 8962TIP3    H126839   3.835   0.494   4.678  1.7734 -0.9224  0.3858
 8962TIP3    H226840   3.816   0.530   4.532  1.8236  0.4202  0.7019
 8963TIP3   OH226841   5.168   5.882   0.956 -0.1512  0.1504 -0.3314
 8963TIP3    H126842   5.163   5.817   0.886 -0.5028  0.0496 -0.2141
 8963TIP3    H226843   5.113   5.847   1.026  0.9949 -0.2309  0.3906
 8964TIP3   OH226844   6.167   5.149   1.076 -0.3690  0.3973  0.1917
 8964TIP3    H126845   6.079   5.143   1.039 -1.1039 -1.3983  2.1566
 8964TIP3    H226846   6.159   5.214   1.146 -0.0042  0.6543 -0.0079
 8965TIP3   OH226847   4.606   6.525   0.186 -0.2252 -0.7113  0.1159
 8965TIP3    H126848   4.573   6.614   0.193  0.2859 -0.6371  2.0304
 8965TIP3    H226849   4.537   6.471   0.224  1.3743 -0.6461  3.2858
 8966TIP3   OH226850   6.929   7.437   2.017 -0.3881 -0.0353 -0.0740
 8966TIP3    H126851   6.911   7.447   1.924  3.3947 -0.4262 -0.9501
 8966TIP3    H226852   6.916   7.343   2.034 -1.3055  0.0770 -0.1790
 8967TIP3   OH226853   5.569   4.608   3.727 -0.6333 -0.4129  0.1522
 8967TIP3    H126854   5.580   4.645   3.639  0.9110 -0.5162  0.2891
 8967TIP3    H226855   5.523   4.677   3.775 -0.1024  0.2863 -0.3184
 8968TIP3   OH226856   3.807   2.671   4.137  0.0641 -0.5443 -0.1765
 8968TIP3    H126857   3.818   2.660   4.231  0.7765 -0.8140 -0.2868
 8968TIP3    H226858   3.875   2.733   4.112  0.0512 -0.6814 -0.5539
 8969TIP3   OH226859   5.027   5.460   0.809  0.5042  0.2010  0.1396
 8969TIP3    H126860   5.038   5.467   0.714  0.3055  0.6751  0.1475
 8969TIP3    H226861   5.067   5.376   0.832 -1.1728 -0.8399 -0.6197
 8970TIP3   OH226862   1.386   2.708   2.458 -0.5457 -0.3753  0.5968
 8970TIP3    H126863   1.362   2.800   2.460  0.2053 -0.1658  0.2088
 8970TIP3    H226864   1.481   2.708   2.452 -0.5985 -1.1699 -0.3638
 8971TIP3   OH226865   0.704   0.145   0.707  0.4947  0.2149  0.0780
 8971TIP3    H126866   0.784   0.196   0.718  1.6130 -1.2834 -0.9879
 8971TIP3    H226867   0.695   0.134   0.613  0.4690 -1.8632  0.3051
 8972TIP3   OH226868   4.161   7.223   0.359  0.2861 -0.3489  0.0667
 8972TIP3    H126869   4.150   7.297   0.419  2.5121 -0.0441  0.1623
 8972TIP3    H226870   4.105   7.245   0.284 -0.9308  0.2575  1.1402
 8973TIP3   OH226871   3.423   1.529   6.203 -0.0838 -0.0745  0.6653
 8973TIP3    H126872   3.364   1.603   6.217  0.2293  0.1724  0.6789
 8973TIP3    H226873   3.490   1.562   6.144 -1.7240 -1.3014 -1.9620
 8974TIP3   OH226874   6.115   5.800   0.443 -0.1044  0.3207 -0.2172
 8974TIP3    H126875   6.159   5.860   0.383  1.2031 -0.5420 -0.1302
 8974TIP3    H226876   6.182   5.776   0.507 -0.8349 -0.6346  0.2040
 8975TIP3   OH226877   7.801   0.135   3.404  0.0042 -0.4658 -0.2931
 8975TIP3    H126878   7.861   0.147   3.330 -1.7076  0.5659 -1.5217
 8975TIP3    H226879   7.805   0.040   3.421  2.0485 -0.4135 -0.2798
 8976TIP3   OH226880   4.805   6.395   1.265 -0.5593 -0.1764  0.0562
 8976TIP3    H126881   4.837   6.472   1.312 -0.5203 -0.5530  0.6540
 8976TIP3    H226882   4.721   6.374   1.306 -0.5196 -0.5161 -0.0310
 8977TIP3   OH226883   3.230   1.089   5.046  0.2284 -0.2226  0.2038
 8977TIP3    H126884   3.258   1.010   5.092 -1.0163 -0.2911  0.8847
 8977TIP3    H226885   3.194   1.145   5.114  2.8844  1.7929  0.0210
 8978TIP3   OH226886   5.948   7.156   1.620 -0.6402 -0.5046  0.5720
 8978TIP3    H126887   5.947   7.242   1.579  1.0373 -0.5000  0.5266
 8978TIP3    H226888   5.972   7.095   1.550  0.0904 -0.7617  1.0381
 8979TIP3   OH226889   3.255   2.684   6.082 -0.6251 -0.0170  0.3123
 8979TIP3    H126890   3.209   2.649   6.006 -1.2276  0.8631  0.2517
 8979TIP3    H226891   3.195   2.669   6.155  0.0065 -0.9764  0.6402
 8980TIP3   OH226892   5.855   5.813   2.338  0.1065  0.8162  0.2132
 8980TIP3    H126893   5.849   5.719   2.359  1.8979  0.3908 -1.0179
 8980TIP3    H226894   5.901   5.850   2.414 -0.9336  0.7762  0.8735
 8981TIP3   OH226895   4.232   6.517   0.739  0.1742  0.3436  0.2379
 8981TIP3    H126896   4.160   6.471   0.696  0.6619  0.0334 -0.2496
 8981TIP3    H226897   4.291   6.542   0.668 -0.0297  1.6324  0.5091
 8982TIP3   OH226898   5.925   7.038   2.404  0.0884  0.8071  0.1551
 8982TIP3    H126899   5.906   6.955   2.360 -1.2839  1.0668  0.2305
 8982TIP3    H226900   5.911   7.019   2.497  0.1818  1.0022  0.2079
 8983TIP3   OH226901   6.843   5.500   1.297  0.8092 -0.2165 -0.3589
 8983TIP3    H126902   6.759   5.491   1.250  0.3562  1.8890 -0.0004
 8983TIP3    H226903   6.908   5.510   1.227  0.0333  3.7536 -0.6119
 8984TIP3   OH226904   0.512   1.652   5.848  0.4991 -0.1277  0.0390
 8984TIP3    H126905   0.474   1.640   5.761 -1.2292 -1.3367  0.9283
 8984TIP3    H226906   0.604   1.675   5.831  0.0685  0.1634 -2.0953
 8985TIP3   OH226907   6.767   6.121   1.369 -0.4630 -0.4669  0.2824
 8985TIP3    H126908   6.676   6.099   1.348 -1.2573  2.9554 -0.0683
 8985TIP3    H226909   6.806   6.146   1.285  0.8275 -1.8376  0.4417
 8986TIP3   OH226910   4.933   5.922   0.576  0.3852 -0.2237  0.0507
 8986TIP3    H126911   4.844   5.890   0.587  0.9570 -2.0896 -0.5152
 8986TIP3    H226912   4.930   5.973   0.495 -0.0380 -0.7799 -0.2867
 8987TIP3   OH226913   5.622   6.170   2.275  0.2036  0.6389 -0.0126
 8987TIP3    H126914   5.614   6.218   2.193  1.4409  1.9285  0.5892
 8987TIP3    H226915   5.716   6.158   2.287 -0.0592 -1.4706  0.1484
 8988TIP3   OH226916   7.677   1.402   5.691  0.0271 -0.2212  0.2435
 8988TIP3    H126917   7.740   1.438   5.629 -1.7618 -0.1023 -1.5703
 8988TIP3    H226918   7.664   1.312   5.663  1.7444 -1.2373  2.5546
 8989TIP3   OH226919   2.358   3.211   5.994  0.3675 -0.2258  0.1476
 8989TIP3    H126920   2.386   3.237   5.906 -1.0514 -1.3368 -0.6569
 8989TIP3    H226921   2.329   3.120   5.983  0.0527 -0.3217  1.7413
 8990TIP3   OH226922   3.814   6.238   1.226 -0.3701  0.0407 -0.5748
 8990TIP3    H126923   3.803   6.152   1.183  2.1593 -1.2956  1.3336
 8990TIP3    H226924   3.873   6.286   1.168  0.0659 -0.3699 -0.4712
 8991TIP3   OH226925   4.236   6.128   4.697  0.2359  0.1526 -0.5939
 8991TIP3    H126926   4.236   6.054   4.637 -1.0002 -0.6340  0.3313
 8991TIP3    H226927   4.302   6.107   4.762 -0.5816 -0.4811  0.0479
 8992TIP3   OH226928   6.626   6.525   3.020  0.0642 -0.4690  0.1720
 8992TIP3    H126929   6.716   6.503   3.045 -0.3975 -1.1787  1.2074
 8992TIP3    H226930   6.633   6.550   2.927  1.1910 -1.3374  0.0102
 8993TIP3   OH226931   6.570   4.862   0.926  0.5671 -0.8921 -0.3833
 8993TIP3    H126932   6.479   4.892   0.926  0.6882 -0.5086  0.7123
 8993TIP3    H226933   6.568   4.778   0.971  0.8905 -0.4366  0.4953
 8994TIP3   OH226934   6.661   6.053   2.125  0.3285  0.2371  0.0953
 8994TIP3    H126935   6.662   6.143   2.157  0.6889  0.7748 -1.3645
 8994TIP3    H226936   6.687   6.000   2.199 -0.5207  1.2797  1.1594
 8995TIP3   OH226937   7.301   0.051   1.211  0.2352  0.0662 -0.2298
 8995TIP3    H126938   7.358  -0.011   1.259 -0.3475 -0.4343 -0.1817
 8995TIP3    H226939   7.362   0.107   1.164  0.8057  0.1662  0.6179
 8996TIP3   OH226940   1.509   0.224   1.295  0.0364 -0.0002 -0.0379
 8996TIP3    H126941   1.604   0.227   1.302 -0.0769  0.2255  1.5027
 8996TIP3    H226942   1.478   0.210   1.384 -1.3699 -0.3967 -0.5643
 8997TIP3   OH226943   4.456   6.078   1.972 -0.9534  0.0858 -0.4210
 8997TIP3    H126944   4.364   6.097   1.953 -0.4887  1.4124 -1.3977
 8997TIP3    H226945   4.490   6.044   1.889 -0.1811  1.0159 -0.4812
 8998TIP3   OH226946   6.556   4.963   3.456 -0.4357 -0.4705  0.2777
 8998TIP3    H126947   6.473   4.975   3.409 -0.1680 -2.0724 -0.6564
 8998TIP3    H226948   6.530   4.932   3.543 -0.9027  1.5486  0.8663
 8999TIP3   OH226949   3.799   5.135   0.087 -0.0655 -0.1683  0.3600
 8999TIP3    H126950   3.774   5.118  -0.004  0.4421  1.6124 -0.1336
 8999TIP3    H226951   3.735   5.086   0.139 -0.4760 -1.0435 -0.9517
 9000TIP3   OH226952   4.940   5.328   0.324 -0.4760  0.2532  0.1362
 9000TIP3    H126953   4.904   5.342   0.236  0.6655 -0.9691 -0.5525
 9000TIP3    H226954   4.874   5.364   0.383 -2.2039 -0.7317 -1.1431
 9001TIP3   OH226955   0.104   7.095   3.191  0.4994  0.5813 -0.0733
 9001TIP3    H126956   0.083   7.170   3.135 -1.1605  1.7734  2.0801
 9001TIP3    H226957   0.043   7.102   3.265  2.7039 -0.8583  1.9548
 9002TIP3   OH226958   5.092   6.150   0.939 -0.2873 -0.5498 -0.3238
 9002TIP3    H126959   5.167   6.209   0.948 -0.5488 -0.0796 -1.2508
 9002TIP3    H226960   5.131   6.063   0.938  0.2345 -0.3162 -0.5878
 9003TIP3   OH226961   2.951   0.995   4.970 -0.2453  0.1083  0.3503
 9003TIP3    H126962   3.044   1.020   4.965 -0.2839  0.1391 -0.2324
 9003TIP3    H226963   2.950   0.922   5.032  0.3357 -0.6662 -0.5300
 9004TIP3   OH226964   3.882   1.941   5.710  0.0042 -0.2732  0.8973
 9004TIP3    H126965   3.806   1.888   5.687 -0.5152  0.3136  1.2546
 9004TIP3    H226966   3.949   1.877   5.735  0.2914 -0.8718 -1.3617
 9005TIP3   OH226967   4.758   2.042   6.423  0.3125 -0.1893  0.3680
 9005TIP3    H126968   4.815   2.047   6.347 -0.8890  2.3730 -0.4490
 9005TIP3    H226969   4.816   2.051   6.498  1.1689  0.8065 -0.3977
 9006TIP3   OH226970   4.432   4.933   1.092  0.1560  0.2772  0.3571
 9006TIP3    H126971   4.367   4.887   1.039  0.4146  0.3849 -0.0556
 9006TIP3    H226972   4.392   5.017   1.111 -0.4964 -0.2700  1.4730
 9007TIP3   OH226973   1.725   2.166   4.320 -0.0516 -0.2903  0.0851
 9007TIP3    H126974   1.631   2.148   4.330 -0.1839 -0.2985 -1.0924
 9007TIP3    H226975   1.768   2.094   4.365 -0.6064  0.5463  2.0005
 9008TIP3   OH226976   7.078   5.570   2.596 -0.5759  0.2175  0.4259
 9008TIP3    H126977   7.107   5.532   2.679 -0.9330  0.4354  0.6545
 9008TIP3    H226978   7.104   5.662   2.601 -0.2524  0.1460  0.1298
 9009TIP3   OH226979   6.273   3.530   5.987 -0.4201  0.4723  0.1012
 9009TIP3    H126980   6.276   3.607   5.930  1.3024  0.1619 -0.2333
 9009TIP3    H226981   6.350   3.538   6.043 -0.3975 -0.8741  0.2709
 9010TIP3   OH226982   5.077   1.591   5.604  0.6406 -0.7321  0.2801
 9010TIP3    H126983   5.169   1.615   5.615  0.8583 -1.4950  0.1147
 9010TIP3    H226984   5.079   1.503   5.567 -0.1416  0.0682 -1.7067
 9011TIP3   OH226985   0.274   1.347   5.682 -0.0774 -0.2235  0.2401
 9011TIP3    H126986   0.184   1.374   5.697 -0.2015 -1.2266  1.3560
 9011TIP3    H226987   0.267   1.263   5.637  0.3011 -0.3189  0.3565
 9012TIP3   OH226988   3.583   4.012   2.170 -0.8090 -0.0293  0.3231
 9012TIP3    H126989   3.521   4.032   2.100 -1.3383 -1.2998  0.4222
 9012TIP3    H226990   3.581   3.917   2.177  2.2084 -0.2045 -0.6311
 9013TIP3   OH226991   3.339   3.650   5.810 -0.0751 -0.0832 -0.3479
 9013TIP3    H126992   3.359   3.594   5.736  0.0811 -0.9880  0.3632
 9013TIP3    H226993   3.385   3.610   5.884 -0.8023  0.4003  0.3833
 9014TIP3   OH226994   6.336   6.142   1.148 -0.3854 -0.3234  0.0382
 9014TIP3    H126995   6.314   6.235   1.157 -0.9522 -0.6906  3.0422
 9014TIP3    H226996   6.256   6.100   1.117 -0.4813  0.0051 -0.1553
 9015TIP3   OH226997   5.415   4.188   1.654  0.9294 -0.2059  0.0784
 9015TIP3    H126998   5.379   4.198   1.742 -0.2828  0.3048 -0.4703
 9015TIP3    H226999   5.464   4.269   1.638  0.9428 -0.1934  0.1873
 9016TIP3   OH227000   0.305   3.363   5.114 -0.4969 -0.0135  0.0419
 9016TIP3    H127001   0.228   3.415   5.089 -0.8501 -0.6347 -0.1767
 9016TIP3    H227002   0.295   3.349   5.208 -2.6578 -3.2895 -0.5861
 9017TIP3   OH227003   4.653   7.270   0.265 -0.5898  0.4276  0.3966
 9017TIP3    H127004   4.694   7.185   0.247  0.4326  0.7743  1.1123
 9017TIP3    H227005   4.569   7.265   0.219 -0.2741 -0.7382 -0.0791
 9018TIP3   OH227006   7.470   7.407   1.155 -0.1646  0.0057 -0.1254
 9018TIP3    H127007   7.420   7.415   1.074  1.6867  0.1668 -1.2620
 9018TIP3    H227008   7.535   7.339   1.137  3.3744  3.3198 -0.4267
 9019TIP3   OH227009   5.142   4.412   2.168  0.3884  0.3299 -0.4274
 9019TIP3    H127010   5.116   4.320   2.159  1.2362 -0.0188  0.7139
 9019TIP3    H227011   5.059   4.459   2.178 -0.0081 -0.3680 -0.3964
 9020TIP3   OH227012   3.397   1.968   5.616  0.0097 -0.3868  0.1519
 9020TIP3    H127013   3.439   2.054   5.625 -0.4612 -0.3147  1.7842
 9020TIP3    H227014   3.326   1.983   5.554  0.7062  0.1082 -0.5460
 9021TIP3   OH227015   6.831   6.656   3.623  0.2694 -0.5634  0.1741
 9021TIP3    H127016   6.772   6.686   3.692  0.9457  0.1706  0.4315
 9021TIP3    H227017   6.915   6.698   3.642  0.5924 -0.7456 -0.8165
 9022TIP3   OH227018   4.175   5.290  -0.023  0.1709  0.1288  0.4182
 9022TIP3    H127019   4.096   5.341  -0.040 -0.1487 -0.3695  0.3930
 9022TIP3    H227020   4.199   5.312   0.067  0.0899  0.3956  0.3750
 9023TIP3   OH227021   4.509   4.739   5.538  0.1082 -0.1345  0.3309
 9023TIP3    H127022   4.564   4.794   5.595  1.8433 -1.6138  0.1304
 9023TIP3    H227023   4.425   4.785   5.535  0.7449  1.2392  2.1344
 9024TIP3   OH227024   5.699   5.410   1.669  0.0663  0.2130 -0.8253
 9024TIP3    H127025   5.669   5.443   1.584  0.7659  1.2872 -0.6648
 9024TIP3    H227026   5.636   5.341   1.691 -0.8147  0.7263 -1.6616
 9025TIP3   OH227027   6.717   7.036   0.859 -0.2236 -0.0307  0.5954
 9025TIP3    H127028   6.796   6.986   0.878  0.2366  0.4707  0.0400
 9025TIP3    H227029   6.669   6.982   0.796  0.0934  0.0488  0.2812
 9026TIP3   OH227030   5.610   6.732   0.537 -0.7583  1.0777  0.6661
 9026TIP3    H127031   5.533   6.684   0.505  0.5915 -0.1140 -0.8540
 9026TIP3    H227032   5.665   6.665   0.576  0.8209  1.4729 -0.8312
 9027TIP3   OH227033   3.523   1.177   3.391  0.0473  0.1567 -0.2150
 9027TIP3    H127034   3.559   1.137   3.470 -1.3084  0.9739  0.8369
 9027TIP3    H227035   3.563   1.128   3.319  0.9914 -0.8552  0.9784
 9028TIP3   OH227036   1.901   3.180   2.355  0.1021  0.1931  0.2109
 9028TIP3    H127037   1.955   3.122   2.301 -0.7886 -0.9602  0.5512
 9028TIP3    H227038   1.871   3.125   2.428  0.6525  1.5325  1.4723
 9029TIP3   OH227039   7.600   4.929   0.027  0.5558  0.0889  0.5910
 9029TIP3    H127040   7.631   4.996   0.089 -0.3691  0.3103  0.8225
 9029TIP3    H227041   7.624   4.963  -0.059  1.6492 -0.1133  0.8048
 9030TIP3   OH227042   2.410   2.825   5.835 -0.4088 -0.1394 -0.3691
 9030TIP3    H127043   2.499   2.806   5.805  0.0798 -2.8488  2.4697
 9030TIP3    H227044   2.363   2.743   5.822 -1.9543  0.6756  0.0101
 9031TIP3   OH227045   0.295   0.192   0.201  0.0483  0.1201 -0.4852
 9031TIP3    H127046   0.356   0.227   0.266  1.9997 -2.1711 -1.0282
 9031TIP3    H227047   0.348   0.182   0.122 -1.2108 -1.2500 -1.1765
 9032TIP3   OH227048   6.723   5.622   0.926  0.1902  0.0301  1.0821
 9032TIP3    H127049   6.802   5.606   0.874  0.5483  0.5849  1.4499
 9032TIP3    H227050   6.663   5.665   0.866 -1.1620 -3.4977 -0.2136
 9033TIP3   OH227051   0.553   0.118   1.675  0.4902 -0.4811  0.8679
 9033TIP3    H127052   0.571   0.072   1.758 -0.6742 -1.7768  0.4135
 9033TIP3    H227053   0.572   0.210   1.695  2.6194 -1.0850  1.8711
 9034TIP3   OH227054   0.823   1.329   0.640 -0.1153 -0.5690  0.3662
 9034TIP3    H127055   0.824   1.396   0.709 -0.5818 -1.1346  0.9248
 9034TIP3    H227056   0.751   1.271   0.664 -0.3534 -0.7045 -0.6657
 9035TIP3   OH227057   7.718   6.014   1.667 -0.2205 -0.3599  0.4470
 9035TIP3    H127058   7.809   6.042   1.661  0.1618 -1.3613  1.3077
 9035TIP3    H227059   7.693   5.994   1.577  1.2016 -2.4711  0.4865
 9036TIP3   OH227060   1.156   2.092   0.339  0.1324  0.3660  0.8958
 9036TIP3    H127061   1.084   2.150   0.313  1.5535  1.5857 -0.4417
 9036TIP3    H227062   1.232   2.150   0.346  1.6542 -1.3434 -0.7651
 9037TIP3   OH227063   4.758   4.801   0.493  0.4729  0.1808 -0.0091
 9037TIP3    H127064   4.697   4.752   0.437  1.5900 -0.5978 -0.5562
 9037TIP3    H227065   4.772   4.883   0.446 -0.1256  0.3549  0.1061
 9038TIP3   OH227066   3.380   4.067   5.842 -0.0563  0.5382 -0.6103
 9038TIP3    H127067   3.471   4.040   5.854 -0.6612 -1.7686 -0.8708
 9038TIP3    H227068   3.375   4.093   5.750  0.2112  0.1209 -0.7450
 9039TIP3   OH227069   3.165   2.987   5.506 -0.0458 -0.3091 -0.5869
 9039TIP3    H127070   3.083   3.034   5.490 -0.1611 -0.6160 -0.9061
 9039TIP3    H227071   3.139   2.896   5.516  0.0716 -0.1770  1.0007
 9040TIP3   OH227072   2.307   1.734   6.350 -0.0771 -0.1784 -0.4242
 9040TIP3    H127073   2.304   1.700   6.440 -0.3363  0.1014 -0.3221
 9040TIP3    H227074   2.217   1.725   6.319  0.0846 -0.5811 -0.7744
 9041TIP3   OH227075   6.493   5.439   0.672 -0.0916  0.0139 -0.4857
 9041TIP3    H127076   6.450   5.423   0.756  0.2032 -3.1438 -0.8934
 9041TIP3    H227077   6.561   5.372   0.665  0.5549  0.8352 -2.8035
 9042TIP3   OH227078   5.907   7.196   3.211 -0.5186  0.4829  0.6138
 9042TIP3    H127079   5.958   7.231   3.138 -0.8439  0.9591  0.6114
 9042TIP3    H227080   5.947   7.111   3.231 -0.6107  0.2216 -0.3055
 9043TIP3   OH227081   4.597   6.406   0.468  0.1911 -0.2784 -0.5197
 9043TIP3    H127082   4.691   6.402   0.484 -0.0719 -2.7759  0.6117
 9043TIP3    H227083   4.583   6.347   0.394 -0.4066  0.6186 -1.1291
 9044TIP3   OH227084   3.611   5.071   4.702 -0.4487  0.2105 -0.1677
 9044TIP3    H127085   3.663   4.995   4.677  0.1505  0.5981 -0.1149
 9044TIP3    H227086   3.611   5.127   4.624  0.9401  1.1528  0.4783
 9045TIP3   OH227087   5.237   6.327   3.893 -0.2522  0.6164 -0.2595
 9045TIP3    H127088   5.195   6.352   3.974  0.4075  1.9003 -0.3006
 9045TIP3    H227089   5.326   6.362   3.899  0.2404 -0.4467 -0.9557
 9046TIP3   OH227090   0.826   1.746   0.546 -0.0665  0.2587  0.4909
 9046TIP3    H127091   0.861   1.811   0.607 -0.2322 -0.1906  1.0673
 9046TIP3    H227092   0.876   1.760   0.466  1.2545 -0.1809  1.2107
 9047TIP3   OH227093   2.772   4.244   5.191 -0.0585 -0.0527 -0.2528
 9047TIP3    H127094   2.761   4.201   5.106  3.4460 -0.2427 -0.7072
 9047TIP3    H227095   2.842   4.194   5.233 -0.5886  1.1022  2.0342
 9048TIP3   OH227096   4.559   6.262   2.587  0.1883 -0.1721  0.0755
 9048TIP3    H127097   4.589   6.313   2.512 -0.6544  2.3233  1.4007
 9048TIP3    H227098   4.639   6.227   2.626  1.2906  4.2051  2.0236
 9049TIP3   OH227099   1.649   2.169   3.297 -0.0576  0.4215 -0.1134
 9049TIP3    H127100   1.652   2.181   3.392  0.9402  3.1018 -0.4310
 9049TIP3    H227101   1.563   2.130   3.280 -0.3575  0.1925  1.8613
 9050TIP3   OH227102   1.756  -0.010   0.443 -0.5714 -0.4112 -0.6565
 9050TIP3    H127103   1.815   0.065   0.449 -1.9267  0.7140 -1.1906
 9050TIP3    H227104   1.754  -0.047   0.531  0.5086 -0.1484 -0.5117
 9051TIP3   OH227105   5.204   5.239   0.375  0.3086 -0.4133 -0.3301
 9051TIP3    H127106   5.213   5.249   0.470  0.0147  0.2196 -0.3639
 9051TIP3    H227107   5.110   5.252   0.359  0.1649 -1.6868 -0.5753
 9052TIP3   OH227108   6.367   4.108   1.986  0.0825 -0.5869  0.5351
 9052TIP3    H127109   6.449   4.087   1.942  0.4177 -2.5620  2.0567
 9052TIP3    H227110   6.334   4.185   1.939  0.8029 -2.1356 -2.6955
 9053TIP3   OH227111   4.820   1.686   5.542  0.5140 -0.1757 -0.3529
 9053TIP3    H127112   4.901   1.657   5.584  0.5108 -1.2759 -1.0735
 9053TIP3    H227113   4.794   1.612   5.487  0.1925  0.9895 -1.8003
 9054TIP3   OH227114   4.275   5.340   1.906  0.1425  0.0570 -0.4444
 9054TIP3    H127115   4.269   5.371   1.996  0.7749 -0.7644 -0.1184
 9054TIP3    H227116   4.328   5.406   1.861  0.2908  0.1840 -0.0832
 9055TIP3   OH227117   1.411   0.386   1.105 -0.0508 -0.4185 -0.1176
 9055TIP3    H127118   1.412   0.455   1.172 -1.1187  0.0354 -0.5683
 9055TIP3    H227119   1.422   0.305   1.155 -3.5108 -0.3347  0.9237
 9056TIP3   OH227120   3.556   6.366   0.308 -0.2482  0.4758 -0.4300
 9056TIP3    H127121   3.461   6.350   0.311 -0.2849  1.0393  1.9093
 9056TIP3    H227122   3.566   6.456   0.339  1.2324 -0.4257  1.8246
 9057TIP3   OH227123   4.981   3.905   6.392 -0.0256  0.1274 -0.0671
 9057TIP3    H127124   5.070   3.937   6.376 -0.3935  1.0308 -0.2980
 9057TIP3    H227125   4.966   3.920   6.485 -0.5033  1.4050 -0.3419
 9058TIP3   OH227126   5.731   6.818   1.414  0.0239  0.0183  0.0650
 9058TIP3    H127127   5.702   6.899   1.373 -3.0487 -0.6807  0.7689
 9058TIP3    H227128   5.691   6.748   1.361 -0.7200 -0.9476  1.8574
 9059TIP3   OH227129   6.146   3.200   0.701 -0.3399  0.5898 -0.6171
 9059TIP3    H127130   6.065   3.149   0.698  0.1944 -0.2750 -0.7325
 9059TIP3    H227131   6.162   3.225   0.610  0.8996 -1.4917 -1.0122
 9060TIP3   OH227132   5.213   3.394   1.119 -0.2185  0.1244 -0.3985
 9060TIP3    H127133   5.263   3.412   1.040 -2.0474  0.0791 -1.6047
 9060TIP3    H227134   5.193   3.480   1.156  0.7853  0.1388  0.1142
 9061TIP3   OH227135   6.269   7.047   1.221  0.0249 -0.1087 -0.2691
 9061TIP3    H127136   6.349   7.004   1.251  0.8229  1.9384  0.6186
 9061TIP3    H227137   6.288   7.074   1.131  0.2960  0.2924 -0.0908
 9062TIP3   OH227138   3.605   1.064   6.023 -0.5200  0.3842  0.2909
 9062TIP3    H127139   3.682   1.082   6.077 -0.6912 -0.8384  0.9677
 9062TIP3    H227140   3.619   0.974   5.992 -1.2961  0.4466 -0.2333
 9063TIP3   OH227141   1.986   1.214   4.888 -0.5788  0.0221 -0.5255
 9063TIP3    H127142   2.055   1.195   4.952 -0.0031 -4.0701 -2.2120
 9063TIP3    H227143   1.904   1.200   4.936 -0.2317  1.7799  0.6184
 9064TIP3   OH227144   7.016   2.178   0.264 -0.2151 -0.1194 -0.2127
 9064TIP3    H127145   7.007   2.225   0.347 -0.4575 -1.0915  0.3134
 9064TIP3    H227146   6.958   2.225   0.204 -1.3514 -0.4493  0.6126
 9065TIP3   OH227147   6.200   6.165   1.939 -0.2800  0.0737 -0.4843
 9065TIP3    H127148   6.238   6.184   1.853  0.6967  2.0193  0.3498
 9065TIP3    H227149   6.239   6.230   1.998 -1.4170 -0.8240  1.3120
 9066TIP3   OH227150   2.391   2.652   5.107 -0.4996  0.1199  0.3204
 9066TIP3    H127151   2.417   2.676   5.196  0.8272 -0.0545 -0.0063
 9066TIP3    H227152   2.427   2.564   5.094 -1.4856 -0.2390 -0.0707
 9067TIP3   OH227153   3.857   6.018   1.071 -0.7172  0.0246 -0.0813
 9067TIP3    H127154   3.805   5.949   1.030  2.1591 -0.6898 -2.7518
 9067TIP3    H227155   3.946   5.982   1.073  0.4845  2.8980  0.3288
 9068TIP3   OH227156   3.608   5.381   1.426 -0.2789 -0.2095  0.2374
 9068TIP3    H127157   3.560   5.464   1.415 -0.5254 -0.4305 -0.3914
 9068TIP3    H227158   3.696   5.408   1.452  0.4672  0.4070 -2.6749
 9069TIP3   OH227159   0.813   0.514   0.405 -0.0301  0.8636  0.2483
 9069TIP3    H127160   0.726   0.495   0.369  1.2707 -0.4150 -2.4291
 9069TIP3    H227161   0.840   0.432   0.446  0.0993  1.1002  0.6321
 9070TIP3   OH227162   4.608   5.888   2.109  0.0143  0.0237 -0.3557
 9070TIP3    H127163   4.553   5.939   2.049  0.3066  1.3235  0.4592
 9070TIP3    H227164   4.697   5.921   2.093  0.0081  0.8847  1.2844
 9071TIP3   OH227165   1.815   3.489   6.248 -0.2677 -0.6526 -0.1938
 9071TIP3    H127166   1.860   3.404   6.251  0.4214 -0.2536  1.2826
 9071TIP3    H227167   1.739   3.477   6.306 -0.2650 -0.3042 -0.1176
 9072TIP3   OH227168   6.202   5.292   1.321  0.5655 -0.4472 -0.6298
 9072TIP3    H127169   6.272   5.234   1.351  0.5788 -0.5012 -0.7691
 9072TIP3    H227170   6.159   5.320   1.402  1.6426  0.7211 -0.4486
 9073TIP3   OH227171   3.937   4.792   0.129  0.4288  0.5047  0.2383
 9073TIP3    H127172   3.933   4.863   0.064  1.0310  0.4040  0.0938
 9073TIP3    H227173   4.023   4.800   0.168 -0.2477  1.1110  1.6503
 9074TIP3   OH227174   0.575   6.250   0.870  0.5787  0.1530 -0.1690
 9074TIP3    H127175   0.656   6.300   0.861  1.9668 -2.2708 -1.8148
 9074TIP3    H227176   0.558   6.248   0.964  0.2969  3.8618 -0.0326
 9075TIP3   OH227177   4.430   2.659   5.153 -0.4313 -0.0616 -0.3977
 9075TIP3    H127178   4.482   2.740   5.152 -0.3077 -0.1440 -0.6000
 9075TIP3    H227179   4.495   2.589   5.164 -0.3031 -0.3202 -2.6493
 9076TIP3   OH227180   5.383   6.075   2.027 -0.4666 -0.3974 -0.6752
 9076TIP3    H127181   5.355   6.133   2.098 -0.9916 -0.0765 -1.1414
 9076TIP3    H227182   5.428   6.132   1.966  0.3460 -0.7452 -0.4054
 9077TIP3   OH227183   2.008   1.733   5.469  0.4726  0.2013  0.0350
 9077TIP3    H127184   1.934   1.770   5.421  1.4521  2.0306 -0.1129
 9077TIP3    H227185   1.968   1.679   5.537 -0.9795  0.2077 -0.8101
 9078TIP3   OH227186   7.269   4.961   2.292 -0.2422 -0.2858  0.2764
 9078TIP3    H127187   7.307   4.915   2.367 -1.2231 -0.2729  0.8024
 9078TIP3    H227188   7.200   5.016   2.331  0.7259  1.4211 -0.3635
 9079TIP3   OH227189   6.210   7.145   1.705 -0.1396 -0.3725 -0.1659
 9079TIP3    H127190   6.274   7.086   1.665 -0.0888 -1.3587  1.3250
 9079TIP3    H227191   6.139   7.151   1.640  1.3799  0.6296 -1.7750
 9080TIP3   OH227192   3.837   1.193   5.443 -0.1366  0.3411 -0.0466
 9080TIP3    H127193   3.870   1.203   5.353 -0.8868  0.1917 -0.3373
 9080TIP3    H227194   3.916   1.188   5.497  0.3193  1.7393 -0.5602
 9081TIP3   OH227195   4.591   5.864   0.633 -0.2260 -0.4170  0.1321
 9081TIP3    H127196   4.573   5.794   0.696  0.7483 -0.3247  0.5317
 9081TIP3    H227197   4.584   5.945   0.684 -0.6494 -0.2647 -0.1659
 9082TIP3   OH227198   5.930   6.083   0.726  0.9022  0.0901  0.0687
 9082TIP3    H127199   5.929   5.993   0.693  1.8281  0.6897 -1.7203
 9082TIP3    H227200   5.843   6.097   0.763  0.8817 -1.6545  0.6930
 9083TIP3   OH227201   5.832   7.083   2.848 -0.0172  0.0706 -0.1296
 9083TIP3    H127202   5.746   7.125   2.851 -0.0887 -0.1743  1.5314
 9083TIP3    H227203   5.894   7.152   2.870  0.2120  0.2184 -1.2100
 9084TIP3   OH227204   1.312   1.792   0.755  0.3171 -0.6617 -0.3924
 9084TIP3    H127205   1.315   1.709   0.803  3.6545 -1.4376 -1.7897
 9084TIP3    H227206   1.244   1.779   0.689  0.6452 -2.2189 -0.4388
 9085TIP3   OH227207   4.941   5.254   1.306 -0.2513 -0.1019 -0.1279
 9085TIP3    H127208   4.961   5.343   1.278 -0.3892  0.1783  0.6406
 9085TIP3    H227209   4.861   5.231   1.260  0.1696 -0.0872 -0.8655
 9086TIP3   OH227210   7.261   6.795   0.932  0.4242 -0.3465 -0.2668
 9086TIP3    H127211   7.237   6.875   0.885 -0.2363 -0.5294 -0.2420
 9086TIP3    H227212   7.338   6.762   0.886  0.2299 -0.1177 -0.7595
 9087TIP3   OH227213   3.283   3.193   5.683 -0.0241 -0.0376  0.4718
 9087TIP3    H127214   3.346   3.126   5.711  1.9537  1.7982  0.6166
 9087TIP3    H227215   3.261   3.170   5.593  1.4664 -0.3017  0.1606
 9088TIP3   OH227216   6.419   5.737   0.430 -0.3074  0.0042  0.0412
 9088TIP3    H127217   6.473   5.808   0.465  0.4550 -0.6521  0.2104
 9088TIP3    H227218   6.446   5.729   0.338  0.8421 -1.2146  0.4804
 9089TIP3   OH227219   5.695   6.223   1.226 -0.1240 -0.1222 -0.4169
 9089TIP3    H127220   5.779   6.218   1.272 -1.4504 -0.1245  2.0882
 9089TIP3    H227221   5.685   6.138   1.184  1.4847  0.1701 -1.4315
 9090TIP3   OH227222   7.867   2.343   4.269 -0.7657 -0.2604  0.0694
 9090TIP3    H127223   7.853   2.252   4.244  1.0907 -0.3539 -0.6852
 9090TIP3    H227224   7.832   2.394   4.196  0.2066 -0.4198 -0.5077
 9091TIP3   OH227225   3.316   5.598   1.946 -0.4238 -0.3104  0.2467
 9091TIP3    H127226   3.332   5.514   1.989 -0.5779  0.6927  2.2855
 9091TIP3    H227227   3.226   5.620   1.967 -0.0023  0.9697  0.8052
 9092TIP3   OH227228   0.843   5.167   0.979 -0.6599  0.1007  0.0726
 9092TIP3    H127229   0.751   5.140   0.977 -0.4238 -0.7003 -0.1325
 9092TIP3    H227230   0.878   5.126   1.058 -0.5210  0.5566  0.2499
 9093TIP3   OH227231   3.076   6.325   6.403 -0.1254  0.1936  0.1401
 9093TIP3    H127232   3.066   6.264   6.476  0.6289  0.9713  0.9027
 9093TIP3    H227233   3.122   6.400   6.441 -1.1283  1.2794 -0.7578
 9094TIP3   OH227234   0.694   0.577   1.989  0.4370 -0.4600 -0.1879
 9094TIP3    H127235   0.649   0.582   2.073  0.0506  0.1457 -0.4225
 9094TIP3    H227236   0.732   0.664   1.977  0.5540 -0.5661 -0.5988
 9095TIP3   OH227237   4.917   5.737   1.162  0.1370  0.0174 -0.2027
 9095TIP3    H127238   4.888   5.756   1.251  1.2195 -2.1653  0.6447
 9095TIP3    H227239   5.007   5.706   1.173 -0.0747 -1.2481 -1.9563
 9096TIP3   OH227240   5.700   2.455   4.177  0.4484  0.3279  0.3062
 9096TIP3    H127241   5.662   2.529   4.224 -1.9596 -0.5079 -0.2530
 9096TIP3    H227242   5.740   2.401   4.245 -1.0799  0.2474  1.1533
 9097TIP3   OH227243   3.494   5.394   5.807 -0.0793  0.0638  0.2816
 9097TIP3    H127244   3.476   5.300   5.810 -1.1088  0.2595  0.6739
 9097TIP3    H227245   3.411   5.433   5.780  1.4082  0.5896 -3.8360
 9098TIP3   OH227246   7.553   1.299   0.669  0.5414 -0.3726  0.1508
 9098TIP3    H127247   7.558   1.385   0.710  1.2533 -0.0126 -0.6757
 9098TIP3    H227248   7.634   1.255   0.695  0.2963 -0.7002  0.3645
 9099TIP3   OH227249   5.687   6.235   2.816  0.1779  0.0982 -0.0408
 9099TIP3    H127250   5.716   6.144   2.816  1.4437  0.4734  1.7079
 9099TIP3    H227251   5.697   6.264   2.726  0.0748 -1.3886 -0.5428
 9100TIP3   OH227252   3.076   2.766   6.450 -0.4330 -0.1541  0.5582
 9100TIP3    H127253   3.131   2.815   6.389 -0.8885 -0.6090 -0.2219
 9100TIP3    H227254   3.024   2.833   6.495 -0.4056  0.1456  0.1434
 9101TIP3   OH227255   1.010   7.422   4.139  0.4900 -0.5883  0.3827
 9101TIP3    H127256   1.076   7.377   4.086 -2.1300 -1.9252 -1.8598
 9101TIP3    H227257   0.974   7.353   4.195  0.3245 -0.0774  0.9075
 9102TIP3   OH227258   6.480   7.155  -0.019  0.8649  0.3524  0.0942
 9102TIP3    H127259   6.460   7.066  -0.048  0.6593  0.1569  0.8369
 9102TIP3    H227260   6.486   7.149   0.076 -3.0585  1.8742  0.5207
 9103TIP3   OH227261   2.757   6.421   1.063  0.0342 -0.6261 -0.2271
 9103TIP3    H127262   2.785   6.452   1.149  0.7517 -0.1094 -0.6337
 9103TIP3    H227263   2.663   6.406   1.072  0.3903 -2.1402  1.0977
 9104TIP3   OH227264   0.640   0.516   1.360 -0.0503  0.2700  0.0828
 9104TIP3    H127265   0.694   0.595   1.354 -1.4806  1.1687 -1.4134
 9104TIP3    H227266   0.631   0.487   1.269  0.9099 -1.9454  0.6682
 9105TIP3   OH227267   2.801   0.388   2.193 -0.4719 -0.2714  0.3844
 9105TIP3    H127268   2.811   0.364   2.101 -0.8763  0.7018  0.0888
 9105TIP3    H227269   2.742   0.321   2.229 -1.5295  0.2043 -0.4259
 9106TIP3   OH227270   5.712   4.506   4.808  0.1967  0.3479  0.1650
 9106TIP3    H127271   5.715   4.601   4.819 -3.1750  0.4371  0.8224
 9106TIP3    H227272   5.643   4.477   4.868  1.5439 -2.6031  0.3752
 9107TIP3   OH227273   7.884   7.285   0.827  0.0195 -0.7053  0.4622
 9107TIP3    H127274   7.811   7.338   0.797  1.8959 -0.1056 -3.3688
 9107TIP3    H227275   7.909   7.323   0.911 -1.4486  1.6654 -0.1459
 9108TIP3   OH227276   6.886   6.250   1.131  0.0483 -0.5563 -0.1841
 9108TIP3    H127277   6.976   6.254   1.100  0.2719 -2.1666  0.2354
 9108TIP3    H227278   6.835   6.222   1.055 -0.4487  2.4194 -1.0324
 9109TIP3   OH227279   0.189   5.854   1.444  0.3932  0.3446 -0.2166
 9109TIP3    H127280   0.099   5.885   1.448  0.2433  0.0816 -1.4496
 9109TIP3    H227281   0.236   5.919   1.392  0.8224  0.2788  0.0833
 9110TIP3   OH227282   6.841   5.940   1.898  0.5484  0.1188 -0.3923
 9110TIP3    H127283   6.815   5.939   1.990  0.2769  1.2122 -0.4607
 9110TIP3    H227284   6.934   5.917   1.900  0.2932 -0.9470  0.0610
 9111TIP3   OH227285   6.053   4.708   0.046  0.4973  0.4677 -0.6246
 9111TIP3    H127286   5.995   4.733   0.118  0.1443 -2.5848  0.1995
 9111TIP3    H227287   6.141   4.718   0.081  0.3587  0.5180 -0.2915
 9112TIP3   OH227288   6.975   5.544   0.137  0.4675  0.1293 -0.1820
 9112TIP3    H127289   6.940   5.592   0.211  0.7350 -0.6567  0.4556
 9112TIP3    H227290   7.069   5.560   0.140  0.3791  0.8398 -0.8919
 9113TIP3   OH227291   6.634   6.329   0.860 -0.1037  0.3941  0.4920
 9113TIP3    H127292   6.724   6.315   0.891  0.8159 -1.0699 -2.5791
 9113TIP3    H227293   6.589   6.246   0.877 -0.0016  0.0927 -0.6308
 9114TIP3   OH227294   6.472   5.730   0.160  0.1719  0.0091 -0.3971
 9114TIP3    H127295   6.557   5.752   0.122  0.2354 -1.7986 -1.3341
 9114TIP3    H227296   6.409   5.755   0.092  0.0133  0.5670 -0.0430
 9115TIP3   OH227297   1.774   6.589   4.709  0.3794 -0.4575 -0.0998
 9115TIP3    H127298   1.732   6.660   4.758  0.5421 -1.1359  1.0285
 9115TIP3    H227299   1.849   6.564   4.763  2.3863  0.8706 -2.1665
 9116TIP3   OH227300   4.823   5.929   0.272  0.0263  0.1017 -0.5633
 9116TIP3    H127301   4.872   6.007   0.300 -0.1533 -0.2643  0.8337
 9116TIP3    H227302   4.731   5.954   0.277 -0.1437 -0.8156  2.0035
 9117TIP3   OH227303   7.035   7.015   1.635  0.3743 -0.6487  0.1688
 9117TIP3    H127304   6.961   6.993   1.692 -2.3872 -0.7169 -3.2740
 9117TIP3    H227305   7.109   6.966   1.671 -1.3675 -1.0420  3.3756
 9118TIP3   OH227306   4.575   7.096   0.741  0.1055 -0.1622  0.4226
 9118TIP3    H127307   4.531   7.140   0.669  0.6468  0.1174  0.2583
 9118TIP3    H227308   4.541   7.007   0.739 -1.7339  0.5084  1.3734
 9119TIP3   OH227309   0.246   0.614   1.792 -0.3475  0.5128  0.0359
 9119TIP3    H127310   0.325   0.560   1.798 -0.4702  0.4241  0.8526
 9119TIP3    H227311   0.214   0.600   1.703 -0.5433 -0.9937  0.3370
 9120TIP3   OH227312   4.383   7.390   2.930 -0.7910  0.5881 -0.0078
 9120TIP3    H127313   4.377   7.314   2.872  1.1896  0.1385  0.3577
 9120TIP3    H227314   4.458   7.439   2.897 -0.4893  1.0476  1.3579
 9121TIP3   OH227315   5.918   7.108   0.907  0.1656  0.0785 -0.8731
 9121TIP3    H127316   5.878   7.189   0.875  0.7953  0.3272 -1.0234
 9121TIP3    H227317   6.005   7.107   0.868  0.5004 -0.2170 -0.1173
 9122TIP3   OH227318   5.484   3.318   5.631 -0.3599  0.3031 -0.6093
 9122TIP3    H127319   5.399   3.336   5.671 -0.0341  0.2848  0.0912
 9122TIP3    H227320   5.463   3.291   5.541 -1.1882 -0.8927 -0.0741
 9123TIP3   OH227321   5.218   5.070   1.595 -0.0544  0.4899  1.0372
 9123TIP3    H127322   5.195   4.995   1.540 -0.8995 -0.0431  2.0862
 9123TIP3    H227323   5.197   5.041   1.684 -0.6223  2.0552  1.4222
 9124TIP3   OH227324   7.804   0.444   0.560 -0.1835 -0.3295 -0.3722
 9124TIP3    H127325   7.807   0.501   0.636  0.5808 -0.3296 -0.4056
 9124TIP3    H227326   7.894   0.416   0.546 -0.2396  0.0407 -1.5522
 9125TIP3   OH227327   4.987   6.635   0.393 -0.2707  0.5545 -0.4504
 9125TIP3    H127328   4.898   6.653   0.425 -0.6600 -0.6086 -0.8549
 9125TIP3    H227329   4.974   6.608   0.302  0.1996 -2.5607  0.3603
 9126TIP3   OH227330   0.580   1.072   1.982 -0.0152 -0.0334 -0.1963
 9126TIP3    H127331   0.486   1.056   1.992 -0.1176  1.1788  0.9160
 9126TIP3    H227332   0.586   1.163   1.955  0.8372 -0.0943 -0.2255
 9127TIP3   OH227333   6.797   3.095   0.686 -0.0639 -0.4028 -0.2443
 9127TIP3    H127334   6.760   3.135   0.766  2.1926 -1.8880  1.5957
 9127TIP3    H227335   6.729   3.035   0.656 -1.0323  0.3304  0.4428
 9128TIP3   OH227336   4.690   6.443   1.769 -0.3334  0.2968  0.2933
 9128TIP3    H127337   4.728   6.376   1.826  1.7534  0.8317 -0.4038
 9128TIP3    H227338   4.744   6.440   1.689 -1.0691  1.8646 -0.2957
 9129TIP3   OH227339   0.090   0.706   3.110  0.0510 -0.1150 -0.6704
 9129TIP3    H127340   0.155   0.760   3.156  0.2829 -0.7946 -0.1972
 9129TIP3    H227341   0.056   0.647   3.177 -0.3549 -0.4251 -1.1452
 9130TIP3   OH227342   1.407   3.093   4.321 -0.0537  0.2180 -0.6310
 9130TIP3    H127343   1.315   3.081   4.345  0.3153  0.6549  1.0860
 9130TIP3    H227344   1.428   3.017   4.265 -0.6370 -1.4988  1.4219
 9131TIP3   OH227345   1.860   1.601   5.666 -0.5941  0.2241 -0.2061
 9131TIP3    H127346   1.902   1.516   5.656 -2.8918 -1.3411  2.6945
 9131TIP3    H227347   1.768   1.586   5.642 -1.4904  1.3134  2.3114
 9132TIP3   OH227348   1.036   2.368   5.509  1.1231 -0.5994 -0.5557
 9132TIP3    H127349   1.066   2.455   5.483 -2.2005  1.6057  2.4959
 9132TIP3    H227350   0.942   2.369   5.493  0.5334 -2.5349  2.3602
 9133TIP3   OH227351   3.862   2.271   6.311  0.2635 -0.2868  0.1089
 9133TIP3    H127352   3.955   2.277   6.289  0.6409 -0.1698  1.7225
 9133TIP3    H227353   3.817   2.312   6.237  1.6113  1.7604  0.4000
 9134TIP3   OH227354   4.280   5.147   0.303  0.0292 -0.0068 -0.3057
 9134TIP3    H127355   4.306   5.159   0.394  1.2158  0.0768 -0.6563
 9134TIP3    H227356   4.264   5.236   0.270 -0.4158 -0.0382 -0.1871
 9135TIP3   OH227357   4.324   5.496   0.710  0.2621 -0.4981  0.1785
 9135TIP3    H127358   4.240   5.533   0.685 -0.1036  0.0203  2.0491
 9135TIP3    H227359   4.352   5.444   0.635  0.7412  3.4479 -2.5079
 9136TIP3   OH227360   6.114   5.017   0.260 -0.2497 -0.3658  0.8359
 9136TIP3    H127361   6.115   5.110   0.239  1.6091 -0.4430  0.4756
 9136TIP3    H227362   6.205   4.989   0.248 -1.3288 -2.8695 -1.9500
 9137TIP3   OH227363   4.427   2.018   5.857  0.4637 -0.3463 -0.0645
 9137TIP3    H127364   4.471   2.087   5.908  1.3576 -0.0219 -1.2469
 9137TIP3    H227365   4.391   1.959   5.923 -0.8603  1.5718  0.9871
 9138TIP3   OH227366   4.893   1.680   5.036 -0.1758 -0.4131  0.1383
 9138TIP3    H127367   4.878   1.611   4.971  0.2242 -0.1942 -0.1915
 9138TIP3    H227368   4.988   1.695   5.033 -0.1685 -0.3327  0.7056
 9139TIP3   OH227369   1.142   1.536   5.013 -0.1157  0.1995  0.2816
 9139TIP3    H127370   1.194   1.497   4.943 -0.1178 -0.9351  0.9080
 9139TIP3    H227371   1.164   1.630   5.010  0.7553 -0.0263 -0.4799
 9140TIP3   OH227372   2.607   0.706   1.714 -0.2135  0.0075  0.0101
 9140TIP3    H127373   2.693   0.675   1.683  0.3362  1.0961  0.4305
 9140TIP3    H227374   2.545   0.671   1.650  0.6627  0.1746 -0.9487
 9141TIP3   OH227375   6.389   4.801   1.792 -0.1664 -0.1924 -0.5033
 9141TIP3    H127376   6.463   4.862   1.784  0.0516  0.3017  3.7447
 9141TIP3    H227377   6.424   4.718   1.762  1.9011  0.2394  0.5814
 9142TIP3   OH227378   5.224   6.358   0.323  0.4472 -0.0639  0.0524
 9142TIP3    H127379   5.232   6.433   0.264 -1.2181  0.1878  0.1181
 9142TIP3    H227380   5.237   6.394   0.411 -0.4154  0.1757  0.0893
 9143TIP3   OH227381   0.708   2.181   0.089  0.6838  0.0320  0.2756
 9143TIP3    H127382   0.795   2.216   0.070  0.2117  0.9126 -0.3584
 9143TIP3    H227383   0.722   2.114   0.155  1.8808 -0.0666 -0.0766
 9144TIP3   OH227384   1.626   2.357   5.901  0.2851 -0.3899 -0.0683
 9144TIP3    H127385   1.713   2.389   5.925  0.0710 -0.5324  0.9151
 9144TIP3    H227386   1.635   2.262   5.896 -0.1482 -0.5164  1.4367
 9145TIP3   OH227387   7.146   5.121   1.991  0.2640  0.1121  0.6504
 9145TIP3    H127388   7.200   5.200   2.003 -1.2986  1.5209 -1.1924
 9145TIP3    H227389   7.125   5.093   2.080  2.1804  0.8300  1.3617
 9146TIP3   OH227390   0.835   5.005   1.555 -0.3976 -0.0831 -0.1604
 9146TIP3    H127391   0.792   4.938   1.501 -1.7863  0.0964  0.7249
 9146TIP3    H227392   0.922   5.015   1.514 -0.2639 -2.2121 -0.4850
 9147TIP3   OH227393   1.062   7.261   2.175 -0.6471  0.3091 -0.1294
 9147TIP3    H127394   0.974   7.295   2.190 -0.1945  0.9366  1.1534
 9147TIP3    H227395   1.115   7.339   2.156 -0.4886 -0.1261 -1.5279
 9148TIP3   OH227396   5.333   4.352   4.600  0.2979  0.1461 -0.4402
 9148TIP3    H127397   5.364   4.264   4.576 -0.8318 -0.6175  0.8545
 9148TIP3    H227398   5.272   4.376   4.531 -0.5715 -0.7381  0.0174
 9149TIP3   OH227399   6.503   6.510   0.385  0.0604 -0.2449  0.0156
 9149TIP3    H127400   6.469   6.567   0.454  1.5688 -0.1889  0.7371
 9149TIP3    H227401   6.481   6.422   0.414 -0.5740 -0.1438 -0.1497
 9150TIP3   OH227402   6.996   5.161   4.921  0.1475 -0.3407 -0.7581
 9150TIP3    H127403   6.995   5.193   4.831 -0.1611  1.2872 -0.1957
 9150TIP3    H227404   7.050   5.225   4.968 -1.1780 -0.1716  0.5594
 9151TIP3   OH227405   4.038   1.234   4.403  0.2627 -0.2932  0.4418
 9151TIP3    H127406   4.071   1.144   4.401  2.6527  0.5390  0.2323
 9151TIP3    H227407   4.116   1.287   4.418 -0.9998  1.8081 -0.2765
 9152TIP3   OH227408   7.045   2.071   6.438 -0.0852  0.1382 -0.5629
 9152TIP3    H127409   7.115   2.013   6.467  0.8598  0.7551 -1.5751
 9152TIP3    H227410   6.972   2.013   6.416 -0.1109 -0.4689  1.0450
 9153TIP3   OH227411   4.871   4.053   6.123  0.3037  0.4771  0.4642
 9153TIP3    H127412   4.942   4.095   6.074 -0.9736  1.0610 -0.9052
 9153TIP3    H227413   4.914   3.982   6.171  1.9964  1.4943  0.5015
 9154TIP3   OH227414   3.995   5.028   3.714  0.0045  0.0533  0.1230
 9154TIP3    H127415   4.026   5.094   3.651  0.3211 -1.2244 -1.0903
 9154TIP3    H227416   3.903   5.015   3.692 -0.5160  1.2586  1.4397
 9155TIP3   OH227417   2.988   3.209   5.538  0.4407  0.0922  0.3815
 9155TIP3    H127418   3.002   3.297   5.573  0.7543 -0.0384  0.5841
 9155TIP3    H227419   2.986   3.221   5.443 -0.5291  0.4644  0.4484
 9156TIP3   OH227420   6.064   2.601   5.807  0.0381  0.0842  0.1282
 9156TIP3    H127421   5.986   2.604   5.863  0.3600 -2.7596  0.7864
 9156TIP3    H227422   6.031   2.577   5.721  0.0041  0.6490 -0.0217
 9157TIP3   OH227423   5.669   2.592   6.166  0.0685 -0.3178  0.4500
 9157TIP3    H127424   5.582   2.580   6.128  0.7777 -1.5142 -0.8178
 9157TIP3    H227425   5.716   2.511   6.146  1.9644  0.8962 -0.2295
 9158TIP3   OH227426   5.788   5.617   0.434  0.2578 -0.2845  0.6168
 9158TIP3    H127427   5.757   5.536   0.475 -2.5580  0.8444  0.8339
 9158TIP3    H227428   5.757   5.611   0.343  2.3169 -0.6083 -0.0835
 9159TIP3   OH227429   2.920   0.101   0.836  0.3634 -0.2527 -0.0951
 9159TIP3    H127430   2.911   0.073   0.745  1.3657  0.9856 -0.5866
 9159TIP3    H227431   2.837   0.142   0.857 -0.2509 -1.4453 -0.1148
 9160TIP3   OH227432   1.675   0.649   2.430 -0.0344 -0.2936 -0.1005
 9160TIP3    H127433   1.642   0.739   2.423 -0.5034 -0.5701 -1.4419
 9160TIP3    H227434   1.597   0.594   2.421  0.5413 -0.8993 -1.4270
 9161TIP3   OH227435   4.671   2.099   3.924 -0.6064  0.1120 -0.4973
 9161TIP3    H127436   4.644   2.025   3.869 -2.4399  1.0884 -0.9484
 9161TIP3    H227437   4.727   2.152   3.867  0.6242 -0.8476 -0.2077
 9162TIP3   OH227438   7.751   3.493   4.817 -0.0954 -0.1481 -0.2798
 9162TIP3    H127439   7.696   3.451   4.751  0.6017 -1.2979 -0.1341
 9162TIP3    H227440   7.775   3.578   4.778 -0.7396 -0.2798 -0.9644
 9163TIP3   OH227441   0.249   6.646   0.362 -0.1937 -0.0699  0.0626
 9163TIP3    H127442   0.244   6.582   0.291  0.4820  1.1306 -1.1151
 9163TIP3    H227443   0.158   6.670   0.380 -0.3240  0.3508 -1.1137
 9164TIP3   OH227444   1.322   1.468   1.852  0.0384 -0.4387 -0.3496
 9164TIP3    H127445   1.338   1.447   1.944  2.0177 -0.7659 -0.7607
 9164TIP3    H227446   1.249   1.411   1.827 -0.5820 -0.2732  1.0363
 9165TIP3   OH227447   6.348   6.270   1.717  0.3989 -0.7260  0.4978
 9165TIP3    H127448   6.440   6.254   1.694  0.0631 -0.9794 -0.7398
 9165TIP3    H227449   6.346   6.362   1.744  0.5894  0.0236 -1.9152
 9166TIP3   OH227450   4.437   0.018   0.157  0.3223  0.7954 -0.6655
 9166TIP3    H127451   4.379   0.008   0.233  1.0105 -0.7486 -0.3355
 9166TIP3    H227452   4.510   0.071   0.190 -0.0662  1.3279 -0.6434
 9167TIP3   OH227453   4.652   2.574   5.460 -0.4716  0.0829  0.3368
 9167TIP3    H127454   4.735   2.589   5.413 -1.3288  2.7023 -0.4221
 9167TIP3    H227455   4.612   2.500   5.413  0.3771  0.2812 -0.7404
 9168TIP3   OH227456   7.626   0.591   1.810  0.3692  0.1996  0.9789
 9168TIP3    H127457   7.679   0.580   1.889  1.1375  1.5048  0.6590
 9168TIP3    H227458   7.660   0.523   1.750 -0.4003 -0.9689  1.8430
 9169TIP3   OH227459   3.076   1.465   5.554 -0.1264 -0.4181  0.0134
 9169TIP3    H127460   3.051   1.529   5.621  1.4109 -0.5165  0.7033
 9169TIP3    H227461   3.109   1.391   5.604 -1.1166 -1.4260 -0.8076
 9170TIP3   OH227462   1.815   0.898   0.848  0.1386 -0.4262 -0.6381
 9170TIP3    H127463   1.910   0.900   0.847  0.1866 -0.4512  1.6957
 9170TIP3    H227464   1.793   0.807   0.830  0.6230 -0.8629  0.9113
 9171TIP3   OH227465   0.851   5.574   0.268  0.5021  0.1392 -0.0146
 9171TIP3    H127466   0.843   5.580   0.364 -1.2984  0.3152 -0.1594
 9171TIP3    H227467   0.785   5.635   0.235  1.0359 -0.0125 -1.3825
 9172TIP3   OH227468   4.707   2.501   6.018  0.2138  0.1591 -0.6146
 9172TIP3    H127469   4.682   2.555   5.943  0.1573  3.0447  1.4341
 9172TIP3    H227470   4.643   2.521   6.086  0.5248 -2.0893  0.4036
 9173TIP3   OH227471   5.672   6.107   6.177 -0.1843 -0.4415 -0.1585
 9173TIP3    H127472   5.737   6.072   6.238  0.5512  0.5337 -0.3768
 9173TIP3    H227473   5.721   6.127   6.098 -0.1980  2.9357  0.6375
 9174TIP3   OH227474   6.025   4.429   6.277  0.5803 -0.9711 -0.1452
 9174TIP3    H127475   5.988   4.390   6.198 -1.4030  1.3297 -0.4083
 9174TIP3    H227476   5.971   4.395   6.348 -0.2328  0.1299 -0.2259
 9175TIP3   OH227477   7.125   2.037   5.189  0.0297 -0.4216  0.2276
 9175TIP3    H127478   7.061   1.982   5.233 -0.8248 -0.9688 -1.6615
 9175TIP3    H227479   7.083   2.062   5.107  2.3105 -0.9291 -1.1250
 9176TIP3   OH227480   4.930   1.038   4.640 -0.3744  0.4482 -0.3444
 9176TIP3    H127481   4.868   1.049   4.712  0.1884  1.0285  0.0532
 9176TIP3    H227482   4.875   1.019   4.564 -0.8593 -2.3564  0.6561
 9177TIP3   OH227483   6.251   4.376   5.618 -0.1172 -0.0409 -0.0220
 9177TIP3    H127484   6.323   4.415   5.568 -0.2849 -1.7194 -1.6217
 9177TIP3    H227485   6.280   4.379   5.709  0.3456  2.7669 -0.2184
 9178TIP3   OH227486   4.987   2.984   5.568  0.5696  0.3994  0.6608
 9178TIP3    H127487   5.050   3.038   5.520  0.3319  0.3928  0.3354
 9178TIP3    H227488   4.904   3.033   5.562  0.0068 -0.6989 -0.9033
 9179TIP3   OH227489   0.991   6.722   0.076 -0.6913  0.0214  0.4488
 9179TIP3    H127490   0.971   6.636   0.041 -0.7527 -0.2126  1.0489
 9179TIP3    H227491   0.966   6.783   0.007  0.6412 -0.5113 -0.5307
 9180TIP3   OH227492   5.235   3.718   5.537 -0.3363  0.6122  0.1420
 9180TIP3    H127493   5.317   3.681   5.504  0.1167  0.0517  1.8601
 9180TIP3    H227494   5.236   3.809   5.507 -1.1654 -0.5059 -3.5706
 9181TIP3   OH227495   6.446   6.497   0.119  0.2888 -0.0675  0.5977
 9181TIP3    H127496   6.535   6.521   0.093 -0.1770  1.2538  0.1831
 9181TIP3    H227497   6.453   6.478   0.213  1.9995 -5.0498 -0.3683
 9182TIP3   OH227498   5.192   3.246   5.707  0.0924  0.3180 -0.1067
 9182TIP3    H127499   5.145   3.249   5.624  2.4098 -1.0129 -1.5318
 9182TIP3    H227500   5.227   3.334   5.719  0.7203  0.2223 -1.1541
 9183TIP3   OH227501   2.535   6.759   2.661  0.1796 -0.1055  0.0151
 9183TIP3    H127502   2.461   6.772   2.602  0.0004 -0.2181  0.2147
 9183TIP3    H227503   2.608   6.806   2.620  0.5160 -1.6426 -1.1777
 9184TIP3   OH227504   1.106   0.304   1.581 -0.3530  0.0768  0.5895
 9184TIP3    H127505   1.119   0.308   1.675 -0.9421  3.5197  0.5589
 9184TIP3    H227506   1.022   0.348   1.565 -1.6132 -2.7830 -1.3344
 9185TIP3   OH227507   3.437   1.634  -0.030 -0.0195 -0.3043  0.7190
 9185TIP3    H127508   3.410   1.725  -0.021  0.4694 -0.2212  1.3578
 9185TIP3    H227509   3.440   1.600   0.059  0.9467 -0.6165  0.5729
 9186TIP3   OH227510   0.231   6.076   1.883  0.2422 -0.6624 -0.0186
 9186TIP3    H127511   0.237   6.036   1.970  0.4901 -0.4595  0.0591
 9186TIP3    H227512   0.290   6.152   1.887 -0.4286 -0.1353 -0.0796
 9187TIP3   OH227513   4.403   4.440   2.142 -0.0720  1.0402  0.6948
 9187TIP3    H127514   4.411   4.345   2.142  0.5485  1.0713 -1.1743
 9187TIP3    H227515   4.322   4.457   2.191 -0.1457 -0.4390  1.1187
 9188TIP3   OH227516   4.689   3.217   5.764  0.2926  0.5590  0.1181
 9188TIP3    H127517   4.701   3.155   5.692 -2.3149 -0.3763  0.4468
 9188TIP3    H227518   4.679   3.302   5.723  1.5503  0.4355 -0.4606
 9189TIP3   OH227519   0.212   0.106   2.502 -0.0725 -0.3273  0.0809
 9189TIP3    H127520   0.240   0.100   2.410  0.6848  0.6641  0.2366
 9189TIP3    H227521   0.142   0.171   2.502  0.9319  0.7755  0.4146
 9190TIP3   OH227522   6.649   1.304   5.764 -0.7708  0.2945 -0.1487
 9190TIP3    H127523   6.576   1.356   5.796 -1.4904 -1.2936  0.8029
 9190TIP3    H227524   6.633   1.295   5.670 -1.3887  0.5782 -0.0719
 9191TIP3   OH227525   6.066   4.908   0.796 -0.3063 -0.7609 -0.3452
 9191TIP3    H127526   5.996   4.936   0.855 -1.2089 -1.7193 -0.9409
 9191TIP3    H227527   6.050   4.956   0.715  0.3370 -0.2084 -0.1500
 9192TIP3   OH227528   6.366   6.369   5.486  0.0211 -0.1100  0.5506
 9192TIP3    H127529   6.368   6.273   5.486  0.8783 -0.1037 -0.4112
 9192TIP3    H227530   6.302   6.391   5.419 -0.5848 -0.0145  1.1635
 9193TIP3   OH227531   4.821   6.219   1.908  0.1643 -0.3603 -0.1161
 9193TIP3    H127532   4.905   6.174   1.908  1.3500  1.8038  0.0928
 9193TIP3    H227533   4.801   6.232   2.000  0.7446  1.1892 -0.2004
 9194TIP3   OH227534   7.598   0.587   2.475  0.7254  0.0606  0.0555
 9194TIP3    H127535   7.604   0.503   2.429 -2.3165 -0.8918  1.2837
 9194TIP3    H227536   7.614   0.566   2.567  1.8367  1.1611  0.1319
 9195TIP3   OH227537   5.007   4.047   4.713  0.0456 -0.0805 -0.1141
 9195TIP3    H127538   5.089   4.051   4.762  0.9220 -2.3471 -1.3159
 9195TIP3    H227539   4.943   4.015   4.777  0.3113  0.7585  0.5755
 9196TIP3   OH227540   1.129   1.242   2.601 -0.4541  0.2862 -0.0540
 9196TIP3    H127541   1.098   1.194   2.678  1.7698 -0.7744  0.2402
 9196TIP3    H227542   1.188   1.309   2.636  2.0214 -1.3704 -0.8755
 9197TIP3   OH227543   3.962   6.169   4.701 -0.1895 -0.6960 -0.2286
 9197TIP3    H127544   3.922   6.210   4.625  0.7098  0.5079 -0.0637
 9197TIP3    H227545   4.056   6.168   4.682 -0.0383 -1.2093  0.4771
 9198TIP3   OH227546   1.891   4.887   6.234 -0.3732  0.0003  0.5097
 9198TIP3    H127547   1.919   4.909   6.322 -0.8631  0.2590  0.6019
 9198TIP3    H227548   1.832   4.958   6.208 -0.5665 -0.2874  0.1392
 9199TIP3   OH227549   4.889   4.979   5.362  0.3631 -0.2818  0.6320
 9199TIP3    H127550   4.806   4.932   5.356  0.0242  0.2624  1.0498
 9199TIP3    H227551   4.922   4.959   5.450  0.3450  0.0617  0.7161
 9200TIP3   OH227552   3.799   4.477   5.051 -0.8503 -0.1211  0.6579
 9200TIP3    H127553   3.742   4.544   5.089 -0.4278  0.6833 -0.0889
 9200TIP3    H227554   3.873   4.527   5.014 -0.6987 -0.9654 -0.2073
 9201TIP3   OH227555   7.723   6.784   1.456  0.1103 -0.5797 -0.3736
 9201TIP3    H127556   7.781   6.819   1.388 -0.1004  0.7361  0.0929
 9201TIP3    H227557   7.781   6.740   1.517  0.9482  2.4983  1.1948
 9202TIP3   OH227558   0.260   0.180   1.522 -0.0233  1.0539  0.5706
 9202TIP3    H127559   0.316   0.238   1.471 -0.6139  0.5911 -0.6210
 9202TIP3    H227560   0.322   0.123   1.569  0.5353 -0.8134 -2.3138
 9203TIP3   OH227561   4.029   0.458   5.311  0.2236 -0.0142 -0.0632
 9203TIP3    H127562   4.044   0.457   5.217  2.4772 -0.1482  0.2759
 9203TIP3    H227563   4.048   0.548   5.337  0.5641 -0.2147  0.3984
 9204TIP3   OH227564   1.121   7.230   1.360 -0.1422  0.1501  0.6901
 9204TIP3    H127565   1.184   7.159   1.356 -0.5816 -0.2252  0.3101
 9204TIP3    H227566   1.045   7.197   1.312  0.1027  1.3334 -0.5564
 9205TIP3   OH227567   1.124   6.101   1.647 -0.3389 -0.3570  0.5062
 9205TIP3    H127568   1.054   6.149   1.691 -0.0203  0.9633 -0.3986
 9205TIP3    H227569   1.203   6.125   1.696 -0.1604  0.1581 -0.0263
 9206TIP3   OH227570   4.657   2.887   6.227 -0.1874 -0.3611 -0.1417
 9206TIP3    H127571   4.730   2.858   6.172  0.2600 -0.5608  0.5406
 9206TIP3    H227572   4.609   2.950   6.173 -0.0006 -0.8729 -0.9042
 9207TIP3   OH227573   3.226   1.270   0.672  0.2357 -0.0607  0.1887
 9207TIP3    H127574   3.152   1.220   0.708 -1.3939  1.9184 -0.3383
 9207TIP3    H227575   3.238   1.235   0.583 -1.9228  1.5166 -0.7539
 9208TIP3   OH227576   4.522   4.098   4.706  0.3464  0.2364 -0.0715
 9208TIP3    H127577   4.584   4.035   4.670 -0.6764 -0.7842 -0.1119
 9208TIP3    H227578   4.441   4.048   4.716  0.1429  0.9251  2.0857
 9209TIP3   OH227579   4.239   2.437   5.084  0.3612 -0.1317 -0.1142
 9209TIP3    H127580   4.318   2.469   5.128 -0.0753  0.7049  0.0800
 9209TIP3    H227581   4.174   2.506   5.098  0.5848  0.8100 -3.2189
 9210TIP3   OH227582   6.484   6.990   1.511  0.2620 -0.3499 -0.3534
 9210TIP3    H127583   6.551   6.939   1.557  0.1244 -1.2286 -1.0942
 9210TIP3    H227584   6.477   6.947   1.426 -0.4014  0.4677 -0.7163
 9211TIP3   OH227585   4.730   3.481   6.255 -0.5514  0.1729  0.1813
 9211TIP3    H127586   4.766   3.405   6.209 -1.2890  0.0311 -0.1552
 9211TIP3    H227587   4.806   3.518   6.301 -0.0469 -0.3561 -0.2108
 9212TIP3   OH227588   6.738   3.058   4.643  0.4779  0.0063 -0.0751
 9212TIP3    H127589   6.790   3.043   4.565 -0.4565 -1.7521 -0.3796
 9212TIP3    H227590   6.791   3.024   4.715  0.6416  0.1585 -0.1221
 9213TIP3   OH227591   7.629   0.761   0.593 -0.7316  0.4808  0.1129
 9213TIP3    H127592   7.599   0.836   0.643  0.7961  1.7256 -0.7727
 9213TIP3    H227593   7.571   0.757   0.517 -1.0585  0.5394  0.3649
 9214TIP3   OH227594   6.777   5.007   1.019 -0.3790  0.5274 -0.3393
 9214TIP3    H127595   6.688   4.979   0.999  0.0485 -2.1206  1.2439
 9214TIP3    H227596   6.832   4.957   0.958  0.2351 -0.1752  0.7864
 9215TIP3   OH227597   0.667   6.361   1.817 -0.4322 -0.1645  0.2497
 9215TIP3    H127598   0.758   6.347   1.845 -0.3486 -0.1713 -0.0274
 9215TIP3    H227599   0.615   6.314   1.883 -0.2677  0.3883  0.7806
 9216TIP3   OH227600   7.821   6.452   0.613 -0.3225  0.0528  0.7643
 9216TIP3    H127601   7.840   6.359   0.628 -0.7914 -0.0955  0.4742
 9216TIP3    H227602   7.809   6.489   0.700  2.0771  0.3308  1.0130
 9217TIP3   OH227603   4.494   2.557   6.163 -0.1500  0.3282 -0.1017
 9217TIP3    H127604   4.437   2.486   6.193  0.1362  0.0133 -0.2983
 9217TIP3    H227605   4.439   2.609   6.106 -0.5346  0.6039  0.5119
 9218TIP3   OH227606   2.261   0.498   2.088  0.1119  0.5455  0.0401
 9218TIP3    H127607   2.315   0.564   2.044 -0.3942  0.0706 -1.3175
 9218TIP3    H227608   2.312   0.475   2.166  0.4113  2.3520  0.4240
 9219TIP3   OH227609   1.456   1.484   5.425  0.7759 -0.1232 -0.2538
 9219TIP3    H127610   1.416   1.419   5.482 -0.5160  0.9003  0.0269
 9219TIP3    H227611   1.391   1.500   5.357  0.1147  2.4587  0.8975
 9220TIP3   OH227612   6.004   3.833   6.078 -0.1406  0.1518  0.2517
 9220TIP3    H127613   6.083   3.859   6.031 -0.5215  0.3911 -0.2643
 9220TIP3    H227614   5.972   3.914   6.119  1.3987 -0.4587  2.7805
 9221TIP3   OH227615   4.382   4.115   5.976 -0.0800  0.1889 -0.1197
 9221TIP3    H127616   4.459   4.094   6.028  0.7075 -0.3062 -1.4806
 9221TIP3    H227617   4.384   4.210   5.967  0.1869  0.2041  0.1018
 9222TIP3   OH227618   7.369   0.369   0.734  0.1944  0.1498  0.1901
 9222TIP3    H127619   7.365   0.411   0.819 -1.5355 -0.7534  0.5720
 9222TIP3    H227620   7.438   0.416   0.687  2.0257 -0.1673  2.5153
 9223TIP3   OH227621   4.025   4.818   6.066  0.1149  0.3978  0.3509
 9223TIP3    H127622   3.931   4.809   6.082  0.5083 -0.7123  2.1068
 9223TIP3    H227623   4.057   4.869   6.140  0.8623  1.0074 -0.3852
 9224TIP3   OH227624   1.370   0.151   1.548  0.0571 -0.4003 -0.0319
 9224TIP3    H127625   1.287   0.190   1.574  0.1131 -0.7682  0.7011
 9224TIP3    H227626   1.392   0.090   1.618  0.3302 -1.2300 -0.8260
 9225TIP3   OH227627   5.072   5.095   6.216  0.8720 -0.3614 -0.0274
 9225TIP3    H127628   5.046   5.069   6.127  1.2308  0.7372 -0.4659
 9225TIP3    H227629   5.123   5.175   6.203  0.2437  0.2617  1.2389
 9226TIP3   OH227630   2.647   0.383   0.273 -0.2757 -0.5695  0.1656
 9226TIP3    H127631   2.726   0.354   0.227 -0.5042 -3.2859  1.4040
 9226TIP3    H227632   2.575   0.341   0.226 -0.8231  0.1259  0.3782
 9227TIP3   OH227633   7.693   6.235   1.349 -0.7846  0.0268 -0.2677
 9227TIP3    H127634   7.780   6.255   1.382 -0.5895 -0.3766 -0.5452
 9227TIP3    H227635   7.685   6.285   1.268 -1.0312  0.5285  0.0679
 9228TIP3   OH227636   4.347   3.272   5.677 -0.0951  0.1724  0.3578
 9228TIP3    H127637   4.435   3.275   5.716 -0.0770 -0.3549  0.3664
 9228TIP3    H227638   4.330   3.362   5.649 -0.3327  0.6711  2.0583
 9229TIP3   OH227639   2.378   2.360   1.078  0.1381 -0.3986 -0.3409
 9229TIP3    H127640   2.347   2.412   1.152 -0.4675 -0.5695 -0.4691
 9229TIP3    H227641   2.462   2.324   1.107 -0.3172 -0.8398  0.4348
 9230TIP3   OH227642   6.482   4.168   4.391  0.2223  0.9608 -0.1199
 9230TIP3    H127643   6.391   4.144   4.406  0.4950  1.4478  2.4361
 9230TIP3    H227644   6.495   4.154   4.297 -1.9304 -0.9193 -0.1677
 9231TIP3   OH227645   4.936   1.938   5.657  0.3280 -0.2925  0.3366
 9231TIP3    H127646   4.866   1.887   5.616  0.0079  0.2261  0.2335
 9231TIP3    H227647   4.894   1.984   5.729  0.2499  1.1165 -0.5746
 9232TIP3   OH227648   1.339   1.765   0.029 -0.4539  0.2478 -0.2191
 9232TIP3    H127649   1.335   1.839  -0.031 -1.6926  0.7861  0.5074
 9232TIP3    H227650   1.284   1.791   0.103  1.0831 -0.3862  1.1748
 9233TIP3   OH227651   1.818   3.404   5.930 -0.0150  0.2524  0.0386
 9233TIP3    H127652   1.798   3.448   5.847 -0.5149 -2.1194 -1.1389
 9233TIP3    H227653   1.766   3.450   5.995 -0.5308  1.3923 -1.1655
 9234TIP3   OH227654   7.119   6.554   0.963  0.0780  0.0340  0.2740
 9234TIP3    H127655   7.191   6.522   0.909  0.1470 -0.5296  0.6880
 9234TIP3    H227656   7.137   6.647   0.976  1.2650 -0.3128  1.1869
 9235TIP3   OH227657   5.102   4.156   0.272 -0.6906  0.0526 -0.0206
 9235TIP3    H127658   5.049   4.233   0.251 -1.2987 -0.3674 -0.0397
 9235TIP3    H227659   5.056   4.114   0.345 -1.1640 -1.0816 -0.9421
 9236TIP3   OH227660   4.310   2.888   6.205 -0.3942 -0.2521  0.1255
 9236TIP3    H127661   4.266   2.807   6.180 -0.7642 -0.1066  0.3067
 9236TIP3    H227662   4.350   2.867   6.290 -0.3623 -0.2935  0.1000
 9237TIP3   OH227663   6.491   6.976   3.486  0.4020 -0.2379  0.1077
 9237TIP3    H127664   6.498   6.880   3.486 -1.5670 -0.4095 -0.3201
 9237TIP3    H227665   6.580   7.006   3.504  0.7544 -2.1687  1.8511
 9238TIP3   OH227666   3.562   1.049   0.076 -0.1485 -0.1109 -0.2483
 9238TIP3    H127667   3.546   1.021  -0.014  0.4902 -2.9382  0.4493
 9238TIP3    H227668   3.627   1.119   0.069  0.8260 -1.1526 -1.9160
 9239TIP3   OH227669   1.099   6.101   0.564  0.3071  0.2575  0.1553
 9239TIP3    H127670   1.177   6.089   0.510  0.3292 -0.7961  0.4245
 9239TIP3    H227671   1.026   6.075   0.507  0.3406 -0.9957  0.6656
 9240TIP3   OH227672   5.074   2.758   5.692 -0.6030  0.1235 -0.3546
 9240TIP3    H127673   5.150   2.783   5.744 -0.5299  0.0752 -0.4390
 9240TIP3    H227674   5.034   2.841   5.667  0.0690  0.1771 -1.2768
 9241TIP3   OH227675   5.844   6.497   1.364 -1.0187  0.7369  0.0083
 9241TIP3    H127676   5.813   6.476   1.452 -0.3905 -1.2544 -0.2338
 9241TIP3    H227677   5.766   6.487   1.309 -0.8766 -0.3399 -0.0050
 9242TIP3   OH227678   2.690   5.122   2.795 -0.6544 -0.5858 -0.5077
 9242TIP3    H127679   2.733   5.205   2.816 -1.3590 -0.8643  2.3331
 9242TIP3    H227680   2.619   5.115   2.860 -0.1915 -3.7102 -0.2511
 9243TIP3   OH227681   1.416   0.155   0.774 -0.0954 -0.0577 -0.1167
 9243TIP3    H127682   1.376   0.145   0.861  0.1373  1.1865  0.1300
 9243TIP3    H227683   1.406   0.068   0.734  0.6221 -0.9152  1.4988
 9244TIP3   OH227684   4.123   2.197   5.105  0.0346 -0.1907  0.4356
 9244TIP3    H127685   4.163   2.282   5.087 -1.5639  0.0294 -2.3145
 9244TIP3    H227686   4.197   2.136   5.111  1.1878  1.3456  2.4418
 9245TIP3   OH227687   6.051   2.349   4.822  0.4945  0.3932 -0.0356
 9245TIP3    H127688   6.117   2.403   4.866  1.9278 -0.4733 -1.0469
 9245TIP3    H227689   6.103   2.287   4.771 -1.1191 -1.2395  0.2763
 9246TIP3   OH227690   3.978   3.647   6.311  0.3373  0.0830  0.4362
 9246TIP3    H127691   3.931   3.566   6.326  0.4239  0.0089  0.3041
 9246TIP3    H227692   4.053   3.623   6.256 -0.7839  0.5972 -1.3542
 9247TIP3   OH227693   6.363   5.500   1.653 -0.0889  0.0446  0.3499
 9247TIP3    H127694   6.317   5.584   1.654 -1.2196 -0.5610  1.0854
 9247TIP3    H227695   6.441   5.515   1.601 -1.1782  1.0928 -1.0188
 9248TIP3   OH227696   6.336   3.640   6.335  0.3255 -0.4449 -0.1108
 9248TIP3    H127697   6.386   3.587   6.274 -0.6650 -1.0563 -0.3999
 9248TIP3    H227698   6.395   3.712   6.359  1.1548 -0.8901 -0.8168
 9249TIP3   OH227699   4.839   3.394   5.087  0.4713 -0.2194 -0.1347
 9249TIP3    H127700   4.878   3.477   5.063  0.9283 -0.6937 -1.0458
 9249TIP3    H227701   4.906   3.329   5.066  0.2085 -0.8047  0.7788
 9250TIP3   OH227702   5.763   5.286   4.987 -0.0347 -0.0306  0.6991
 9250TIP3    H127703   5.828   5.269   4.919 -0.1022  1.6536  0.2050
 9250TIP3    H227704   5.710   5.358   4.953 -1.5474 -0.7191  1.5218
 9251TIP3   OH227705   5.383   3.550   5.974 -0.5260  0.1099  0.5110
 9251TIP3    H127706   5.309   3.585   6.023  0.6200 -0.0286  2.4010
 9251TIP3    H227707   5.411   3.473   6.024  0.6347 -0.0854 -0.4076
 9252TIP3   OH227708   4.241   0.749   1.930  0.0621  0.6676 -0.1126
 9252TIP3    H127709   4.212   0.696   1.855  4.1842  1.4981 -2.4270
 9252TIP3    H227710   4.318   0.703   1.964  1.0642  2.8099  0.6089
 9253TIP3   OH227711   7.532   7.268   4.023  0.5897 -0.1264  0.2507
 9253TIP3    H127712   7.544   7.360   4.047 -0.1066  0.0036  0.1307
 9253TIP3    H227713   7.455   7.268   3.966 -0.4001 -0.9652  1.5484
 9254TIP3   OH227714   2.590   3.344   0.042 -0.0524 -0.9414 -0.3983
 9254TIP3    H127715   2.520   3.340   0.106 -0.7529 -0.3407 -1.1282
 9254TIP3    H227716   2.593   3.256   0.004  0.6730 -1.4342  0.7699
 9255TIP3   OH227717   4.615   4.341   6.020 -0.0257 -0.3466 -0.5052
 9255TIP3    H127718   4.675   4.411   5.994 -1.5455  0.6954 -1.3506
 9255TIP3    H227719   4.660   4.295   6.091  2.5367 -0.7799 -2.3585
 9256TIP3   OH227720   5.359   5.545   6.283 -0.1235 -0.1016  0.0747
 9256TIP3    H127721   5.444   5.591   6.286  0.3195 -0.9901  3.1957
 9256TIP3    H227722   5.296   5.610   6.312 -0.1852 -0.0844 -0.0988
 9257TIP3   OH227723   6.552   6.732   4.131 -0.0763 -0.4346  0.1111
 9257TIP3    H127724   6.600   6.781   4.065 -1.3296 -2.0189 -2.0220
 9257TIP3    H227725   6.514   6.799   4.188  2.2220  0.9067  0.1174
 9258TIP3   OH227726   2.823   0.102   0.517 -0.5959 -0.1238 -0.1015
 9258TIP3    H127727   2.771   0.045   0.460 -0.6831  1.5190 -1.7224
 9258TIP3    H227728   2.772   0.183   0.521 -0.0171  0.1703  1.4186
 9259TIP3   OH227729   4.944   4.496   5.301  0.8857 -0.1050 -0.0476
 9259TIP3    H127730   4.922   4.460   5.215  0.9102 -1.2987  0.4269
 9259TIP3    H227731   4.898   4.439   5.363  3.3476 -1.2007  0.8620
 9260TIP3   OH227732   3.434   3.980   6.202 -0.3795 -0.0377  0.3657
 9260TIP3    H127733   3.527   3.969   6.222 -0.5389 -1.9193  0.1243
 9260TIP3    H227734   3.431   4.000   6.109 -0.3383 -2.1137 -0.1006
 9261TIP3   OH227735   4.600   1.161   1.493  0.0119 -0.6102  0.4104
 9261TIP3    H127736   4.650   1.088   1.457  0.3342 -0.4870  0.6081
 9261TIP3    H227737   4.541   1.186   1.422 -0.3788 -1.3214  0.4862
 9262TIP3   OH227738   2.360   7.459   1.688 -0.1612 -0.5624  0.6411
 9262TIP3    H127739   2.326   7.376   1.655 -1.5306  0.2664 -0.0980
 9262TIP3    H227740   2.453   7.459   1.664 -0.4188 -1.3763 -0.3683
 9263TIP3   OH227741   4.963   6.327   0.029  0.2729 -0.1616  0.0199
 9263TIP3    H127742   4.908   6.324  -0.049  1.8538 -0.8861 -1.0929
 9263TIP3    H227743   4.957   6.417   0.059 -2.4965 -0.5075  0.6547
 9264TIP3   OH227744   3.165   2.212   6.132  0.1317  0.0195  0.7631
 9264TIP3    H127745   3.081   2.235   6.094  1.0916 -0.0826 -1.5034
 9264TIP3    H227746   3.149   2.209   6.227 -2.1868  0.7990  0.4199
 9265TIP3   OH227747   5.711   0.764   6.144 -0.2704  0.0678  0.2335
 9265TIP3    H127748   5.718   0.729   6.056  0.6874 -1.0642  0.7495
 9265TIP3    H227749   5.631   0.818   6.142 -1.9644 -2.3971 -0.4864
 9266TIP3   OH227750   1.389   1.367   0.169 -0.4089  0.9879  0.1033
 9266TIP3    H127751   1.434   1.289   0.138 -0.6562  0.3989  1.2167
 9266TIP3    H227752   1.438   1.440   0.131  0.7037  0.3232  0.2675
 9267TIP3   OH227753   0.884   0.483   1.140  0.1897 -0.3050  0.2471
 9267TIP3    H127754   0.968   0.460   1.181 -0.7816 -3.1990  0.7893
 9267TIP3    H227755   0.858   0.565   1.182  1.7416 -0.4849  1.6113
 9268TIP3   OH227756   4.277   6.454   0.036  0.0225 -0.2192 -0.1506
 9268TIP3    H127757   4.273   6.539   0.080 -1.1659  0.6135 -1.8269
 9268TIP3    H227758   4.231   6.394   0.095 -1.1798  0.7962 -0.0495
 9269TIP3   OH227759   3.341   3.031   4.658 -0.1857 -0.4971 -0.1113
 9269TIP3    H127760   3.405   2.965   4.631  0.4959 -0.3899  1.2126
 9269TIP3    H227761   3.392   3.111   4.670 -0.5292 -0.4773  1.2033
 9270TIP3   OH227762   4.140   2.163   6.005 -0.2474 -0.1378 -0.0844
 9270TIP3    H127763   4.191   2.084   6.022 -1.0194 -0.4742  0.7040
 9270TIP3    H227764   4.069   2.134   5.948 -0.3839  0.0406 -0.0033
 9271TIP3   OH227765   3.645   5.911   5.573  0.1579  0.3553 -0.0346
 9271TIP3    H127766   3.617   5.967   5.501  0.3573  1.4388  0.7248
 9271TIP3    H227767   3.683   5.971   5.637  0.3192 -0.6399  0.8130
 9272TIP3   OH227768   6.561   6.938   2.499  0.0439 -0.1398 -0.5972
 9272TIP3    H127769   6.653   6.912   2.492  0.1114  0.2549 -1.1951
 9272TIP3    H227770   6.554   7.016   2.445 -0.7732 -0.4888 -1.0038
 9273TIP3   OH227771   4.541   3.336   5.008  0.3970  0.1184  0.2127
 9273TIP3    H127772   4.521   3.273   4.940 -0.9692 -1.0128  1.6351
 9273TIP3    H227773   4.634   3.322   5.026  1.5195  2.3698 -3.3284
 9274TIP3   OH227774   5.574   6.287   4.740 -0.0856  0.1585 -0.8068
 9274TIP3    H127775   5.536   6.345   4.674 -1.3430  2.0622  1.5283
 9274TIP3    H227776   5.649   6.335   4.775  1.3434 -1.3726 -1.6636
 9275TIP3   OH227777   0.861   6.389   0.835 -0.0968  0.0254  0.2236
 9275TIP3    H127778   0.911   6.397   0.916  1.7557 -0.9625 -0.7749
 9275TIP3    H227779   0.920   6.423   0.767 -0.8744 -0.9559 -0.9643
 9276TIP3   OH227780   4.378   2.730   4.621 -0.1859 -0.5942 -0.5735
 9276TIP3    H127781   4.455   2.706   4.569 -0.1461  0.2503 -0.9047
 9276TIP3    H227782   4.312   2.665   4.595 -0.4354  0.3158 -2.3535
 9277TIP3   OH227783   3.863   5.937   1.609 -0.5399 -0.0290 -0.4662
 9277TIP3    H127784   3.942   5.884   1.623 -1.6008 -1.3353  0.7929
 9277TIP3    H227785   3.815   5.890   1.541  0.4953  1.6329 -2.3941
 9278TIP3   OH227786   5.324   5.556   0.404  0.1548  0.8103  0.7553
 9278TIP3    H127787   5.282   5.626   0.355  1.1709  1.2839  0.5430
 9278TIP3    H227788   5.321   5.481   0.345 -0.6075  0.7725  0.8382
 9279TIP3   OH227789   6.995   6.511   1.913  0.1823 -0.0202  0.6605
 9279TIP3    H127790   7.061   6.464   1.862  0.6893  0.5237  0.8151
 9279TIP3    H227791   7.041   6.544   1.990 -0.3979 -0.1290  1.0612
 9280TIP3   OH227792   4.439   2.877   5.807 -0.5439 -0.0278 -0.5205
 9280TIP3    H127793   4.488   2.860   5.726 -0.3514 -0.9666 -0.2170
 9280TIP3    H227794   4.374   2.943   5.782 -0.1652  0.0476 -1.3235
 9281TIP3   OH227795   6.344   4.102   6.062 -0.2459 -0.3934 -0.1303
 9281TIP3    H127796   6.435   4.129   6.050 -0.0802 -0.5996  0.6294
 9281TIP3    H227797   6.340   4.015   6.023 -0.5221  0.2746 -1.6333
 9282TIP3   OH227798   7.610   6.464   0.027  0.6046  0.0433  0.1018
 9282TIP3    H127799   7.671   6.415   0.083 -0.2472 -1.6333 -0.3896
 9282TIP3    H227800   7.586   6.401  -0.042 -1.1765  0.8785 -0.0690
 9283TIP3   OH227801   3.618   1.852   4.727  0.1221  0.0959  0.0087
 9283TIP3    H127802   3.537   1.834   4.776  0.3785 -1.8629 -0.2165
 9283TIP3    H227803   3.633   1.945   4.738 -0.6336 -0.0301  2.4464
 9284TIP3   OH227804   5.500   4.101   6.419 -0.2752 -0.2475 -0.4388
 9284TIP3    H127805   5.455   4.170   6.468 -1.1740  0.1481 -1.7743
 9284TIP3    H227806   5.591   4.107   6.448 -0.4162  1.2347 -0.2265
 9285TIP3   OH227807   4.932   3.663   3.052 -0.0422  0.3219  0.9825
 9285TIP3    H127808   4.890   3.744   3.022  0.4567  0.3449  0.3168
 9285TIP3    H227809   4.870   3.624   3.113 -1.3438 -0.0006 -0.5189
 9286TIP3   OH227810   3.927   2.254   1.432  0.3069  0.2601 -1.0079
 9286TIP3    H127811   4.004   2.288   1.388  0.4438  0.1696 -0.8384
 9286TIP3    H227812   3.957   2.174   1.475  0.5572  1.1737  0.5593
 9287TIP3   OH227813   3.071   2.965   4.683  0.3019 -0.4955  1.0327
 9287TIP3    H127814   3.027   3.024   4.744 -0.6245 -2.2408  2.0999
 9287TIP3    H227815   3.164   2.975   4.703  0.1611  0.6201  1.1696
 9288TIP3   OH227816   6.861   6.600   0.906  0.4535  0.2374 -0.2944
 9288TIP3    H127817   6.932   6.539   0.928  0.1518  0.3019  0.9102
 9288TIP3    H227818   6.859   6.601   0.811  0.9116 -1.1259 -0.3351
 9289TIP3   OH227819   7.063   7.208   1.078 -0.5154 -0.4580  0.3806
 9289TIP3    H127820   7.081   7.206   1.172  0.5187 -2.0431  0.1811
 9289TIP3    H227821   7.018   7.125   1.062 -2.9606  0.9242 -0.1158
 9290TIP3   OH227822   4.563   3.456   5.739  0.2545  0.0047  0.0035
 9290TIP3    H127823   4.485   3.511   5.737  0.5911  0.4619 -0.9655
 9290TIP3    H227824   4.606   3.472   5.655 -1.5047 -4.4194 -1.9031
 9291TIP3   OH227825   4.975   2.520   6.284 -0.7256 -0.1404 -0.4475
 9291TIP3    H127826   4.980   2.521   6.188  1.1674  0.9179 -0.3724
 9291TIP3    H227827   4.883   2.502   6.303 -0.9301 -1.3700 -2.4609
 9292TIP3   OH227828   0.667   7.096   0.556 -0.3621  0.1658 -0.3011
 9292TIP3    H127829   0.662   7.163   0.488  1.0112  0.9755  0.3637
 9292TIP3    H227830   0.742   7.042   0.532 -0.5100 -0.1780 -0.0013
 9293TIP3   OH227831   4.254   5.088   0.777  0.6568  0.4035  0.0512
 9293TIP3    H127832   4.194   5.126   0.841  1.4310  1.0139  0.4214
 9293TIP3    H227833   4.197   5.059   0.705 -0.0731  1.0708  0.3497
 9294TIP3   OH227834   5.595   1.701   5.683 -0.3838 -0.1475  0.0170
 9294TIP3    H127835   5.651   1.623   5.684  0.9056  0.7713  0.9604
 9294TIP3    H227836   5.612   1.741   5.597 -0.3143 -0.3774 -0.0785
 9295TIP3   OH227837   5.530   5.791   0.865  0.2092 -0.2678  0.6317
 9295TIP3    H127838   5.575   5.779   0.782  0.8621 -0.8481  1.0687
 9295TIP3    H227839   5.467   5.861   0.848  1.9500  1.2624  0.2753
 9296TIP3   OH227840   5.958   5.706   1.278 -0.1434  0.0923  0.0696
 9296TIP3    H127841   5.963   5.642   1.348 -2.6677  0.2033  0.3958
 9296TIP3    H227842   5.869   5.698   1.244 -0.5822  3.4754  0.2155
 9297TIP3   OH227843   6.827   6.907   2.626  0.4768  0.3052 -0.0833
 9297TIP3    H127844   6.817   7.000   2.647  1.4967  0.3862  0.0249
 9297TIP3    H227845   6.921   6.890   2.633  0.3317 -0.6574 -0.4217
 9298TIP3   OH227846   5.776   5.951   1.443  0.1541 -0.0353  0.2213
 9298TIP3    H127847   5.764   5.867   1.398  4.5387 -0.5548 -0.2009
 9298TIP3    H227848   5.759   5.932   1.535 -1.1276 -0.8333 -0.1735
 9299TIP3   OH227849   2.386   1.535   0.716 -0.1546  0.2949  0.7323
 9299TIP3    H127850   2.452   1.601   0.737 -0.4239  0.4363  1.1405
 9299TIP3    H227851   2.340   1.570   0.639  0.7294 -0.1493 -0.0056
 9300TIP3   OH227852   7.784   6.347   1.114  0.0779 -0.0386 -0.4476
 9300TIP3    H127853   7.796   6.439   1.135 -0.4263 -0.2083  0.6530
 9300TIP3    H227854   7.872   6.314   1.098  0.3447  0.4257  0.0488
 9301TIP3   OH227855   5.473   3.863   5.427  0.4606 -0.1639 -0.0363
 9301TIP3    H127856   5.433   3.844   5.342  0.5057 -0.9116  0.1092
 9301TIP3    H227857   5.498   3.777   5.462 -0.0482  0.0947  0.9770
 9302TIP3   OH227858   5.343   6.005   0.010 -0.0440 -1.0471  0.0291
 9302TIP3    H127859   5.405   5.995   0.082  1.3877  0.3850 -0.9646
 9302TIP3    H227860   5.267   6.048   0.050  1.7368  2.0667  0.2537
 9303TIP3   OH227861   4.011   6.199   6.051  0.0930  0.1678  0.1720
 9303TIP3    H127862   4.032   6.293   6.051 -0.7266  0.3517  0.0162
 9303TIP3    H227863   3.919   6.195   6.024  0.0975 -0.6756  0.2821
 9304TIP3   OH227864   5.092   5.526   0.549  0.5108 -0.4454  0.5097
 9304TIP3    H127865   5.033   5.497   0.480 -0.2391 -0.8672  1.3275
 9304TIP3    H227866   5.180   5.507   0.516  0.1675 -0.3706 -0.4461
 9305TIP3   OH227867   3.889   4.452   6.340  0.3607 -0.3536  0.0956
 9305TIP3    H127868   3.917   4.506   6.414  0.6643 -1.7974  1.0688
 9305TIP3    H227869   3.968   4.407   6.312 -0.4206 -2.5472  1.2413
 9306TIP3   OH227870   0.329   7.294   0.930  0.0990 -0.0054 -0.3451
 9306TIP3    H127871   0.401   7.284   0.867  0.3185  0.6503 -0.2049
 9306TIP3    H227872   0.283   7.373   0.902 -0.4903 -0.3523 -0.3573
 9307TIP3   OH227873   5.933   7.357   2.222 -0.0287 -0.2136  0.0747
 9307TIP3    H127874   5.990   7.287   2.192  1.9355  0.8097  1.3159
 9307TIP3    H227875   5.964   7.378   2.310 -3.3287 -0.6868  1.4187
 9308TIP3   OH227876   5.125   2.511   3.748  0.0833 -0.0215  0.1945
 9308TIP3    H127877   5.103   2.509   3.654  0.3908  0.3596  0.1131
 9308TIP3    H227878   5.217   2.535   3.750 -0.2066  1.0950  0.6370
 9309TIP3   OH227879   1.141   1.323   0.052  0.3687  0.4739 -0.2425
 9309TIP3    H127880   1.158   1.248  -0.005  0.4396 -0.0878  0.5090
 9309TIP3    H227881   1.222   1.334   0.102  0.1214  0.6261  0.1254
 9310TIP3   OH227882   0.959   6.472   1.638 -0.6184 -0.0408 -0.1778
 9310TIP3    H127883   1.055   6.474   1.636 -0.5809 -0.1448  0.8787
 9310TIP3    H227884   0.932   6.485   1.547  0.3960  0.0987 -0.4638
 9311TIP3   OH227885   0.436   6.472   2.358 -0.6447 -0.6374 -0.2497
 9311TIP3    H127886   0.522   6.483   2.318 -0.7416 -1.2185 -0.6262
 9311TIP3    H227887   0.452   6.416   2.434 -0.7763 -1.2241 -0.6509
 9312TIP3   OH227888   3.958   2.297   4.348 -0.0106  0.2491  0.7497
 9312TIP3    H127889   4.033   2.264   4.398  0.9689  1.7598  0.2874
 9312TIP3    H227890   3.995   2.321   4.263 -0.9710  1.2146  0.5981
 9313TIP3   OH227891   1.647   1.441   0.403  0.3144 -0.2820 -0.0762
 9313TIP3    H127892   1.689   1.447   0.318  0.8929 -3.3749 -0.0662
 9313TIP3    H227893   1.716   1.412   0.462 -1.3620 -3.7586  0.2705
 9314TIP3   OH227894   0.821   6.122   0.491  1.0267  0.1173 -0.3262
 9314TIP3    H127895   0.794   6.212   0.510  2.2571  0.2191  1.0082
 9314TIP3    H227896   0.759   6.068   0.539  1.6266  0.2993  0.6614
 9315TIP3   OH227897   6.356   6.819   0.207  0.2022  0.2344 -0.0091
 9315TIP3    H127898   6.303   6.842   0.131 -0.0873 -0.8710 -0.1609
 9315TIP3    H227899   6.429   6.769   0.171  1.3135  1.7009  0.2108
 9316TIP3   OH227900   1.899   1.704   1.896  0.2012 -0.2528 -0.4343
 9316TIP3    H127901   1.877   1.616   1.865 -0.2358 -0.0745 -0.6230
 9316TIP3    H227902   1.989   1.696   1.929 -0.4218 -1.1709  1.0893
 9317TIP3   OH227903   5.877   6.761   2.302 -0.4324  0.0291  0.2683
 9317TIP3    H127904   5.921   6.677   2.309  0.2520  0.3974  0.4128
 9317TIP3    H227905   5.829   6.757   2.219 -0.1129 -0.3637  0.1069
 9318TIP3   OH227906   0.238   0.598   0.254 -0.2219  0.5959  0.1300
 9318TIP3    H127907   0.318   0.554   0.284 -0.5385  0.7961  1.2906
 9318TIP3    H227908   0.167   0.555   0.301 -0.6297  1.6404  0.4938
 9319TIP3   OH227909   2.537   1.395   0.379 -0.1682 -0.3672  0.3905
 9319TIP3    H127910   2.516   1.462   0.314  0.8800 -1.2271 -0.8738
 9319TIP3    H227911   2.583   1.442   0.448 -1.0942  0.5261  0.4131
 9320TIP3   OH227912   7.194   6.358   0.159 -0.4535 -0.1352  0.5956
 9320TIP3    H127913   7.134   6.417   0.113  1.3736  0.1765 -1.4378
 9320TIP3    H227914   7.232   6.413   0.228 -1.2914  0.0977  0.8856
 9321TIP3   OH227915   0.846   6.289   1.239  0.3107 -0.7828  0.2095
 9321TIP3    H127916   0.939   6.273   1.224  0.2472 -1.3140  0.3621
 9321TIP3    H227917   0.825   6.238   1.317  0.2714  0.6571  1.1632
 9322TIP3   OH227918   4.269   2.789   5.555 -0.8096  0.5745 -0.1605
 9322TIP3    H127919   4.240   2.867   5.602 -1.1328  0.1134  0.4015
 9322TIP3    H227920   4.257   2.717   5.616 -3.6387 -0.4142 -1.7726
 9323TIP3   OH227921   5.525   5.126   5.987  0.4276 -0.0790 -0.1116
 9323TIP3    H127922   5.535   5.171   5.904  0.5698 -1.0659 -0.6369
 9323TIP3    H227923   5.526   5.033   5.965 -2.7849 -0.3510  0.5979
 9324TIP3   OH227924   6.396   6.835   0.967 -0.2874  0.1853  0.4289
 9324TIP3    H127925   6.429   6.745   0.974 -1.9107 -0.3338  1.9088
 9324TIP3    H227926   6.319   6.828   0.911 -0.5283  0.6073  0.7015
 9325TIP3   OH227927   3.690   2.734   6.015 -0.4694 -0.3599  0.1025
 9325TIP3    H127928   3.628   2.806   6.017 -0.4442 -0.1821 -2.7895
 9325TIP3    H227929   3.648   2.664   6.066 -2.1722  0.4183 -0.2172
 9326TIP3   OH227930   3.677   2.323   6.079 -0.6903 -0.2863  0.6941
 9326TIP3    H127931   3.613   2.393   6.071 -2.9325 -2.2255  1.1192
 9326TIP3    H227932   3.741   2.340   6.010 -2.1426  1.1804 -0.3083
 9327TIP3   OH227933   5.192   3.978   5.458 -0.1562  0.5622  0.2131
 9327TIP3    H127934   5.202   4.066   5.492 -0.2110  0.9604 -0.7757
 9327TIP3    H227935   5.119   3.984   5.396  0.3384 -0.0002 -0.4358
 9328TIP3   OH227936   6.428   2.672   4.927  1.0481  0.1132  0.3911
 9328TIP3    H127937   6.391   2.747   4.881 -1.5465 -2.1093 -1.3066
 9328TIP3    H227938   6.499   2.641   4.872  0.1990 -0.4298 -0.4164
 9329TIP3   OH227939   6.546   7.177   0.273  0.0470  0.1530  0.3137
 9329TIP3    H127940   6.500   7.256   0.299  2.1831  1.0046  1.6241
 9329TIP3    H227941   6.638   7.203   0.268  0.5415 -1.7503 -1.2352
 9330TIP3   OH227942   5.239   6.179   6.442  0.4219  0.5214  0.1342
 9330TIP3    H127943   5.167   6.121   6.417 -0.9448  2.0202  0.4964
 9330TIP3    H227944   5.283   6.199   6.359 -0.9387  1.3510 -0.4032
 9331TIP3   OH227945   2.355   7.131   0.973  0.0705 -0.4690  0.4995
 9331TIP3    H127946   2.365   7.038   0.994  1.3619 -0.3358  0.4990
 9331TIP3    H227947   2.353   7.134   0.877 -2.1429 -0.7000  0.5051
 9332TIP3   OH227948   5.314   3.748   5.231 -0.3946  0.1930  0.1763
 9332TIP3    H127949   5.280   3.662   5.210  2.0486 -0.4608 -1.2210
 9332TIP3    H227950   5.270   3.807   5.170 -1.0853 -0.2365  0.2558
 9333TIP3   OH227951   1.324   0.352   0.074 -0.5304  0.0751  0.1614
 9333TIP3    H127952   1.238   0.386   0.096 -0.6852  0.5091 -1.0631
 9333TIP3    H227953   1.318   0.258   0.089 -1.8629 -0.2037 -1.8252
 9334TIP3   OH227954   4.189   4.288   4.114 -0.6308 -0.2937 -0.2961
 9334TIP3    H127955   4.208   4.210   4.062  0.3549  0.7863 -1.6030
 9334TIP3    H227956   4.273   4.335   4.117 -0.8344 -0.0239  1.7502
 9335TIP3   OH227957   3.960   5.957   6.188  0.1535 -0.6127 -0.1097
 9335TIP3    H127958   3.869   5.964   6.213 -0.2909  0.1218 -1.8453
 9335TIP3    H227959   3.989   6.047   6.174  0.7363 -0.9074 -0.9036
 9336TIP3   OH227960   0.335   6.263   2.058  0.0338  0.3870  0.3280
 9336TIP3    H127961   0.262   6.255   2.120 -0.7337 -0.3456 -0.6526
 9336TIP3    H227962   0.354   6.357   2.056  0.1232  0.4085  1.7389
 9337TIP3   OH227963   2.620   0.487   1.442  0.2274  0.3295  0.4546
 9337TIP3    H127964   2.615   0.392   1.451 -0.9576  0.2894 -0.5124
 9337TIP3    H227965   2.637   0.501   1.348 -4.5334  1.1935 -0.3779
 9338TIP3   OH227966   5.417   6.933   1.370 -0.1061  0.0461  0.3092
 9338TIP3    H127967   5.433   7.002   1.307  3.2813 -0.2218  0.7699
 9338TIP3    H227968   5.419   6.977   1.455 -0.2066 -0.2682  0.4746
 9339TIP3   OH227969   3.378   0.097   2.427 -0.1169  0.2513 -0.0769
 9339TIP3    H127970   3.429   0.175   2.406  1.7305 -0.7498  0.5840
 9339TIP3    H227971   3.287   0.128   2.429  0.4567  2.0965 -1.1065
 9340TIP3   OH227972   0.399   0.238   0.512  0.6059  0.0151 -0.3456
 9340TIP3    H127973   0.490   0.209   0.510  0.8467  0.7394 -0.2252
 9340TIP3    H227974   0.401   0.326   0.474 -0.4420 -0.9751 -2.8024
 9341TIP3   OH227975   7.617   5.020   2.764 -0.5605 -0.0081  0.1304
 9341TIP3    H127976   7.616   5.033   2.669  2.3028  1.5761  0.2903
 9341TIP3    H227977   7.526   5.036   2.791 -1.6077 -1.3647 -2.4107
 9342TIP3   OH227978   4.987   5.906   1.713  0.3523  0.4479 -0.1458
 9342TIP3    H127979   5.044   5.977   1.686  1.2342 -0.3825 -0.5012
 9342TIP3    H227980   4.902   5.948   1.728  1.0366  1.6731  0.3458
 9343TIP3   OH227981   1.173   1.470   1.176 -0.6331  0.2225 -0.2066
 9343TIP3    H127982   1.079   1.458   1.184 -0.3352 -2.8790 -0.6426
 9343TIP3    H227983   1.211   1.396   1.224  1.5832  1.5597  0.1864
 9344TIP3   OH227984   6.090   6.383   0.975  0.2947  0.5309  0.2331
 9344TIP3    H127985   6.076   6.363   1.068 -1.9432 -0.5378 -0.2988
 9344TIP3    H227986   6.117   6.300   0.936 -3.1097 -0.1470 -0.8527
 9345TIP3   OH227987   5.350   2.948   3.842 -0.0716  0.2761  0.2977
 9345TIP3    H127988   5.318   3.001   3.769  0.0905 -1.1460 -0.8350
 9345TIP3    H227989   5.363   3.010   3.913 -1.0321  1.5646 -0.6248
 9346TIP3   OH227990   1.488   7.188   0.751  0.2915  0.2509  0.4886
 9346TIP3    H127991   1.479   7.283   0.762 -0.4403  0.1160  1.1371
 9346TIP3    H227992   1.555   7.163   0.814  1.8876  0.6010 -1.0462
 9347TIP3   OH227993   5.410   2.646   5.945  0.0361  0.3324 -0.3616
 9347TIP3    H127994   5.402   2.720   5.885  1.4016 -1.0898 -2.3728
 9347TIP3    H227995   5.343   2.661   6.012 -0.1060  3.0402 -1.0701
 9348TIP3   OH227996   4.202   3.326   4.628  0.2240  0.3722 -0.0880
 9348TIP3    H127997   4.256   3.400   4.603  1.9731 -1.0110 -0.5557
 9348TIP3    H227998   4.186   3.279   4.547  0.6346 -0.7239  0.4516
 9349TIP3   OH227999   5.011   2.556   5.995  0.1602  0.3179  0.2493
 9349TIP3    H128000   4.922   2.524   5.977  0.4086  0.4034 -1.1983
 9349TIP3    H228001   5.062   2.528   5.918  1.1676  1.1177  0.6244
 9350TIP3   OH228002   6.767   2.810   5.553  0.9114 -0.1564 -0.0631
 9350TIP3    H128003   6.729   2.745   5.612 -0.0895 -0.0032 -0.5210
 9350TIP3    H228004   6.727   2.893   5.580  0.3307 -0.1062 -1.0351
 9351TIP3   OH228005   0.590   6.819   1.074  0.0789 -0.1523 -0.4174
 9351TIP3    H128006   0.549   6.880   1.013 -1.1467  1.1549  1.6443
 9351TIP3    H228007   0.672   6.793   1.032  0.9913  3.4982 -1.0047
 9352TIP3   OH228008   5.924   2.737   4.506  0.5972 -0.2144 -0.1966
 9352TIP3    H128009   5.897   2.802   4.441  0.6810 -0.5114 -0.5303
 9352TIP3    H228010   5.846   2.722   4.559  0.9839  1.2661  0.8300
 9353TIP3   OH228011   4.280   5.329   5.294 -0.3520 -0.9363  0.1303
 9353TIP3    H128012   4.335   5.255   5.318  0.0543 -0.7954 -0.3404
 9353TIP3    H228013   4.323   5.405   5.334 -0.4278 -0.8814  0.1079
 9354TIP3   OH228014   3.844   2.976   6.072 -0.1761 -0.4822  0.0555
 9354TIP3    H128015   3.769   2.918   6.060  0.6194 -1.3889 -0.5492
 9354TIP3    H228016   3.819   3.031   6.147 -2.5432  1.0066 -1.7538
 9355TIP3   OH228017   7.306   6.318   1.554 -0.0732 -0.5876 -0.0099
 9355TIP3    H128018   7.373   6.370   1.511  0.6798 -0.5197  1.1990
 9355TIP3    H228019   7.241   6.299   1.486 -0.6040  2.3252 -0.3630
 9356TIP3   OH228020   3.702   3.580   4.273 -0.0885 -0.6038  0.0930
 9356TIP3    H128021   3.761   3.512   4.239  0.2888  0.8257 -2.2660
 9356TIP3    H228022   3.748   3.615   4.349  2.6664  1.1303 -2.2509
 9357TIP3   OH228023   5.335   3.807   4.124  0.5048 -0.1227  0.6812
 9357TIP3    H128024   5.245   3.808   4.092  1.3637  2.0005 -1.8746
 9357TIP3    H228025   5.341   3.880   4.185  0.4309 -0.4670  1.1063
 9358TIP3   OH228026   7.465   4.090   0.248  0.7508 -0.6748 -0.1150
 9358TIP3    H128027   7.425   4.173   0.224  0.3763 -1.0890 -0.9265
 9358TIP3    H228028   7.413   4.023   0.203  0.5255 -1.4135  1.2013
 9359TIP3   OH228029   7.761   5.612   3.263 -0.3471 -0.6940  0.4402
 9359TIP3    H128030   7.832   5.608   3.199  0.1092 -0.2402  0.9136
 9359TIP3    H228031   7.681   5.613   3.210  0.0339 -0.0646 -0.1310
 9360TIP3   OH228032   5.416   6.343   0.541 -0.0908 -0.0737 -0.0551
 9360TIP3    H128033   5.388   6.400   0.612  0.9793 -1.2005  1.3069
 9360TIP3    H228034   5.429   6.258   0.582  0.4540 -0.7698 -1.6206
 9361TIP3   OH228035   5.947   0.350   0.397 -0.0195 -1.0921 -0.0677
 9361TIP3    H128036   6.025   0.350   0.452  1.4130  4.0797 -1.8202
 9361TIP3    H228037   5.972   0.299   0.320  0.7706 -1.4280  0.4100
 9362TIP3   OH228038   2.187   0.672   1.672  0.2312 -0.4687 -0.2132
 9362TIP3    H128039   2.259   0.609   1.659 -0.8334 -1.6798 -0.3108
 9362TIP3    H228040   2.126   0.626   1.730 -0.5033  0.5446 -0.1786
 9363TIP3   OH228041   7.636   0.192   1.462  0.0583 -0.3875  0.2406
 9363TIP3    H128042   7.601   0.114   1.506  0.1401 -0.6221 -0.1107
 9363TIP3    H228043   7.679   0.242   1.532 -0.3745 -0.4399  0.5490
 9364TIP3   OH228044   1.017   5.331   0.252  0.1753 -0.2892 -0.5412
 9364TIP3    H128045   1.043   5.320   0.344 -3.2701 -1.8995  0.3000
 9364TIP3    H228046   0.962   5.409   0.251  0.2797 -0.2197 -1.2776
 9365TIP3   OH228047   3.091   7.041   1.042  0.1568 -0.2221 -0.0842
 9365TIP3    H128048   3.103   6.957   1.086 -1.1067 -0.1894  0.3325
 9365TIP3    H228049   3.135   7.104   1.099  0.8768 -0.5594 -0.2633
 9366TIP3   OH228050   5.297   0.789   4.904  0.4712 -0.5260 -0.1282
 9366TIP3    H128051   5.209   0.815   4.879  0.2959 -1.1515 -0.1605
 9366TIP3    H228052   5.286   0.741   4.986  0.8530 -0.0623  0.2062
 9367TIP3   OH228053   5.976   4.171   4.259  0.4844  0.3465 -0.3078
 9367TIP3    H128054   5.900   4.227   4.243 -0.7389 -1.2208 -0.1001
 9367TIP3    H228055   5.976   4.109   4.187  1.0017 -0.2822  0.2296
 9368TIP3   OH228056   5.732   3.714   6.149  0.0653 -0.5583  0.5107
 9368TIP3    H128057   5.725   3.621   6.127  2.8290 -0.5188 -0.7422
 9368TIP3    H228058   5.749   3.758   6.065  0.3506  0.8880  1.3063
 9369TIP3   OH228059   5.667   3.395   6.088  0.5444  0.0027  0.2576
 9369TIP3    H128060   5.632   3.310   6.064  1.2410 -0.0766 -0.5116
 9369TIP3    H228061   5.664   3.446   6.007  1.1429  0.3498  0.4525
 9370TIP3   OH228062   0.223   3.675   4.317  0.1154 -0.5988 -0.3618
 9370TIP3    H128063   0.192   3.604   4.260  0.8197 -0.6120 -0.7371
 9370TIP3    H228064   0.318   3.662   4.322  0.0766 -0.5449  0.7459
 9371TIP3   OH228065   1.056   7.023   0.710  0.2098 -0.0053 -0.4399
 9371TIP3    H128066   1.039   7.076   0.788 -2.7098 -0.2176 -0.8535
 9371TIP3    H228067   1.013   7.071   0.639 -1.1543 -2.1212 -1.0845
 9372TIP3   OH228068   1.357   4.051   4.606  0.5042  0.9046  0.2486
 9372TIP3    H128069   1.380   3.972   4.654 -0.8837  0.3144 -0.0424
 9372TIP3    H228070   1.414   4.119   4.642  1.2498 -0.0826  0.9401
 9373TIP3   OH228071   5.155   3.084   5.922  0.4020 -0.2012  0.1399
 9373TIP3    H128072   5.062   3.081   5.900 -0.1893 -0.3564  2.5067
 9373TIP3    H228073   5.193   3.146   5.860 -1.1882 -0.4787 -1.1355
 9374TIP3   OH228074   4.865   0.716   0.246 -0.7739  0.2248 -0.2825
 9374TIP3    H128075   4.837   0.682   0.331  0.4223  0.5798  0.2565
 9374TIP3    H228076   4.951   0.754   0.262 -2.1115  3.7085 -0.8002
 9375TIP3   OH228077   5.500   1.963   4.415 -0.1532 -0.0281 -0.3044
 9375TIP3    H128078   5.488   1.932   4.325  0.8394 -0.9182 -0.1333
 9375TIP3    H228079   5.584   2.010   4.414  0.3328 -0.8731  0.3726
 9376TIP3   OH228080   6.415   0.835   0.652 -0.4789  0.4186 -0.4582
 9376TIP3    H128081   6.477   0.873   0.715  0.0291 -0.5321 -0.3605
 9376TIP3    H228082   6.458   0.754   0.623 -1.3913  0.0815 -0.8843
 9377TIP3   OH228083   7.451   1.720   6.266  0.0987 -0.6408 -0.2048
 9377TIP3    H128084   7.534   1.696   6.224  0.1932 -0.4051 -0.1558
 9377TIP3    H228085   7.385   1.705   6.198  0.2165 -0.5519 -0.3423
 9378TIP3   OH228086   2.167   1.802   4.822 -0.0877  0.0728  0.6075
 9378TIP3    H128087   2.128   1.804   4.909 -0.7832 -0.1061  0.2952
 9378TIP3    H228088   2.242   1.743   4.831 -0.8709 -0.9056  0.7780
 9379TIP3   OH228089   2.424   6.384   0.125 -0.3502  0.3393 -0.0560
 9379TIP3    H128090   2.471   6.459   0.162 -3.1112  2.5187 -0.8051
 9379TIP3    H228091   2.413   6.406   0.033  1.6129 -2.5119 -1.0290
 9380TIP3   OH228092   5.124   2.144   1.499 -0.1215  0.0503 -0.3221
 9380TIP3    H128093   5.103   2.077   1.563 -0.5081  2.3060  1.9811
 9380TIP3    H228094   5.040   2.183   1.476  0.1399  0.0618 -1.3065
 9381TIP3   OH228095   0.628   1.495   4.014 -0.2504 -0.0461 -0.9405
 9381TIP3    H128096   0.577   1.484   3.934 -0.9799 -0.4979 -0.4199
 9381TIP3    H228097   0.591   1.431   4.075 -0.1800  0.7906 -0.0111
 9382TIP3   OH228098   1.834   6.386   1.731 -0.3416  0.4823 -0.3517
 9382TIP3    H128099   1.770   6.344   1.788  0.9366 -0.9312  0.0591
 9382TIP3    H228100   1.817   6.480   1.741 -2.3294  0.1301 -0.2508
 9383TIP3   OH228101   7.122   2.186   5.434  0.1134 -0.6808 -0.6629
 9383TIP3    H128102   7.210   2.210   5.463 -0.1857  0.3265 -0.5734
 9383TIP3    H228103   7.134   2.156   5.344  0.2647  1.3956 -1.3545
 9384TIP3   OH228104   5.175   6.355   5.451 -0.0320 -0.4839  0.1579
 9384TIP3    H128105   5.201   6.305   5.528  0.0699  0.2389  0.5945
 9384TIP3    H228106   5.254   6.404   5.426  0.1285 -1.2094 -0.7987
 9385TIP3   OH228107   0.820   6.630   5.413 -0.0153  0.9750  0.3628
 9385TIP3    H128108   0.895   6.572   5.396  0.2231  0.8439  1.7573
 9385TIP3    H228109   0.856   6.699   5.469 -1.1763  0.2734  2.0224
 9386TIP3   OH228110   4.662   0.418   1.996  0.0207 -0.1331 -0.3243
 9386TIP3    H128111   4.594   0.438   1.931 -0.2146 -0.8194 -0.2954
 9386TIP3    H228112   4.743   0.447   1.956 -0.1059 -0.6761 -0.9937
 9387TIP3   OH228113   0.627   2.419   5.822  0.3241  0.7732  0.3494
 9387TIP3    H128114   0.620   2.325   5.835 -0.0584  0.9344  1.4328
 9387TIP3    H228115   0.665   2.451   5.904  0.0041  1.6140  0.1714
 9388TIP3   OH228116   3.064   0.932   0.193 -0.1116 -0.1277  0.1182
 9388TIP3    H128117   3.055   0.960   0.101 -0.2576 -2.2602 -0.5568
 9388TIP3    H228118   3.157   0.917   0.205 -0.1572 -0.4087  0.1342
 9389TIP3   OH228119   1.908   3.759   5.139 -0.2177 -0.4843 -0.1894
 9389TIP3    H128120   1.822   3.725   5.112 -0.0262 -1.3206  0.2162
 9389TIP3    H228121   1.891   3.806   5.221 -0.7116  1.5988 -1.4764
 9390TIP3   OH228122   6.627   1.197   0.393 -0.0664 -0.0154 -0.7811
 9390TIP3    H128123   6.565   1.136   0.432  0.2238  0.1781 -0.0048
 9390TIP3    H228124   6.575   1.276   0.375 -0.2492 -0.1822 -0.9790
 9391TIP3   OH228125   5.560   4.359   4.429  0.4270 -0.4284  0.1124
 9391TIP3    H128126   5.549   4.388   4.339 -1.1856 -1.9847 -0.2365
 9391TIP3    H228127   5.489   4.402   4.477  1.1126  0.1798  0.5843
 9392TIP3   OH228128   2.278   2.036   5.576 -0.1974  0.0607  0.1686
 9392TIP3    H128129   2.195   2.083   5.589  1.4386  2.4128  2.6626
 9392TIP3    H228130   2.311   2.022   5.664  1.8077 -1.3520 -0.7816
 9393TIP3   OH228131   1.745   7.106   0.858 -0.1867 -0.1840  0.1269
 9393TIP3    H128132   1.779   7.049   0.789  1.3630 -0.3611  1.0074
 9393TIP3    H228133   1.720   7.046   0.928 -0.2849  0.0991  0.3320
 9394TIP3   OH228134   7.643   2.669   3.942 -0.2008 -0.5316 -0.2192
 9394TIP3    H128135   7.736   2.664   3.963  0.2301  3.1889 -0.8700
 9394TIP3    H228136   7.640   2.656   3.847 -0.1226  1.1574 -0.4640
 9395TIP3   OH228137   6.172   2.554   4.957  0.0280 -0.0621 -0.0176
 9395TIP3    H128138   6.262   2.583   4.937  0.7683 -0.8122  2.0970
 9395TIP3    H228139   6.177   2.522   5.047 -1.6597 -3.0595 -0.9269
 9396TIP3   OH228140   7.537   4.688   5.963 -0.2560  0.4202 -0.6076
 9396TIP3    H128141   7.511   4.778   5.946 -1.2158  0.1884 -0.4458
 9396TIP3    H228142   7.485   4.636   5.901 -1.8698 -0.2278  1.2317
 9397TIP3   OH228143   1.784   2.377   3.754  0.2554  0.4624  0.4293
 9397TIP3    H128144   1.783   2.434   3.831  0.1503  0.8288  0.1633
 9397TIP3    H228145   1.698   2.390   3.714 -0.6407 -1.6073  1.5919
 9398TIP3   OH228146   6.630   4.705   5.747 -0.0951  0.0618  0.0477
 9398TIP3    H128147   6.668   4.780   5.701 -0.1301  0.6516  0.9660
 9398TIP3    H228148   6.547   4.688   5.703  0.6403 -0.4319 -1.1664
 9399TIP3   OH228149   4.290   0.062   0.691 -0.0659 -0.9544 -0.3565
 9399TIP3    H128150   4.283   0.021   0.778 -1.8249 -0.0712 -0.0576
 9399TIP3    H228151   4.305   0.155   0.709 -1.0326 -0.6693 -0.9891
 9400TIP3   OH228152   2.308   5.224   0.271  0.0606 -0.5086 -0.2428
 9400TIP3    H128153   2.329   5.135   0.245 -1.7307 -0.8422 -0.6408
 9400TIP3    H228154   2.261   5.261   0.196 -0.1275  0.4064  0.3151
 9401TIP3   OH228155   0.430   5.897   1.591  0.0271 -0.3859  0.2989
 9401TIP3    H128156   0.458   5.982   1.555 -0.9516 -1.2935 -2.7199
 9401TIP3    H228157   0.351   5.875   1.542 -1.1175 -1.9333  2.7530
 9402TIP3   OH228158   3.194   0.369   0.642  0.4210  0.1308  0.1497
 9402TIP3    H128159   3.153   0.408   0.564 -0.9329 -0.5545  0.5022
 9402TIP3    H228160   3.192   0.275   0.626  3.0367  0.1157 -0.3742
 9403TIP3   OH228161   6.978   4.489   5.245  0.4035  0.6812 -0.7106
 9403TIP3    H128162   6.972   4.561   5.182  1.6439  1.2038 -0.2493
 9403TIP3    H228163   6.970   4.531   5.330 -1.3402 -0.0354 -0.5157
 9404TIP3   OH228164   5.470   3.140   5.853 -0.2394  0.1214  0.4282
 9404TIP3    H128165   5.499   3.173   5.768 -0.0099  2.9536  1.5293
 9404TIP3    H228166   5.550   3.131   5.904 -0.4816 -0.4864  0.7080
 9405TIP3   OH228167   3.053   2.087   0.279 -0.2111  0.0476  0.3151
 9405TIP3    H128168   2.975   2.139   0.298 -0.1494  0.7677 -1.3440
 9405TIP3    H228169   3.120   2.122   0.337 -0.6196  0.6979  0.4033
 9406TIP3   OH228170   0.439   5.036   5.937 -0.1131 -0.4074 -0.3478
 9406TIP3    H128171   0.409   4.946   5.924  2.6258 -1.3498 -0.2982
 9406TIP3    H228172   0.373   5.074   5.995 -1.8497 -2.0506 -1.1888
 9407TIP3   OH228173   4.650   0.187   0.233  0.0913 -0.1941  0.1657
 9407TIP3    H128174   4.722   0.216   0.177 -1.0395  1.6682 -0.3601
 9407TIP3    H228175   4.577   0.245   0.211 -1.1610 -1.1443  1.6904
 9408TIP3   OH228176   0.837   6.425   0.255 -0.1017 -0.7291  0.3046
 9408TIP3    H128177   0.912   6.366   0.241 -0.7474 -1.4221 -0.2353
 9408TIP3    H228178   0.798   6.394   0.337 -2.1182 -2.8720 -1.4076
 9409TIP3   OH228179   2.520   1.296   0.771  0.0177 -0.5492 -0.3501
 9409TIP3    H128180   2.605   1.253   0.765 -0.4891 -1.4385 -1.3407
 9409TIP3    H228181   2.510   1.342   0.688 -0.1591  0.1655  0.0565
 9410TIP3   OH228182   2.919   3.433   5.969  0.0265  0.0455 -0.1464
 9410TIP3    H128183   2.881   3.440   5.881  0.5808 -0.0281 -0.3946
 9410TIP3    H228184   2.988   3.500   5.971  0.1726 -0.1130  0.1536
 9411TIP3   OH228185   5.458   5.260   5.212  0.3312 -0.4173  0.3241
 9411TIP3    H128186   5.526   5.318   5.247  1.4545 -1.1752 -0.5648
 9411TIP3    H228187   5.479   5.174   5.248 -1.1206 -0.3423  1.3483
 9412TIP3   OH228188   5.684   3.199   4.463  0.2267  0.5236  0.0091
 9412TIP3    H128189   5.675   3.281   4.414 -0.0602  1.8147  2.1606
 9412TIP3    H228190   5.594   3.178   4.490  0.4267  0.0059  0.2727
 9413TIP3   OH228191   7.628   4.170   3.431  0.3691 -0.0276  0.1527
 9413TIP3    H128192   7.684   4.146   3.505  1.2281  1.0637 -0.1228
 9413TIP3    H228193   7.591   4.255   3.455 -0.6866 -0.4557  0.0594
 9414TIP3   OH228194   0.265   5.390   4.400  0.3585  0.5920 -0.5190
 9414TIP3    H128195   0.218   5.354   4.475 -1.2928  1.8342 -0.9354
 9414TIP3    H228196   0.358   5.378   4.422 -0.1197 -0.3812  1.0506
 9415TIP3   OH228197   4.098   7.113   1.118  0.5830  0.0324 -0.0671
 9415TIP3    H128198   4.084   7.207   1.117  1.0244  0.1223  1.3453
 9415TIP3    H228199   4.031   7.078   1.059  0.3492  1.2106 -0.5169
 9416TIP3   OH228200   0.827   6.988   1.779 -0.0761  0.6108  0.0125
 9416TIP3    H128201   0.826   6.987   1.875 -1.4078  0.0584  0.0007
 9416TIP3    H228202   0.868   6.905   1.754 -0.5550  0.3451  0.1022
 9417TIP3   OH228203   5.531   4.140   5.000  0.1917 -0.5536 -0.1846
 9417TIP3    H128204   5.512   4.126   5.093  2.4195 -1.2817  0.1996
 9417TIP3    H228205   5.523   4.234   4.987 -0.2498 -0.4625  0.7125
 9418TIP3   OH228206   7.416   0.299   5.621  0.2179 -0.3090  0.0732
 9418TIP3    H128207   7.353   0.228   5.631  0.1294 -0.7293 -2.9383
 9418TIP3    H228208   7.490   0.259   5.574  1.4750  0.8664  1.0222
 9419TIP3   OH228209   5.084   4.787   5.698  0.2489 -0.2997  0.3471
 9419TIP3    H128210   5.090   4.882   5.689 -0.3903  0.0224  2.8812
 9419TIP3    H228211   5.173   4.760   5.724  0.8177 -0.6019 -1.8526
 9420TIP3   OH228212   4.869   0.328   0.485 -0.2192  0.2908 -0.1189
 9420TIP3    H128213   4.818   0.286   0.416 -0.5854  0.1542  0.2344
 9420TIP3    H228214   4.890   0.257   0.546  0.0056  0.4307 -0.0327
 9421TIP3   OH228215   4.761   3.143   3.649  0.0113  0.4201 -0.1234
 9421TIP3    H128216   4.804   3.148   3.734  0.3988 -0.5673 -0.2581
 9421TIP3    H228217   4.831   3.123   3.588 -0.1801  1.6457 -0.7644
 9422TIP3   OH228218   5.778   1.491   6.364  0.8266  0.4487 -0.5328
 9422TIP3    H128219   5.710   1.520   6.425  0.8167  1.0494 -0.8280
 9422TIP3    H228220   5.730   1.453   6.291  0.7789  1.7033 -1.1628
 9423TIP3   OH228221   6.738   4.881   4.716 -0.0789 -0.4335  1.1247
 9423TIP3    H128222   6.760   4.798   4.758  0.3661 -1.9193 -1.8924
 9423TIP3    H228223   6.645   4.874   4.696 -0.1188 -0.0690  1.1782
 9424TIP3   OH228224   5.549   3.746   6.356 -0.2061 -0.1474  0.0327
 9424TIP3    H128225   5.462   3.743   6.316 -0.9298 -1.0326  1.5989
 9424TIP3    H228226   5.608   3.709   6.290 -1.5385 -2.5869  0.1459
 9425TIP3   OH228227   2.990   1.146   1.035  0.3678  0.0786 -0.1856
 9425TIP3    H128228   3.039   1.197   1.099  0.9927 -1.4701  0.6133
 9425TIP3    H228229   3.058   1.106   0.980 -0.0678 -0.5729 -0.2545
 9426TIP3   OH228230   2.182   4.410   6.399  0.0485 -0.1199  0.1417
 9426TIP3    H128231   2.227   4.483   6.441 -0.3120 -0.1764  0.6257
 9426TIP3    H228232   2.249   4.369   6.343  0.2356  0.6039 -0.1661
 9427TIP3   OH228233   7.588   3.309   5.830 -0.0738 -0.6030 -0.1379
 9427TIP3    H128234   7.546   3.226   5.851  0.3446 -0.9616 -0.7009
 9427TIP3    H228235   7.585   3.314   5.734 -1.4207  0.7179 -0.0584
 9428TIP3   OH228236   1.699   6.027   0.095 -0.3251  0.7176  0.0068
 9428TIP3    H128237   1.748   6.089   0.041  1.0338 -0.7793 -0.5194
 9428TIP3    H228238   1.719   5.941   0.057 -1.3350 -0.1389  1.3647
 9429TIP3   OH228239   4.421   2.844   4.859  0.0929  0.6501 -0.3193
 9429TIP3    H128240   4.499   2.811   4.903 -1.7374 -0.8670  1.8491
 9429TIP3    H228241   4.421   2.800   4.774  0.3568 -1.1012  0.5821
 9430TIP3   OH228242   5.588   2.731   4.863  0.4833  1.1027 -0.0226
 9430TIP3    H128243   5.602   2.647   4.908 -0.6659 -0.1949 -1.9894
 9430TIP3    H228244   5.581   2.795   4.933 -0.1710 -0.6976  1.6141
 9431TIP3   OH228245   5.146   5.367   5.199 -0.0122 -0.2210 -0.0429
 9431TIP3    H128246   5.069   5.338   5.248 -0.3433 -0.2942 -0.6108
 9431TIP3    H228247   5.215   5.305   5.224  0.8690  1.9643  3.2971
 9432TIP3   OH228248   5.474   3.987   4.316  0.6834  0.0406 -0.6182
 9432TIP3    H128249   5.453   4.018   4.404 -2.7137  1.0429 -1.6906
 9432TIP3    H228250   5.498   4.067   4.268  0.3117 -0.1828 -1.1784
 9433TIP3   OH228251   6.278   3.865   4.556 -0.1636  0.0693  0.1871
 9433TIP3    H128252   6.371   3.843   4.541 -0.3305  1.0536 -2.4061
 9433TIP3    H228253   6.275   3.892   4.648  1.7548 -1.7916  0.8599
 9434TIP3   OH228254   3.790   6.066   0.151 -0.2918 -0.0975  0.1900
 9434TIP3    H128255   3.763   6.154   0.124  0.9799  0.2160 -0.1103
 9434TIP3    H228256   3.774   6.011   0.074  0.7443  0.2595 -0.2893
 9435TIP3   OH228257   6.606   2.391   5.505  0.2266  0.1881  0.1374
 9435TIP3    H128258   6.639   2.304   5.529 -0.7066  0.1212  1.1773
 9435TIP3    H228259   6.556   2.420   5.581 -2.6516  0.0430 -1.6373
 9436TIP3   OH228260   0.389   4.148   5.779 -0.0953  0.4775  0.0384
 9436TIP3    H128261   0.299   4.120   5.761  0.3094 -0.8024 -0.0965
 9436TIP3    H228262   0.382   4.210   5.850 -0.8837 -1.4741  1.7126
 9437TIP3   OH228263   4.730   0.026   0.505  0.2919  0.0017 -0.0983
 9437TIP3    H128264   4.794  -0.033   0.465  1.0060  0.9009 -0.2921
 9437TIP3    H228265   4.680   0.061   0.431  1.3071  1.3077 -0.1758
 9438TIP3   OH228266   5.121   0.824   0.220 -0.1243 -0.1831  0.2146
 9438TIP3    H128267   5.127   0.855   0.130 -0.0391 -0.3919  0.1467
 9438TIP3    H228268   5.204   0.850   0.260  0.3215 -1.0989 -0.0930
 9439TIP3   OH228269   6.503   4.477   4.304 -0.7234  0.1973  0.4568
 9439TIP3    H128270   6.462   4.391   4.305  1.4928 -0.9515 -2.6152
 9439TIP3    H228271   6.431   4.537   4.281 -1.7393 -1.1588  0.0367
 9440TIP3   OH228272   1.648   6.507   0.081  0.3505  0.0864  0.3580
 9440TIP3    H128273   1.638   6.485   0.173  0.5886  0.5864  0.5087
 9440TIP3    H228274   1.629   6.426   0.034  1.8217 -0.6175  0.9217
 9441TIP3   OH228275   6.566   3.506   5.794  0.5020  0.3166 -0.5759
 9441TIP3    H128276   6.582   3.450   5.719  1.1220 -0.0287 -0.1903
 9441TIP3    H228277   6.588   3.452   5.870 -0.8608  0.4018 -0.1026
 9442TIP3   OH228278   0.453   4.879   2.829  0.6916  0.8616  0.1648
 9442TIP3    H128279   0.465   4.933   2.751 -0.1806  1.7825  0.6556
 9442TIP3    H228280   0.525   4.905   2.887  1.3655  0.1438 -0.3495
 9443TIP3   OH228281   0.262   4.759   6.349  0.3222 -0.4982 -0.3261
 9443TIP3    H128282   0.330   4.736   6.412  0.4737 -1.5853 -0.8760
 9443TIP3    H228283   0.251   4.854   6.359  1.1494 -0.4837  0.5169
 9444TIP3   OH228284   6.629   1.724   6.099  0.4175  0.4943  0.6347
 9444TIP3    H128285   6.618   1.637   6.137 -0.4863  0.3460  0.0525
 9444TIP3    H228286   6.632   1.783   6.175  0.8599 -0.0179  1.0239
 9445TIP3   OH228287   1.799   6.778   0.839 -0.3861 -0.1826  0.7531
 9445TIP3    H128288   1.714   6.752   0.805 -0.3731  1.2371 -0.4148
 9445TIP3    H228289   1.828   6.848   0.781  0.3984  1.1499  2.6812
 9446TIP3   OH228290   1.294   6.583   0.788 -0.1856 -0.1123 -0.2390
 9446TIP3    H128291   1.243   6.642   0.734  0.9033  2.6744  1.6766
 9446TIP3    H228292   1.253   6.497   0.776 -2.6776  1.2885 -1.9742
 9447TIP3   OH228293   1.370   6.940   0.716  0.1953 -0.8653  0.8479
 9447TIP3    H128294   1.278   6.948   0.741 -0.1881 -0.2615 -0.6773
 9447TIP3    H228295   1.403   7.030   0.718 -0.1120 -0.6677 -1.7191
 9448TIP3   OH228296   5.369   1.184   0.478  0.0265  0.4844  0.1971
 9448TIP3    H128297   5.442   1.180   0.539  0.8463  1.0113 -0.7496
 9448TIP3    H228298   5.407   1.212   0.395 -1.1499  0.2057 -0.4551
 9449TIP3   OH228299   7.692   4.013   6.309  0.0670  0.7179 -0.2415
 9449TIP3    H128300   7.757   4.037   6.243  1.7446  1.1617  1.5471
 9449TIP3    H228301   7.697   3.917   6.313  0.4528  0.7347 -0.2615
 9450TIP3   OH228302   4.416   1.181   1.298 -0.0479 -0.6058 -0.1899
 9450TIP3    H128303   4.340   1.240   1.299 -2.0542 -3.0685 -0.3738
 9450TIP3    H228304   4.463   1.202   1.218 -0.9712  0.4415 -0.4614
 9451TIP3   OH228305   4.625   2.280   1.032 -0.8832 -0.0151 -0.0890
 9451TIP3    H128306   4.570   2.344   0.987 -0.5918 -0.9820 -1.9054
 9451TIP3    H228307   4.564   2.224   1.080 -1.1778  1.2541  1.0466
 9452TIP3   OH228308   0.460   3.189   4.411 -0.3268  0.4794 -0.2090
 9452TIP3    H128309   0.384   3.136   4.385 -0.1607 -0.1291  0.5286
 9452TIP3    H228310   0.423   3.255   4.469 -0.1662 -0.4081  0.9294
 9453TIP3   OH228311   6.517   4.100   5.458  0.1455  0.2418  0.0541
 9453TIP3    H128312   6.520   4.012   5.421  0.8037  0.1261  0.3702
 9453TIP3    H228313   6.479   4.088   5.545  1.5393  0.0728  0.6438
 9454TIP3   OH228314   5.790   1.107   0.488 -0.0585 -0.0077  0.7804
 9454TIP3    H128315   5.794   1.160   0.409 -0.0914 -2.0119 -0.6001
 9454TIP3    H228316   5.790   1.017   0.457 -0.3174 -0.8364  3.0602
 9455TIP3   OH228317   6.259   5.240   5.783 -0.2425  0.1370  0.1972
 9455TIP3    H128318   6.195   5.247   5.854  0.7588 -1.8182  1.3253
 9455TIP3    H228319   6.321   5.312   5.799 -0.7934  0.5536  0.4763
 9456TIP3   OH228320   6.710   4.377   6.118  0.0410 -0.0851 -0.0652
 9456TIP3    H128321   6.768   4.440   6.161 -0.7979  1.5756 -1.3194
 9456TIP3    H228322   6.720   4.395   6.024 -0.4813 -1.5899 -0.4279
 9457TIP3   OH228323   5.378   5.565   5.552 -0.3466  0.4652  0.1964
 9457TIP3    H128324   5.454   5.616   5.524  0.0205 -0.5931 -0.7543
 9457TIP3    H228325   5.310   5.587   5.488  0.0953 -0.9331 -0.7835
 9458TIP3   OH228326   5.475   0.821   0.697  0.1476 -0.3886  0.5224
 9458TIP3    H128327   5.399   0.777   0.659 -0.0586 -0.1584  0.6634
 9458TIP3    H228328   5.549   0.765   0.676 -0.4865 -2.3985  3.2955
 9459TIP3   OH228329   6.622   3.295   5.988  0.0248  0.1303  0.0332
 9459TIP3    H128330   6.709   3.265   6.015  0.7878  0.3032 -2.1356
 9459TIP3    H228331   6.575   3.214   5.965  0.1949  0.1592 -0.4259
 9460TIP3   OH228332   6.341   3.090   5.933  0.3617 -0.3754 -0.4609
 9460TIP3    H128333   6.382   3.003   5.933  0.7477 -0.1937 -0.5066
 9460TIP3    H228334   6.319   3.106   6.024  2.8374  0.6756 -0.0105
 9461TIP3   OH228335   6.807   4.223   4.029 -0.4384  0.5994  0.2679
 9461TIP3    H128336   6.898   4.196   4.037 -0.0945  0.7380 -2.9340
 9461TIP3    H228337   6.759   4.161   4.084  1.2343 -1.4536 -0.5319
 9462TIP3   OH228338   1.038   3.691   6.331 -0.0837  0.1794  0.2171
 9462TIP3    H128339   1.108   3.750   6.360 -0.6185  0.9014  0.0582
 9462TIP3    H228340   1.034   3.704   6.237 -1.0377  0.8300  0.3330
 9463TIP3   OH228341   1.768   4.502   2.456  0.4037  0.5139 -0.5343
 9463TIP3    H128342   1.852   4.460   2.476 -0.1178 -0.2347  0.0716
 9463TIP3    H228343   1.711   4.480   2.529 -0.4635  0.6478 -1.1542
 9464TIP3   OH228344   1.975   5.924   1.894 -0.0811  0.1746  0.4234
 9464TIP3    H128345   1.893   5.927   1.845 -0.1204  0.4773  0.5017
 9464TIP3    H228346   1.957   5.976   1.973 -0.7158 -2.1100  1.8147
 9465TIP3   OH228347   3.064   7.049   0.747 -0.0507  0.0560  0.4795
 9465TIP3    H128348   2.970   7.058   0.761  0.3678  1.4430  2.6132
 9465TIP3    H228349   3.101   7.037   0.834  1.5887 -2.4361 -0.4800
 9466TIP3   OH228350   4.576   5.334   6.149  0.1116  0.1115  0.5638
 9466TIP3    H128351   4.557   5.422   6.182 -0.0273  0.8720 -1.4809
 9466TIP3    H228352   4.494   5.303   6.111  0.4795 -0.4034  0.1683
 9467TIP3   OH228353   6.400   4.884   5.920  0.7304  0.3558 -0.0186
 9467TIP3    H128354   6.377   4.962   5.972  0.8627 -0.6653  1.6159
 9467TIP3    H228355   6.356   4.897   5.836 -2.0873  0.6029  1.4437
 9468TIP3   OH228356   2.300   0.386   0.160  0.0580 -0.7327 -0.4306
 9468TIP3    H128357   2.206   0.408   0.163  0.3647  0.4781  0.8120
 9468TIP3    H228358   2.344   0.469   0.174  1.2882 -1.7628  2.0343
 9469TIP3   OH228359   4.399   4.876   5.196 -0.0389  0.2792  1.0858
 9469TIP3    H128360   4.329   4.823   5.232  0.8136  0.4324  2.9997
 9469TIP3    H228361   4.428   4.828   5.119 -2.6848  0.5613 -0.1535
 9470TIP3   OH228362   1.742   6.341   0.635  0.3651 -0.8297 -0.3197
 9470TIP3    H128363   1.729   6.431   0.604 -1.7579 -1.1973 -0.6037
 9470TIP3    H228364   1.742   6.348   0.730 -0.8687 -0.6449 -0.3238
 9471TIP3   OH228365   3.559   6.821   1.954  0.5240 -0.1354  0.5086
 9471TIP3    H128366   3.635   6.781   1.911 -0.4106 -0.4440 -0.8735
 9471TIP3    H228367   3.489   6.756   1.946  0.2028 -0.0172  2.1196
 9472TIP3   OH228368   1.361   6.241   0.230 -0.4152  0.1185  0.1987
 9472TIP3    H128369   1.387   6.276   0.145 -0.4821  0.1288  0.1818
 9472TIP3    H228370   1.418   6.285   0.293 -0.1685 -0.1036  0.1313
 9473TIP3   OH228371   5.669   2.805   5.282 -0.4687  0.1723 -0.0620
 9473TIP3    H128372   5.612   2.780   5.355 -1.3357  0.7169 -0.5538
 9473TIP3    H228373   5.757   2.807   5.320 -0.7082 -1.1081  0.5993
 9474TIP3   OH228374   5.235   4.159   4.143 -0.0092 -0.2900  0.4303
 9474TIP3    H128375   5.326   4.180   4.126  0.1072 -0.0726  1.3035
 9474TIP3    H228376   5.189   4.182   4.062  0.8787 -1.5456 -0.4434
 9475TIP3   OH228377   0.381   7.246   1.609  0.6159 -0.2237  0.0273
 9475TIP3    H128378   0.421   7.330   1.585 -0.4240  0.2605 -0.0326
 9475TIP3    H228379   0.421   7.183   1.549 -0.0569  0.5509 -1.2543
 9476TIP3   OH228380   5.733   4.600   5.620  0.1624  0.0417  0.8697
 9476TIP3    H128381   5.788   4.554   5.558 -1.4364  0.4502 -0.9016
 9476TIP3    H228382   5.667   4.536   5.647 -0.5498  0.5347  0.3314
 9477TIP3   OH228383   4.701   2.541   6.361 -0.3873  0.2118 -0.2534
 9477TIP3    H128384   4.660   2.597   6.295 -0.1743 -1.2944 -1.6997
 9477TIP3    H228385   4.661   2.569   6.444  0.0681  2.7975 -0.8625
 9478TIP3   OH228386   6.512   2.987   6.174 -0.2428 -0.3854 -0.0044
 9478TIP3    H128387   6.580   2.937   6.218  0.2692  0.0952 -0.2399
 9478TIP3    H228388   6.510   2.952   6.085  1.4858  1.3219 -0.7507
 9479TIP3   OH228389   0.321   3.856   5.201  0.2402 -0.5907 -0.2421
 9479TIP3    H128390   0.240   3.822   5.163  0.1716 -1.5216  0.7307
 9479TIP3    H228391   0.292   3.911   5.274  0.4535 -0.0948 -0.5200
 9480TIP3   OH228392   5.585   2.802   5.530 -0.0536 -0.0442  0.4345
 9480TIP3    H128393   5.518   2.870   5.545  1.1560  1.1535  0.4622
 9480TIP3    H228394   5.660   2.831   5.582  0.2439 -1.7660  0.9722
 9481TIP3   OH228395   6.097   3.332   6.083  0.2695  0.3784  0.2747
 9481TIP3    H128396   6.031   3.317   6.015  0.0049 -2.2392  1.0201
 9481TIP3    H228397   6.142   3.412   6.057 -0.9859  0.3608 -2.0434
 9482TIP3   OH228398   0.284   4.356   5.948 -0.1012  0.8147 -0.4219
 9482TIP3    H128399   0.201   4.310   5.932 -0.2950  0.7344  0.7472
 9482TIP3    H228400   0.298   4.347   6.043  2.0709 -0.5729 -0.8462
 9483TIP3   OH228401   6.369   1.618   5.123 -0.1069 -0.1354  0.0413
 9483TIP3    H128402   6.345   1.711   5.129  0.8958  0.0632  1.5752
 9483TIP3    H228403   6.292   1.571   5.154 -0.8243  0.1535 -1.2917
 9484TIP3   OH228404   5.227   3.628   4.830  0.5371 -0.0681  0.1555
 9484TIP3    H128405   5.270   3.698   4.880  2.1888 -2.6206  2.4356
 9484TIP3    H228406   5.297   3.593   4.774 -0.5341  0.7085 -1.7119
 9485TIP3   OH228407   6.708   6.550   0.004 -0.0332 -0.3999 -0.2870
 9485TIP3    H128408   6.789   6.571   0.052 -0.3241 -3.2132  1.5738
 9485TIP3    H228409   6.662   6.634  -0.002  1.5438  0.6540  1.4886
 9486TIP3   OH228410   5.787   4.736   6.049 -0.4153  0.0320  0.1486
 9486TIP3    H128411   5.707   4.731   5.996 -0.2279 -0.6313 -0.0747
 9486TIP3    H228412   5.835   4.811   6.012  0.6162 -1.5758 -1.9149
 9487TIP3   OH228413   5.516   4.987   5.267 -0.0029 -0.3827 -0.1782
 9487TIP3    H128414   5.423   4.967   5.270 -0.2209  0.6995  0.4242
 9487TIP3    H228415   5.547   4.974   5.356  0.0962  0.7638 -0.0370
 9488TIP3   OH228416   2.325   6.691   1.370  0.0518 -0.2502  0.3296
 9488TIP3    H128417   2.276   6.687   1.453 -1.2199 -0.3374 -0.4077
 9488TIP3    H228418   2.285   6.764   1.322  0.0909 -0.8478 -0.6230
 9489TIP3   OH228419   5.837   4.862   4.139  0.0722  0.2945  0.1229
 9489TIP3    H128420   5.760   4.852   4.195  0.0883 -0.3085  0.0425
 9489TIP3    H228421   5.805   4.910   4.062  0.3281  2.2385  1.2023
 9490TIP3   OH228422   2.358   6.657   2.194  0.0923 -0.8039 -0.2317
 9490TIP3    H128423   2.444   6.615   2.193  0.8047  0.5028  2.8181
 9490TIP3    H228424   2.377   6.750   2.205 -1.7507 -0.5674  1.0824
 9491TIP3   OH228425   6.072   3.911   4.786  0.2915 -0.2916  0.0817
 9491TIP3    H128426   6.035   3.964   4.716 -0.9846  0.4482  1.2942
 9491TIP3    H228427   6.092   3.975   4.855  0.7388 -1.1226  0.7225
 9492TIP3   OH228428   5.992   2.213   0.882 -0.5934 -0.5183  0.0614
 9492TIP3    H128429   5.983   2.251   0.795  0.2525  0.5117  0.4222
 9492TIP3    H228430   6.080   2.175   0.883 -0.5476 -0.4018  0.5168
 9493TIP3   OH228431   6.720   7.309   0.818 -0.1320  0.2166 -0.6069
 9493TIP3    H128432   6.725   7.233   0.876  0.3717  0.2254 -0.6381
 9493TIP3    H228433   6.673   7.278   0.741 -2.4938  0.7078  0.6149
 9494TIP3   OH228434   1.174   7.266   0.248  0.0972 -0.4782  0.3191
 9494TIP3    H128435   1.246   7.268   0.185  0.7303 -1.7468  0.9782
 9494TIP3    H228436   1.182   7.181   0.291 -1.6436 -0.5221  0.5946
 9495TIP3   OH228437   2.846   7.111   0.903 -0.1422  0.6488  0.2646
 9495TIP3    H128438   2.933   7.148   0.920 -0.2276  0.9340  0.0887
 9495TIP3    H228439   2.785   7.180   0.930 -0.2869  0.9313 -0.7535
 9496TIP3   OH228440   4.879   5.239   5.265  0.3246  0.1423 -0.3713
 9496TIP3    H128441   4.906   5.151   5.293  1.1818  0.5467  0.0819
 9496TIP3    H228442   4.859   5.284   5.346  2.7773  1.3080 -0.3604
 9497TIP3   OH228443   0.489   7.153   0.071 -0.5318 -0.0008  0.0657
 9497TIP3    H128444   0.406   7.121   0.036 -0.3953  0.8806 -1.0888
 9497TIP3    H228445   0.548   7.153  -0.004  0.7557 -1.4069  1.0513
 9498TIP3   OH228446   0.287   3.730   4.862 -0.3257  0.1738 -0.5603
 9498TIP3    H128447   0.347   3.774   4.803  0.8102  1.1727  1.2925
 9498TIP3    H228448   0.213   3.790   4.870 -0.0228  0.5032 -0.1945
 9499TIP3   OH228449   1.428   6.597   1.263  0.6338 -0.0638  0.3145
 9499TIP3    H128450   1.488   6.631   1.196 -1.6385 -0.5641 -2.0523
 9499TIP3    H228451   1.483   6.543   1.319  2.3911 -0.5880 -1.8413
 9500TIP3   OH228452   0.205   3.357   4.231  0.2617 -0.4432 -0.2313
 9500TIP3    H128453   0.210   3.302   4.309 -1.2316  0.2994  0.4089
 9500TIP3    H228454   0.220   3.296   4.158 -0.5131 -1.5454  0.5169
 9501TIP3   OH228455   7.312   5.968   1.122 -0.0924  0.2322  0.2412
 9501TIP3    H128456   7.364   5.918   1.185 -0.4859 -1.2812 -0.6076
 9501TIP3    H228457   7.221   5.957   1.152 -0.2333 -0.0774 -0.2938
 9502TIP3   OH228458   6.963   1.586   5.984 -0.1376 -0.1203  0.0270
 9502TIP3    H128459   6.938   1.506   6.030  0.8223 -1.0283 -1.0028
 9502TIP3    H228460   7.029   1.627   6.040  0.6966 -0.9873 -0.3075
 9503TIP3   OH228461   0.874   4.999   6.081  0.3338  0.5578 -0.5250
 9503TIP3    H128462   0.956   4.980   6.127  0.5515 -1.7926 -1.8123
 9503TIP3    H228463   0.808   4.951   6.131  0.3341 -0.7083 -1.7250
 9504TIP3   OH228464   5.903   0.015   1.194 -0.3282  0.3427  0.3336
 9504TIP3    H128465   5.966   0.076   1.155 -1.1457  0.7346 -0.4085
 9504TIP3    H228466   5.835   0.072   1.231 -1.1388 -0.1123 -0.4327
 9505TIP3   OH228467   0.023   3.458   6.074  0.7300  0.1349  0.0324
 9505TIP3    H128468  -0.016   3.380   6.035  0.3850  0.8090 -1.0008
 9505TIP3    H228469   0.020   3.442   6.168 -0.8462 -0.3865 -0.0860
 9506TIP3   OH228470   4.994   1.356   1.045 -1.0022 -0.3048 -0.2254
 9506TIP3    H128471   4.956   1.429   1.093 -0.1175 -0.5973  0.9337
 9506TIP3    H228472   5.085   1.382   1.030 -0.9515 -0.7418 -0.6805
 9507TIP3   OH228473   4.728   0.326   2.232  0.1604 -0.1788 -0.3134
 9507TIP3    H128474   4.720   0.346   2.139 -0.1196  0.4673 -0.1487
 9507TIP3    H228475   4.810   0.277   2.239  0.3856  0.1248 -0.8397
 9508TIP3   OH228476   3.706   0.254   1.161  0.0349 -0.5508  0.6054
 9508TIP3    H128477   3.681   0.260   1.253 -0.4858 -1.6431  0.5416
 9508TIP3    H228478   3.792   0.212   1.161 -0.7420 -2.1910  0.5140
 9509TIP3   OH228479  -0.003   1.435   4.481 -0.5322 -0.3196  0.5052
 9509TIP3    H128480   0.066   1.490   4.517 -2.3877  1.8851  0.7948
 9509TIP3    H228481  -0.028   1.378   4.554  1.2802 -1.4682  0.2553
 9510TIP3   OH228482   7.723   6.898   0.666 -0.2045  0.5978 -0.0219
 9510TIP3    H128483   7.706   6.992   0.670  1.6031  1.0187 -1.3709
 9510TIP3    H228484   7.700   6.873   0.576 -2.0637 -0.5662  0.7357
 9511TIP3   OH228485   2.695   1.470   0.594 -0.6288 -0.5077  0.0388
 9511TIP3    H128486   2.778   1.421   0.591 -0.4421 -0.2167  0.4344
 9511TIP3    H228487   2.710   1.538   0.659 -0.4310  0.9418 -1.4913
 9512TIP3   OH228488   2.288   0.655   1.175 -0.1895 -0.2987 -0.5980
 9512TIP3    H128489   2.280   0.697   1.261  3.1662 -2.4489  0.8755
 9512TIP3    H228490   2.200   0.626   1.153 -0.8697 -0.9905  2.8165
 9513TIP3   OH228491   5.621   4.062   4.760 -0.3911 -0.2229 -0.1768
 9513TIP3    H128492   5.663   4.124   4.700 -0.9351 -0.0086 -0.3400
 9513TIP3    H228493   5.584   4.117   4.829 -0.0660 -0.4441  0.1720
 9514TIP3   OH228494   0.078   4.406   5.152 -0.0512 -0.1803 -0.2516
 9514TIP3    H128495   0.174   4.401   5.160  0.1691  3.1400  0.0568
 9514TIP3    H228496   0.064   4.444   5.065 -0.9829  1.4597  0.5918
 9515TIP3   OH228497   4.194   5.486   5.073 -0.1995  0.1834  0.1231
 9515TIP3    H128498   4.111   5.499   5.119 -0.0045  0.5118  0.3865
 9515TIP3    H228499   4.246   5.431   5.133 -0.2372 -0.0511 -0.0565
 9516TIP3   OH228500   6.162   4.726   5.635 -0.0229  0.0539 -0.2232
 9516TIP3    H128501   6.184   4.817   5.616  0.9631  0.0147  0.7087
 9516TIP3    H228502   6.145   4.725   5.729 -0.9437 -0.5512 -0.3823
 9517TIP3   OH228503   0.828   5.641   4.497  0.4419 -0.2960  0.5217
 9517TIP3    H128504   0.737   5.642   4.467  0.4003 -0.6614  0.6265
 9517TIP3    H228505   0.847   5.731   4.521  0.5713  0.0771 -0.9072
 9518TIP3   OH228506   1.069   6.208   1.398 -0.2703 -0.0793 -0.0830
 9518TIP3    H128507   1.094   6.220   1.489  0.9903  0.9732 -0.5594
 9518TIP3    H228508   1.061   6.113   1.388 -1.0178 -0.1647  1.2711
 9519TIP3   OH228509   4.560   0.547   1.417 -0.2130  0.6418  0.0923
 9519TIP3    H128510   4.487   0.492   1.448  0.7474 -1.2169 -0.8476
 9519TIP3    H228511   4.584   0.510   1.332  0.9313  2.0960 -0.2435
 9520TIP3   OH228512   7.083   2.441   6.339 -0.2480 -0.2553 -0.2958
 9520TIP3    H128513   7.073   2.466   6.248 -0.9509 -2.0003 -0.7047
 9520TIP3    H228514   7.177   2.453   6.357 -0.1144  0.1051 -1.2292
 9521TIP3   OH228515   7.314   2.566   4.967 -0.0206 -0.3695 -0.1215
 9521TIP3    H128516   7.391   2.532   4.921 -1.2843 -2.2955 -0.8743
 9521TIP3    H228517   7.303   2.655   4.933  1.5294 -0.2706 -0.4094
 9522TIP3   OH228518   5.736   0.965   0.056  0.0305 -0.4611  0.6896
 9522TIP3    H128519   5.787   0.915  -0.009  0.6701 -0.7779  1.4222
 9522TIP3    H228520   5.802   1.013   0.105 -0.5045  0.2604  0.6995
 9523TIP3   OH228521   6.531   3.822   6.399 -0.7051 -0.8022 -0.2048
 9523TIP3    H128522   6.618   3.798   6.431 -1.0586 -0.2198  1.2470
 9523TIP3    H228523   6.536   3.917   6.388 -0.3917 -1.0678 -2.5395
 9524TIP3   OH228524   6.887   2.350   5.343  0.1747  0.2736  0.2035
 9524TIP3    H128525   6.827   2.353   5.417  0.4357 -2.8036  0.6047
 9524TIP3    H228526   6.969   2.318   5.380  0.8087  0.3007 -1.1366
 9525TIP3   OH228527   6.488   2.474   5.774  0.0577  0.6589  0.9193
 9525TIP3    H128528   6.501   2.412   5.847  1.9777 -1.2248 -0.9135
 9525TIP3    H228529   6.400   2.509   5.787 -0.6745 -1.6660  2.6667
 9526TIP3   OH228530   0.975   4.469   4.955  0.3342 -0.9824 -0.3875
 9526TIP3    H128531   1.046   4.416   4.918  1.5481  0.3824 -0.0447
 9526TIP3    H228532   0.974   4.549   4.901  0.2400 -0.2208  0.7257
 9527TIP3   OH228533   4.617   3.992   6.093  0.1836  0.2856 -0.3078
 9527TIP3    H128534   4.595   3.913   6.143 -0.0769 -1.1395 -2.5614
 9527TIP3    H228535   4.712   3.994   6.092  0.2035  0.9672  1.1639
 9528TIP3   OH228536   1.567   4.666   1.379  0.0184  0.4248 -0.5909
 9528TIP3    H128537   1.626   4.621   1.317 -0.0659  0.2747 -0.5630
 9528TIP3    H228538   1.506   4.713   1.323  0.1468  0.5587 -0.6205
 9529TIP3   OH228539   2.336   6.811   0.842 -0.4345  0.4712 -0.3362
 9529TIP3    H128540   2.392   6.841   0.914  1.0293  1.3230 -1.7845
 9529TIP3    H228541   2.302   6.727   0.872  1.8264 -0.1812  0.5110
 9530TIP3   OH228542   4.696   1.229   0.252  0.5929 -0.4030 -0.0058
 9530TIP3    H128543   4.715   1.195   0.339  1.1249 -0.8262 -0.2838
 9530TIP3    H228544   4.759   1.186   0.195 -0.4326 -0.9442 -0.7625
 9531TIP3   OH228545   5.886   5.001   5.574 -0.2286  0.0489 -0.1136
 9531TIP3    H128546   5.861   5.052   5.497 -0.0433  1.3402  0.6687
 9531TIP3    H228547   5.963   4.951   5.546  0.4898  1.3301 -0.4449
 9532TIP3   OH228548   6.202   1.167   0.354 -0.0462 -0.2917 -0.4640
 9532TIP3    H128549   6.183   1.143   0.445  1.0181 -0.1634 -0.1962
 9532TIP3    H228550   6.116   1.185   0.316 -0.5802 -1.2326  0.2578
 9533TIP3   OH228551   1.472   6.933   1.846  0.1502  0.3415 -0.0966
 9533TIP3    H128552   1.550   6.954   1.794 -1.2491  1.1695 -1.9002
 9533TIP3    H228553   1.432   7.018   1.864 -0.8571 -0.1460 -0.0162
 9534TIP3   OH228554   1.621   7.265   2.337 -0.2393  0.3583  0.7390
 9534TIP3    H128555   1.565   7.190   2.357  0.8934 -0.0293  2.5996
 9534TIP3    H228556   1.660   7.244   2.252  1.0415 -1.7794  1.8171
 9535TIP3   OH228557   0.757   7.254   1.384  0.6234  0.3202 -0.1349
 9535TIP3    H128558   0.774   7.322   1.449  0.4715  0.3432 -0.1192
 9535TIP3    H228559   0.708   7.187   1.431  0.9024  0.1279 -0.1116
 9536TIP3   OH228560   4.328   2.676   5.973 -0.2120  0.4187 -0.4031
 9536TIP3    H128561   4.272   2.635   5.908  1.3879 -1.4263 -0.6938
 9536TIP3    H228562   4.365   2.752   5.930 -0.3253  0.0502 -1.1545
 9537TIP3   OH228563   1.641   6.913  -0.009  0.0185 -0.1785  0.8206
 9537TIP3    H128564   1.685   6.908   0.075  0.9753  0.1382  0.3458
 9537TIP3    H228565   1.692   6.977  -0.059 -0.4956 -0.4214 -0.0270
 9538TIP3   OH228566   0.442   3.705   6.303 -0.3517 -0.1121  0.7748
 9538TIP3    H128567   0.484   3.629   6.264  2.5716  0.9356  1.7868
 9538TIP3    H228568   0.434   3.683   6.396  0.8588  0.9504  1.1428
 9539TIP3   OH228569   5.197   3.301   4.541  0.0354 -0.8153  0.1757
 9539TIP3    H128570   5.129   3.251   4.585 -0.3580  0.7687  1.3519
 9539TIP3    H228571   5.205   3.382   4.590 -0.1405  0.8378 -2.4070
 9540TIP3   OH228572   6.670   4.795   3.228  0.4480 -0.0163 -0.1662
 9540TIP3    H128573   6.629   4.720   3.271 -1.2075  0.4826 -0.8168
 9540TIP3    H228574   6.660   4.867   3.290  2.8019 -0.4872  0.8255
 9541TIP3   OH228575   7.596   2.783   5.944  0.0155 -0.0730  0.0315
 9541TIP3    H128576   7.636   2.753   5.862  0.8436 -0.5934  0.6158
 9541TIP3    H228577   7.502   2.777   5.928  0.1659 -0.8503 -0.6459
 9542TIP3   OH228578   1.381   6.026   0.521 -0.3506 -0.0860 -0.0219
 9542TIP3    H128579   1.475   6.014   0.533 -0.0075  2.7339  0.3287
 9542TIP3    H228580   1.352   6.070   0.601 -1.7429  0.1945 -0.6603
 9543TIP3   OH228581   2.947   1.111   0.346  0.2875 -0.1319 -0.0399
 9543TIP3    H128582   2.947   1.192   0.295  2.0144  0.7034  1.2040
 9543TIP3    H228583   2.967   1.043   0.282  0.9946  0.7064 -0.7363
 9544TIP3   OH228584   3.079   0.822   1.639 -0.4002 -0.2397  0.0311
 9544TIP3    H128585   2.987   0.830   1.662 -0.6373 -0.0023 -0.9917
 9544TIP3    H228586   3.080   0.804   1.545  0.6704  2.5126 -0.5484
 9545TIP3   OH228587   7.275   5.136   5.686 -0.4545 -0.2177  0.0505
 9545TIP3    H128588   7.223   5.208   5.649 -1.0128 -1.3155 -1.3407
 9545TIP3    H228589   7.219   5.059   5.676  0.6541 -1.0724  0.3694
 9546TIP3   OH228590   6.154   4.090   5.540  0.3487 -0.1088  0.4718
 9546TIP3    H128591   6.219   4.033   5.582 -1.0976 -0.1227  2.7674
 9546TIP3    H228592   6.127   4.151   5.609 -0.4497  1.3357 -1.0739
 9547TIP3   OH228593   5.709   5.608   4.336  0.2250 -0.1062  0.3015
 9547TIP3    H128594   5.627   5.646   4.306  1.5100  1.8439 -0.8426
 9547TIP3    H228595   5.733   5.660   4.413 -0.7980 -2.1977  2.0514
 9548TIP3   OH228596   2.324   6.906   0.037  0.3415 -0.1463 -0.4292
 9548TIP3    H128597   2.313   6.962  -0.040  2.3567 -0.3343 -0.8663
 9548TIP3    H228598   2.391   6.949   0.089 -0.1291 -0.6792  0.6412
 9549TIP3   OH228599   4.421   0.995   0.922  1.0359 -0.4495 -0.0506
 9549TIP3    H128600   4.512   1.019   0.902  1.4311 -1.8728 -0.0439
 9549TIP3    H228601   4.428   0.909   0.965 -0.3449 -0.8663 -0.6357
 9550TIP3   OH228602   7.718   2.305   5.988 -0.3659 -0.6331  0.0777
 9550TIP3    H128603   7.734   2.216   5.956  0.1421 -0.4651 -0.1351
 9550TIP3    H228604   7.670   2.293   6.071 -2.8381 -1.0479 -1.3578
 9551TIP3   OH228605   4.940   1.179   0.784  0.4739  0.6874  0.1668
 9551TIP3    H128606   4.974   1.252   0.835  0.8960  1.8114 -1.6650
 9551TIP3    H228607   5.011   1.158   0.723 -0.4605  0.1672 -0.7500
 9552TIP3   OH228608   5.147   2.180   4.623 -0.0797 -0.0113 -0.0897
 9552TIP3    H128609   5.121   2.205   4.534  1.9175 -0.7060 -0.8896
 9552TIP3    H228610   5.221   2.237   4.643  0.9989 -1.4962  0.2006
 9553TIP3   OH228611   3.186   0.205   0.866  0.1581 -0.3920 -0.2165
 9553TIP3    H128612   3.091   0.193   0.859  0.3086 -0.8980 -1.5429
 9553TIP3    H228613   3.206   0.273   0.803  0.7643 -0.7239 -0.3858
 9554TIP3   OH228614   1.260   7.040   1.022 -0.1935  0.0166  0.1377
 9554TIP3    H128615   1.296   6.952   1.031  0.1942  0.0427 -1.0820
 9554TIP3    H228616   1.318   7.096   1.073 -0.9664 -0.5688  1.6589
 9555TIP3   OH228617   1.738   5.096   0.225  0.2558 -0.1419 -0.1265
 9555TIP3    H128618   1.774   5.050   0.149  1.1560  0.4532 -0.0739
 9555TIP3    H228619   1.815   5.121   0.276 -0.3844 -1.2883  1.4315
 9556TIP3   OH228620   0.210   1.342   4.009  0.1909 -0.6914  0.8705
 9556TIP3    H128621   0.153   1.370   4.081 -1.2851 -0.4634 -0.3560
 9556TIP3    H228622   0.233   1.252   4.031 -1.7575 -1.2585  0.7546
 9557TIP3   OH228623   5.896   2.552   3.060 -0.0658  0.3901 -0.6706
 9557TIP3    H128624   5.943   2.615   3.114  2.7175 -1.5749 -0.6557
 9557TIP3    H228625   5.931   2.565   2.972 -0.8122  0.1144 -1.0098
 9558TIP3   OH228626   5.016   2.123   4.873  0.2525 -0.7961 -0.2295
 9558TIP3    H128627   4.981   2.040   4.838 -0.7633  0.1380 -1.4912
 9558TIP3    H228628   5.056   2.165   4.797 -2.0962  1.3275 -0.3520
 9559TIP3   OH228629   1.228   4.348   0.813 -0.1983  0.1586 -0.2872
 9559TIP3    H128630   1.191   4.415   0.756 -0.7387 -1.6151 -2.0769
 9559TIP3    H228631   1.157   4.285   0.824  0.7310 -0.7933  0.2997
 9560TIP3   OH228632   7.723   7.074   1.006  0.6801 -0.0149  0.5202
 9560TIP3    H128633   7.809   7.115   1.008  0.7433 -0.1699  1.8402
 9560TIP3    H228634   7.711   7.046   0.916  1.9347  0.1831  0.2869
 9561TIP3   OH228635   1.504   2.440   3.376 -0.0084 -0.3019 -0.2995
 9561TIP3    H128636   1.519   2.523   3.331  1.7918 -0.9880 -1.0057
 9561TIP3    H228637   1.587   2.393   3.369 -0.2827 -1.2299  2.0833
 9562TIP3   OH228638   4.298   5.512   4.815  0.2340 -0.3799  0.4354
 9562TIP3    H128639   4.217   5.507   4.865  0.4678 -1.2455  0.7527
 9562TIP3    H228640   4.366   5.492   4.880  0.7456  0.9595  0.3121
 9563TIP3   OH228641   3.753   3.630   5.671  0.1582  0.2452 -0.1096
 9563TIP3    H128642   3.824   3.570   5.648 -1.6805 -1.9042 -0.3115
 9563TIP3    H228643   3.692   3.577   5.722  0.1393  2.8380  2.6976
 9564TIP3   OH228644   1.020   1.815   5.600  0.4291 -0.1827 -0.3833
 9564TIP3    H128645   1.046   1.906   5.582 -1.3140 -0.0215 -2.2430
 9564TIP3    H228646   0.928   1.821   5.624  0.2433 -1.4745 -0.7427
 9565TIP3   OH228647   7.234   4.004   4.433 -0.2708  0.2754 -0.5236
 9565TIP3    H128648   7.145   4.018   4.464  0.0585  2.2162 -0.3817
 9565TIP3    H228649   7.224   3.966   4.346 -1.2290 -0.4211 -0.1111
 9566TIP3   OH228650   6.459   4.273   5.272  0.6344 -0.2620  0.0673
 9566TIP3    H128651   6.468   4.203   5.337 -0.8987 -0.5320  0.0223
 9566TIP3    H228652   6.525   4.337   5.295 -0.2548 -0.0968  2.2356
 9567TIP3   OH228653   0.091   7.159   1.964  0.2755 -0.2176  0.0928
 9567TIP3    H128654   0.099   7.254   1.968 -0.0699 -0.1472 -0.6915
 9567TIP3    H228655   0.094   7.130   2.055  0.0061  0.5729  0.3564
 9568TIP3   OH228656   7.344   3.589   5.321 -0.2841  0.6198 -0.2695
 9568TIP3    H128657   7.430   3.612   5.356  0.2046 -0.0931 -0.9988
 9568TIP3    H228658   7.349   3.495   5.303 -1.4681  0.4235  0.4066
 9569TIP3   OH228659   7.825   3.090   3.556  0.0820 -0.3061  0.4144
 9569TIP3    H128660   7.749   3.097   3.614 -0.4553 -1.3801 -0.1375
 9569TIP3    H228661   7.831   2.996   3.536  1.6200 -0.2384  0.5324
 9570TIP3   OH228662   6.494   1.578   0.573  0.0206 -0.1377 -0.6403
 9570TIP3    H128663   6.460   1.517   0.639  2.3174 -0.6180  0.1440
 9570TIP3    H228664   6.493   1.663   0.617  0.6679 -0.3049 -0.2906
 9571TIP3   OH228665   1.540   6.696   0.771  0.2299 -0.1341 -0.3396
 9571TIP3    H128666   1.460   6.650   0.794  1.3046 -0.7351  2.4330
 9571TIP3    H228667   1.512   6.786   0.752 -0.9494  0.1026  2.2742
 9572TIP3   OH228668   1.680   2.819   5.459 -0.4351  0.5497 -0.1974
 9572TIP3    H128669   1.727   2.743   5.423  2.3464  1.7384  0.7404
 9572TIP3    H228670   1.719   2.894   5.415 -0.7830  1.6344  1.3082
 9573TIP3   OH228671   2.418   7.413   0.985 -0.4899 -0.0956  0.8694
 9573TIP3    H128672   2.432   7.429   0.891  2.1788  0.4557  1.3136
 9573TIP3    H228673   2.400   7.320   0.991 -0.2954 -0.2097 -0.1653
 9574TIP3   OH228674   1.402   4.586   3.083  0.1706  0.0640 -0.0622
 9574TIP3    H128675   1.333   4.647   3.058  0.0359 -0.1346 -0.1797
 9574TIP3    H228676   1.483   4.627   3.051  0.3864  1.4488  2.1527
 9575TIP3   OH228677   1.239   2.522   6.255  0.1061 -0.3681  0.6090
 9575TIP3    H128678   1.250   2.563   6.169  2.4963  0.3993  1.2566
 9575TIP3    H228679   1.242   2.428   6.237  0.1662 -0.2209 -0.1946
 9576TIP3   OH228680   0.835   3.278   5.908  0.4262 -0.0317  0.2666
 9576TIP3    H128681   0.801   3.270   5.819  0.1661  0.5457  0.3093
 9576TIP3    H228682   0.879   3.363   5.909  0.9319 -0.2927  0.5264
 9577TIP3   OH228683   0.538   5.656   4.449 -0.3636 -0.0473  0.4506
 9577TIP3    H128684   0.536   5.570   4.406 -1.9982 -0.2802  0.9661
 9577TIP3    H228685   0.531   5.637   4.542 -1.8309  0.6835  0.5055
 9578TIP3   OH228686   3.250   5.807   1.720  0.0834  0.0235 -0.1349
 9578TIP3    H128687   3.291   5.756   1.790  0.1424  0.4874  0.1776
 9578TIP3    H228688   3.323   5.841   1.669  0.1204  1.3326  0.7676
 9579TIP3   OH228689   5.243   1.675   0.921 -0.0318 -0.3092  0.5211
 9579TIP3    H128690   5.204   1.758   0.950 -1.3371 -0.7198 -0.0334
 9579TIP3    H228691   5.273   1.693   0.832  2.0461  0.3204  1.3202
 9580TIP3   OH228692   6.508   1.458   6.097  0.0143 -0.0605  0.0850
 9580TIP3    H128693   6.444   1.464   6.026  1.6003 -2.0476 -1.5669
 9580TIP3    H228694   6.461   1.414   6.168 -0.9106 -0.1398 -0.5683
 9581TIP3   OH228695   1.129   4.881   3.665  0.1587  0.1930 -0.2829
 9581TIP3    H128696   1.071   4.956   3.681  0.5657  0.3991  0.2420
 9581TIP3    H228697   1.072   4.804   3.675 -0.0794  0.4032 -0.0014
 9582TIP3   OH228698   2.570   7.068   2.578  0.0954 -0.3669 -0.4990
 9582TIP3    H128699   2.600   7.047   2.666 -1.1397  0.6599  0.1632
 9582TIP3    H228700   2.605   7.155   2.560 -0.2887 -0.2606 -0.7408
 9583TIP3   OH228701   2.507   3.655   6.283 -0.0368  0.1437  0.3867
 9583TIP3    H128702   2.566   3.671   6.209  1.6075 -0.3980  1.5574
 9583TIP3    H228703   2.460   3.737   6.294  1.8545  1.2349  0.6018
 9584TIP3   OH228704   5.178   4.548   6.361  0.5119  0.6085 -0.4747
 9584TIP3    H128705   5.091   4.511   6.342  0.1885  0.1558  1.6993
 9584TIP3    H228706   5.159   4.637   6.392  0.6361 -0.1463  1.8594
 9585TIP3   OH228707   2.498   7.379   0.273  0.4443 -0.4184 -0.0651
 9585TIP3    H128708   2.491   7.286   0.252  1.7682 -0.9115  1.5681
 9585TIP3    H228709   2.563   7.412   0.212  1.0025 -0.8726  0.2790
 9586TIP3   OH228710   1.204   4.327   4.891  0.4178 -0.6951 -0.1441
 9586TIP3    H128711   1.287   4.325   4.842  0.2471  0.0262 -0.4619
 9586TIP3    H228712   1.229   4.352   4.980  0.4699  0.1684 -0.3967
 9587TIP3   OH228713   7.836   4.834   5.880 -0.0621 -0.3053  0.2651
 9587TIP3    H128714   7.763   4.831   5.942 -1.6231  0.7746 -1.4618
 9587TIP3    H228715   7.795   4.826   5.794  1.9272 -0.2689 -0.7220
 9588TIP3   OH228716   6.112   0.468   1.094  0.2539  0.6048  0.2026
 9588TIP3    H128717   6.084   0.537   1.154  0.6161  0.8017  0.1481
 9588TIP3    H228718   6.195   0.500   1.058  1.8607 -1.0852  2.2930
 9589TIP3   OH228719   0.806   6.087   5.641  0.3784  0.0784  0.0806
 9589TIP3    H128720   0.736   6.023   5.635  0.5779 -0.0279 -1.4077
 9589TIP3    H228721   0.854   6.064   5.720 -0.4623 -0.6669  0.3720
 9590TIP3   OH228722   0.955   1.400   5.417 -0.5554 -0.6312 -0.1206
 9590TIP3    H128723   1.015   1.450   5.472 -0.4989 -1.1279  0.2726
 9590TIP3    H228724   0.998   1.315   5.407 -1.0584 -0.8906 -0.0764
 9591TIP3   OH228725   3.371   4.746   4.625 -0.2883 -0.3375 -0.5764
 9591TIP3    H128726   3.304   4.773   4.563  0.5463  2.0441 -0.4974
 9591TIP3    H228727   3.418   4.675   4.580 -1.5544 -0.6531 -1.4324
 9592TIP3   OH228728   1.517   6.769   3.222  0.0970 -0.0235  0.0472
 9592TIP3    H128729   1.428   6.802   3.213 -0.5154 -1.8012 -0.8576
 9592TIP3    H228730   1.518   6.724   3.307  0.0295 -0.2757 -0.0845
 9593TIP3   OH228731   0.481   5.274   5.810  0.5709  0.2746 -0.8136
 9593TIP3    H128732   0.471   5.203   5.873  2.1247  1.3791  0.7019
 9593TIP3    H228733   0.480   5.230   5.725  2.3674 -1.6678  0.1220
 9594TIP3   OH228734   7.893   5.446   5.147  0.7571 -0.3551 -0.8907
 9594TIP3    H128735   7.859   5.420   5.061 -2.5853 -2.7512  1.0377
 9594TIP3    H228736   7.913   5.363   5.190  1.0275  0.7552  1.1668
 9595TIP3   OH228737   3.271   5.454   3.297  0.2022 -0.3637  0.5108
 9595TIP3    H128738   3.297   5.499   3.216 -0.7455  0.6426  0.7525
 9595TIP3    H228739   3.275   5.522   3.364 -1.5284 -0.5544  0.8263
 9596TIP3   OH228740   7.481   4.160   5.279 -0.1285  0.2312  0.5701
 9596TIP3    H128741   7.535   4.137   5.203  0.3953 -1.4282  1.4129
 9596TIP3    H228742   7.400   4.110   5.266  0.6026 -1.3196  1.9013
 9597TIP3   OH228743   7.460   4.116   4.556 -0.7357 -0.2670 -0.2027
 9597TIP3    H128744   7.384   4.074   4.517 -2.2462  0.6879  1.6261
 9597TIP3    H228745   7.434   4.208   4.564  0.6916  0.0994  0.2577
 9598TIP3   OH228746   4.171   1.258   1.634  0.4513  0.6879  0.4632
 9598TIP3    H128747   4.188   1.351   1.649  1.6950  0.3569  1.1838
 9598TIP3    H228748   4.255   1.216   1.650 -0.1572 -0.5879  0.3302
 9599TIP3   OH228749   5.431   0.289   2.630  0.7765 -0.5738 -0.9039
 9599TIP3    H128750   5.390   0.306   2.546  0.5713 -1.7097 -1.0464
 9599TIP3    H228751   5.363   0.311   2.695  0.4576 -1.0286 -1.0839
 9600TIP3   OH228752   3.442   7.069   2.033  0.7191 -0.4108 -0.0917
 9600TIP3    H128753   3.470   6.994   1.981 -0.6732  0.0100 -1.4986
 9600TIP3    H228754   3.357   7.043   2.069 -1.4693  1.6792 -3.4134
 9601TIP3   OH228755   0.740   7.379   1.631 -0.7555  0.3439  0.0564
 9601TIP3    H128756   0.725   7.312   1.698  0.1226 -0.8908 -0.9546
 9601TIP3    H228757   0.833   7.400   1.639 -1.5358  3.3792  2.1027
 9602TIP3   OH228758   6.295   0.244   0.077 -0.2745 -0.2024 -0.5987
 9602TIP3    H128759   6.342   0.183   0.134 -0.4814 -0.0995 -0.3205
 9602TIP3    H228760   6.341   0.238  -0.007  0.1168 -0.2470 -0.3821
 9603TIP3   OH228761   7.338   5.760   5.517  0.0130  0.1269 -0.1018
 9603TIP3    H128762   7.344   5.795   5.606  1.5669  2.9321 -1.2401
 9603TIP3    H228763   7.258   5.800   5.482 -0.3279 -0.5940 -0.1570
 9604TIP3   OH228764   7.883   3.808   5.828  0.2559  0.7148 -0.4915
 9604TIP3    H128765   7.886   3.776   5.918 -1.8285 -1.3635 -1.1233
 9604TIP3    H228766   7.898   3.902   5.836  1.9991  0.2815  1.8352
 9605TIP3   OH228767   6.501   4.249   5.012 -0.6539  0.8040 -0.3308
 9605TIP3    H128768   6.475   4.254   5.104  0.1940 -2.4209  0.1338
 9605TIP3    H228769   6.584   4.295   5.008 -0.2197  0.1307  0.7248
 9606TIP3   OH228770   6.724   3.013   5.069 -0.0470  0.1438  0.0129
 9606TIP3    H128771   6.764   2.927   5.059  1.2674  0.6344  0.8494
 9606TIP3    H228772   6.656   3.002   5.134  0.6283 -0.1062  0.6786
 9607TIP3   OH228773   5.822   1.230   0.948  0.4110 -0.1735  0.3185
 9607TIP3    H128774   5.773   1.313   0.944  1.0376  0.1944  0.3310
 9607TIP3    H228775   5.859   1.220   0.860  0.6017 -0.2842  0.4121
 9608TIP3   OH228776   6.190   6.920   3.830 -0.6143  0.1175  0.4272
 9608TIP3    H128777   6.188   6.983   3.902 -0.2794  2.2014 -1.3498
 9608TIP3    H228778   6.235   6.966   3.759  0.5910 -2.5035 -0.5784
 9609TIP3   OH228779   0.087   3.492   5.047 -0.0793  0.2057 -0.3922
 9609TIP3    H128780  -0.002   3.469   5.019  0.6601 -1.6212 -1.3213
 9609TIP3    H228781   0.079   3.582   5.080 -2.0283  0.4841 -1.5356
 9610TIP3   OH228782   7.805   3.243   5.970  0.6434 -0.0050 -0.3313
 9610TIP3    H128783   7.738   3.285   5.916  2.4605 -0.0379 -2.7081
 9610TIP3    H228784   7.758   3.177   6.020 -1.6552  2.4046  0.7650
 9611TIP3   OH228785   1.125   3.455   5.984 -0.5531  0.1071 -0.1162
 9611TIP3    H128786   1.080   3.535   6.012 -0.6275 -0.0070  0.0863
 9611TIP3    H228787   1.085   3.434   5.900  0.5432  1.1553 -0.9214
 9612TIP3   OH228788   5.131   2.335   5.533 -0.2359  0.4215  0.5001
 9612TIP3    H128789   5.217   2.319   5.571 -0.9352  0.6568  2.2071
 9612TIP3    H228790   5.145   2.405   5.470  1.1260 -0.6633 -0.4228
 9613TIP3   OH228791   7.734   4.654   4.784  0.0509 -0.1557  0.2178
 9613TIP3    H128792   7.684   4.606   4.850 -1.2453 -0.6853 -1.1370
 9613TIP3    H228793   7.688   4.737   4.774 -1.0254 -0.9427 -1.5653
 9614TIP3   OH228794   7.655   4.792   5.652 -0.2921 -0.0008  0.5704
 9614TIP3    H128795   7.633   4.826   5.565 -1.2298 -1.1878  0.3220
 9614TIP3    H228796   7.678   4.701   5.637  0.1956 -0.0367  1.4920
 9615TIP3   OH228797   7.074   4.424   4.163 -0.0517  0.8145  0.0104
 9615TIP3    H128798   7.004   4.369   4.198 -0.2244  0.1867 -1.3264
 9615TIP3    H228799   7.148   4.409   4.223 -0.3434 -0.2553  0.1137
 9616TIP3   OH228800   5.110   0.555   0.117  0.1048  0.2621  0.3159
 9616TIP3    H128801   5.031   0.557   0.063  0.4832  1.9489 -0.2121
 9616TIP3    H228802   5.101   0.630   0.176  2.1717  1.6588 -1.0619
 9617TIP3   OH228803   0.086   4.778   6.107 -0.3373  0.0426  0.3042
 9617TIP3    H128804   0.006   4.751   6.153 -0.1232  0.4695  0.9401
 9617TIP3    H228805   0.157   4.755   6.168  0.2011 -2.4022 -1.1959
 9618TIP3   OH228806   6.794   4.506   3.707 -0.1871 -0.2341  0.0340
 9618TIP3    H128807   6.762   4.513   3.797  1.3626  1.3149  0.4832
 9618TIP3    H228808   6.792   4.412   3.688 -2.2821 -0.4102  1.0150
 9619TIP3   OH228809   1.925   7.144   0.285 -0.2432 -0.4886 -0.1622
 9619TIP3    H128810   1.843   7.099   0.305 -1.3344  1.7038  0.4760
 9619TIP3    H228811   1.981   7.126   0.360  0.1987 -2.6492 -0.9520
 9620TIP3   OH228812   2.735   7.304   2.596 -0.0583 -0.1807  0.6875
 9620TIP3    H128813   2.679   7.367   2.641 -1.8662  0.0765 -1.8058
 9620TIP3    H228814   2.816   7.302   2.648 -1.8268  0.4947  3.5395
 9621TIP3   OH228815   5.248   1.473   2.561 -0.0255  0.1254 -0.0057
 9621TIP3    H128816   5.235   1.486   2.467  1.3183 -0.0374 -0.2233
 9621TIP3    H228817   5.336   1.437   2.568  0.0639  0.5829  1.3591
 9622TIP3   OH228818   0.237   1.566   1.486 -0.4124 -0.3097  0.1163
 9622TIP3    H128819   0.195   1.538   1.568 -1.3072  2.1184  0.5157
 9622TIP3    H228820   0.328   1.583   1.510 -0.3712 -0.7979  0.3240
 9623TIP3   OH228821   5.478   1.112   1.028 -0.0937  0.1686  0.4612
 9623TIP3    H128822   5.569   1.113   1.058 -0.4041  1.9812  1.4360
 9623TIP3    H228823   5.466   1.197   0.986 -1.3599 -0.0072  0.4487
 9624TIP3   OH228824   2.757   0.246   5.581  0.3290  0.1126 -0.2545
 9624TIP3    H128825   2.780   0.196   5.659  1.8692 -0.0979 -0.8288
 9624TIP3    H228826   2.738   0.181   5.514 -0.2867  0.2934 -0.2582
 9625TIP3   OH228827   3.361   3.484   6.455  0.5813  0.4726  0.1270
 9625TIP3    H128828   3.441   3.513   6.410  0.6628 -0.0163 -0.0495
 9625TIP3    H228829   3.297   3.473   6.385  0.4908  0.4279  0.2162
 9626TIP3   OH228830   1.088   1.740   6.188  0.1670  0.2961  0.3345
 9626TIP3    H128831   1.010   1.685   6.196  1.2255 -1.4727 -0.8934
 9626TIP3    H228832   1.058   1.828   6.209 -2.1112 -0.3701  0.0371
 9627TIP3   OH228833   5.404   6.915   1.889  0.9593  0.0347  0.2350
 9627TIP3    H128834   5.442   6.947   1.808 -0.5195 -1.0478 -0.9291
 9627TIP3    H228835   5.448   6.964   1.958  1.5356  1.6731 -1.2706
 9628TIP3   OH228836   3.350   5.828   1.225 -0.1981 -0.1615 -0.2977
 9628TIP3    H128837   3.400   5.907   1.246 -1.5718  1.0610 -1.5142
 9628TIP3    H228838   3.395   5.791   1.149 -0.2207  0.0801 -0.4293
 9629TIP3   OH228839   1.750   6.113   0.343 -0.3070 -0.3487 -0.4424
 9629TIP3    H128840   1.811   6.182   0.319  0.4302 -1.1323 -0.8501
 9629TIP3    H228841   1.719   6.077   0.260  3.1561 -3.8600 -0.3543
 9630TIP3   OH228842   5.344   1.270   2.956  0.3476 -0.0215  0.4127
 9630TIP3    H128843   5.404   1.211   3.002  0.5687  1.9031  2.6846
 9630TIP3    H228844   5.402   1.333   2.913  0.0407  0.2444  0.3847
 9631TIP3   OH228845   2.397   6.002   2.838 -0.1788 -0.3226 -0.2329
 9631TIP3    H128846   2.440   5.964   2.761 -0.3882 -0.0781 -0.4692
 9631TIP3    H228847   2.441   5.961   2.913  1.3998  0.9401 -0.4493
 9632TIP3   OH228848   6.212   6.614   0.852  0.3586  0.2661 -0.4547
 9632TIP3    H128849   6.170   6.692   0.889  0.6170 -0.3688  1.2038
 9632TIP3    H228850   6.154   6.542   0.876  1.4125 -0.3710  0.1861
 9633TIP3   OH228851   1.316   3.287   6.470  0.0972  0.1450 -0.0685
 9633TIP3    H128852   1.401   3.275   6.427 -0.0191  0.1185 -0.2962
 9633TIP3    H228853   1.257   3.311   6.398 -0.1334 -0.0582  0.0532
 9634TIP3   OH228854   6.110   2.005   2.093 -0.2590 -0.1960  0.1068
 9634TIP3    H128855   6.066   1.934   2.046 -0.1122 -0.3253  0.1663
 9634TIP3    H228856   6.105   2.079   2.033  0.6131 -0.5690 -0.4288
 9635TIP3   OH228857   3.129   5.442   0.522 -0.6862  0.5600  0.2570
 9635TIP3    H128858   3.101   5.452   0.431  0.9008  2.6218 -0.0478
 9635TIP3    H228859   3.224   5.433   0.517 -0.4962  1.5732  1.7645
 9636TIP3   OH228860   4.618   0.374   1.206 -0.1666 -0.0924  0.4690
 9636TIP3    H128861   4.662   0.425   1.139  0.9317  1.2348  2.1625
 9636TIP3    H228862   4.659   0.287   1.201 -2.0462 -0.8860 -2.4090
 9637TIP3   OH228863   4.112   5.771   2.978 -0.0655 -0.2457 -0.4355
 9637TIP3    H128864   4.030   5.783   3.026 -0.1887  0.1730 -0.7443
 9637TIP3    H228865   4.178   5.813   3.033 -0.2077  0.2429 -0.6347
 9638TIP3   OH228866   7.130   0.517   0.292 -0.2710  0.1183 -0.1473
 9638TIP3    H128867   7.035   0.515   0.283 -0.1603 -0.2461 -1.3602
 9638TIP3    H228868   7.162   0.537   0.204  0.7295  1.6687  0.5594
 9639TIP3   OH228869   0.993   1.376   0.436  0.9366 -0.1527  0.5797
 9639TIP3    H128870   0.908   1.357   0.475 -0.2109 -0.0261 -1.7738
 9639TIP3    H228871   1.055   1.324   0.487 -0.9414 -2.7469  0.3005
 9640TIP3   OH228872   6.118   0.378   0.653  0.1119 -0.6852  0.2495
 9640TIP3    H128873   6.181   0.438   0.693  0.1727  0.2234 -1.2042
 9640TIP3    H228874   6.050   0.368   0.720  1.5625 -1.3607  1.6808
 9641TIP3   OH228875   4.146   5.747   1.435 -0.1062 -0.5834  1.0527
 9641TIP3    H128876   4.178   5.825   1.390 -0.5930 -1.2462 -0.4876
 9641TIP3    H228877   4.157   5.766   1.528 -0.1900  1.3007  0.6885
 9642TIP3   OH228878   1.878   6.398   0.315 -0.1440 -0.1267  0.5384
 9642TIP3    H128879   1.893   6.492   0.326  0.3084 -0.1290  0.0361
 9642TIP3    H228880   1.942   6.372   0.248 -0.5553 -0.7090  0.3677
 9643TIP3   OH228881   7.424   3.224   1.400 -0.1887 -0.2475  0.3689
 9643TIP3    H128882   7.520   3.226   1.403 -0.2418  1.5925  1.2628
 9643TIP3    H228883   7.404   3.149   1.344  1.7763 -0.5879  0.0746
 9644TIP3   OH228884   5.309   0.583   1.818 -0.8079  0.9236  0.4673
 9644TIP3    H128885   5.381   0.636   1.851  1.3657  0.4552 -3.2444
 9644TIP3    H228886   5.318   0.499   1.864  1.2713  0.7361 -0.2421
 9645TIP3   OH228887   0.749   2.548   6.048 -0.3685 -0.2006  0.4638
 9645TIP3    H128888   0.691   2.620   6.024  2.2310  1.8183 -0.0278
 9645TIP3    H228889   0.760   2.556   6.143 -2.6809 -2.0231  0.9269
 9646TIP3   OH228890   2.144   3.595   6.054  0.5853 -0.5166 -0.0982
 9646TIP3    H128891   2.238   3.581   6.054  0.4513 -1.4302  1.0841
 9646TIP3    H228892   2.120   3.606   6.146 -0.5071 -0.5609 -0.3605
 9647TIP3   OH228893   6.310   1.142   5.815  0.3997 -0.1076 -0.0005
 9647TIP3    H128894   6.220   1.130   5.844  0.8600 -1.1204  1.0157
 9647TIP3    H228895   6.310   1.229   5.774 -0.3131  1.3318  2.8932
 9648TIP3   OH228896   5.460   7.018   1.632 -0.8934 -0.5103 -0.6738
 9648TIP3    H128897   5.411   7.079   1.687  1.8356  0.0866  1.1631
 9648TIP3    H228898   5.519   7.073   1.581  0.9986 -1.5336  0.3757
 9649TIP3   OH228899   0.673   3.916   5.518  0.5799 -0.0896 -0.0583
 9649TIP3    H128900   0.642   3.945   5.432  0.6015 -1.0599 -0.4016
 9649TIP3    H228901   0.745   3.857   5.499  0.8857  0.0512  0.6469
 9650TIP3   OH228902   4.482   5.276   0.076  0.1292 -0.4757  0.0615
 9650TIP3    H128903   4.457   5.337   0.146 -0.4172  0.0580 -0.5902
 9650TIP3    H228904   4.399   5.251   0.035  0.4467 -0.7400 -0.4287
 9651TIP3   OH228905   6.297   1.148   2.491 -0.3233  0.4391  0.2935
 9651TIP3    H128906   6.279   1.089   2.564  1.7625 -1.0893 -0.3766
 9651TIP3    H228907   6.379   1.191   2.515 -0.1382  0.6520 -0.7080
 9652TIP3   OH228908   2.699   5.948   6.093 -0.7668  0.3308 -1.0693
 9652TIP3    H128909   2.770   5.968   6.032 -0.4383  1.7231 -0.2579
 9652TIP3    H228910   2.696   6.024   6.152 -0.8982 -1.0796  0.8070
 9653TIP3   OH228911   6.586   0.425   0.306 -0.2189 -0.3400 -0.6246
 9653TIP3    H128912   6.624   0.505   0.268  0.0080 -0.2940 -0.2969
 9653TIP3    H228913   6.498   0.451   0.333  0.4333  0.2261  0.9697
 9654TIP3   OH228914   5.038   6.863   1.365 -0.2808 -0.2582  0.4190
 9654TIP3    H128915   5.089   6.924   1.312 -1.2620 -0.7050 -1.0521
 9654TIP3    H228916   5.087   6.858   1.448  0.6667  1.2843 -0.0109
 9655TIP3   OH228917   6.139   0.747   0.756  0.1034  0.1696  0.2257
 9655TIP3    H128918   6.119   0.810   0.687 -0.9723 -0.9232 -0.4694
 9655TIP3    H228919   6.234   0.735   0.750  0.2729  1.5106  0.1785
 9656TIP3   OH228920   4.033   6.358   1.110 -0.4469  0.4859  0.0567
 9656TIP3    H128921   4.096   6.364   1.182 -0.9275  1.1466  0.4296
 9656TIP3    H228922   4.058   6.429   1.051 -1.1300  1.0505  0.4403
 9657TIP3   OH228923   1.712   4.366   4.629 -0.3590 -0.2233 -0.2646
 9657TIP3    H128924   1.701   4.454   4.665 -0.6328 -0.1436 -0.5451
 9657TIP3    H228925   1.805   4.346   4.641 -0.6460 -0.6224  1.4783
 9658TIP3   OH228926   2.476   6.744   0.623  0.2400 -0.0444 -0.5692
 9658TIP3    H128927   2.461   6.801   0.547  0.0496  0.1569 -0.3819
 9658TIP3    H228928   2.424   6.783   0.692  0.8207  0.0705 -0.1931
 9659TIP3   OH228929   7.548   1.034   1.610  0.4609 -0.1388 -0.3234
 9659TIP3    H128930   7.466   1.081   1.596  1.3195  1.5777  0.2818
 9659TIP3    H228931   7.538   0.995   1.697 -0.1842 -0.9389 -0.7509
 9660TIP3   OH228932   6.636   0.530   1.467  0.2944  0.2258  0.2103
 9660TIP3    H128933   6.686   0.517   1.547  0.6740  0.2028 -0.0237
 9660TIP3    H228934   6.571   0.597   1.489  0.9977  0.8900  0.2770
 9661TIP3   OH228935   1.001   3.438   6.448  0.5073 -0.4215  0.7774
 9661TIP3    H128936   1.022   3.388   6.370  0.3371  1.3038 -0.4042
 9661TIP3    H228937   1.006   3.530   6.420 -0.5252  0.1998  2.5344
 9662TIP3   OH228938   1.626   4.153   5.852  0.3334 -0.1028 -0.2414
 9662TIP3    H128939   1.540   4.116   5.836  1.3279 -1.5434 -2.5727
 9662TIP3    H228940   1.626   4.236   5.804 -0.5408  1.0303  1.6973
 9663TIP3   OH228941   0.839   4.508   5.852 -0.4153 -0.3533  0.3641
 9663TIP3    H128942   0.857   4.419   5.820  0.7050  0.2351 -0.6710
 9663TIP3    H228943   0.748   4.525   5.827  0.3139 -0.0394 -2.2288
 9664TIP3   OH228944   7.873   2.953   1.816 -0.4912  0.2427 -0.4168
 9664TIP3    H128945   7.798   2.911   1.773 -0.0913 -1.1561  0.2348
 9664TIP3    H228946   7.843   2.969   1.905 -0.8589  1.9416 -0.8292
 9665TIP3   OH228947   6.046   1.315   1.210  0.2397 -0.0589  0.0701
 9665TIP3    H128948   6.023   1.403   1.180 -2.4630 -1.3293 -1.8326
 9665TIP3    H228949   6.047   1.263   1.130 -0.1514 -2.1407  1.3833
 9666TIP3   OH228950   7.081   1.510   1.020 -0.3606 -0.1615  0.0111
 9666TIP3    H128951   7.125   1.594   1.006  0.1928 -0.6841 -1.4623
 9666TIP3    H228952   6.988   1.532   1.026 -0.2454  0.5336 -0.6946
 9667TIP3   OH228953   7.374   1.980   5.934  0.2390 -0.4088 -0.0401
 9667TIP3    H128954   7.300   1.987   5.993  0.5615  1.1764  0.1972
 9667TIP3    H228955   7.443   2.032   5.975  2.1749 -3.5112  0.7853
 9668TIP3   OH228956   1.910   3.811   4.723  0.3418 -0.3149 -0.4114
 9668TIP3    H128957   1.876   3.901   4.719  0.3108 -0.3313 -0.5245
 9668TIP3    H228958   1.985   3.812   4.664  0.1153 -0.4615 -0.7043
 9669TIP3   OH228959   3.288   4.574   1.039  0.5127  0.3493  0.4506
 9669TIP3    H128960   3.282   4.508   0.970 -0.9743  0.9440  0.0124
 9669TIP3    H228961   3.377   4.562   1.075  0.1013 -2.2722  0.7533
 9670TIP3   OH228962   2.823   6.995   1.148  0.2859  0.0479  0.5793
 9670TIP3    H128963   2.865   7.022   1.066 -0.4156 -0.4878  0.0292
 9670TIP3    H228964   2.773   7.072   1.176  0.2807  0.1331  0.3372
 9671TIP3   OH228965   1.728   4.678   6.130 -0.3882  0.0831 -0.4742
 9671TIP3    H128966   1.665   4.641   6.192 -1.8618  1.6175 -1.0045
 9671TIP3    H228967   1.770   4.750   6.178  0.4800 -0.5005 -0.3495
 9672TIP3   OH228968   6.842   0.633   0.568 -0.3574  0.2249 -0.2235
 9672TIP3    H128969   6.850   0.651   0.662  1.7433  3.4688 -0.9327
 9672TIP3    H228970   6.876   0.544   0.558 -0.1819  0.0011  2.0188
 9673TIP3   OH228971   4.556   1.351   1.122  0.5580  0.1983 -0.2862
 9673TIP3    H128972   4.591   1.418   1.181  0.3067 -0.5916  0.7898
 9673TIP3    H228973   4.515   1.400   1.051  2.1388  1.1498 -0.5629
 9674TIP3   OH228974   6.923   1.373   6.181  0.3409  0.0265  0.4805
 9674TIP3    H128975   6.887   1.298   6.135  0.8518  0.4219 -0.5792
 9674TIP3    H228976   6.894   1.362   6.272 -0.9299 -0.6048  0.0160
 9675TIP3   OH228977   5.142   6.746   1.092  0.4472  0.0264 -0.3259
 9675TIP3    H128978   5.122   6.657   1.065 -0.0739  0.2366 -0.6439
 9675TIP3    H228979   5.103   6.801   1.024 -0.6888  0.5565  0.7289
 9676TIP3   OH228980   2.251   6.553   0.941 -0.0186  0.2979 -0.1681
 9676TIP3    H128981   2.222   6.503   0.865  1.3779  0.2292 -0.6806
 9676TIP3    H228982   2.175   6.556   0.999 -0.3875 -1.6678 -0.5136
 9677TIP3   OH228983   4.277   4.462   3.331  0.1844  0.5321 -0.1706
 9677TIP3    H128984   4.351   4.414   3.368 -0.0754 -1.3479 -2.0327
 9677TIP3    H228985   4.207   4.453   3.395  1.2770  1.5996  1.2055
 9678TIP3   OH228986   3.753   0.264   2.348 -0.4049  0.1546  0.0086
 9678TIP3    H128987   3.695   0.291   2.419  0.2481 -2.8171  1.7647
 9678TIP3    H228988   3.818   0.334   2.342 -1.1767  1.0217  1.5469
 9679TIP3   OH228989   2.631   7.291   3.646 -0.0439  0.6147  0.5464
 9679TIP3    H128990   2.662   7.202   3.660 -0.3232 -0.0297 -2.5589
 9679TIP3    H228991   2.535   7.284   3.647 -0.0957  0.3014 -2.6773
 9680TIP3   OH228992   2.382   7.150   0.700  0.0192 -0.5228  0.1972
 9680TIP3    H128993   2.469   7.189   0.702  0.3642 -1.3024  0.6060
 9680TIP3    H228994   2.376   7.108   0.615 -0.1386 -0.0744 -0.0166
 9681TIP3   OH228995   7.888   2.305   5.084 -0.5965  0.5740 -0.5794
 9681TIP3    H128996   7.882   2.399   5.100 -0.7993  0.8239 -2.1031
 9681TIP3    H228997   7.816   2.286   5.024 -0.0414 -0.4076 -0.9431
 9682TIP3   OH228998   6.527   1.191   1.874 -0.2043 -0.2130  0.3181
 9682TIP3    H128999   6.528   1.285   1.890 -0.8300 -0.1729  0.1115
 9682TIP3    H229000   6.619   1.165   1.878  0.0768  0.6078 -0.8611
 9683TIP3   OH229001   2.785   4.849   0.086  0.0791  0.4060  0.3404
 9683TIP3    H129002   2.847   4.880   0.153  0.3126  0.8049 -0.0538
 9683TIP3    H229003   2.786   4.918   0.019 -1.4867  0.8478  0.7630
 9684TIP3   OH229004   7.298   0.187   0.131  0.4872 -0.4517  0.0455
 9684TIP3    H129005   7.238   0.119   0.100  2.4222 -1.7395 -0.9751
 9684TIP3    H229006   7.246   0.267   0.130 -0.7759 -1.2617 -2.3688
 9685TIP3   OH229007   3.996   7.264   1.375  1.1556 -0.2604  0.3087
 9685TIP3    H129008   3.945   7.240   1.298  0.1344 -0.8949  1.1593
 9685TIP3    H229009   3.930   7.280   1.443  2.0551 -0.2344  1.1943
 9686TIP3   OH229010   0.982   6.162   6.237  0.2603 -0.2445 -0.8646
 9686TIP3    H129011   0.943   6.121   6.160  2.3944 -0.7966 -1.6713
 9686TIP3    H229012   0.977   6.256   6.219  1.1178 -0.3846 -1.8741
 9687TIP3   OH229013   4.079   6.252   0.699  0.2386  0.0646  0.1699
 9687TIP3    H129014   4.043   6.177   0.652 -0.1897 -0.0463  0.6637
 9687TIP3    H229015   4.157   6.218   0.744  2.3722  0.8466 -2.7742
 9688TIP3   OH229016   5.302   7.408   2.651  0.3200  0.4742  0.0911
 9688TIP3    H129017   5.361   7.455   2.591  1.8445  0.0397  1.2191
 9688TIP3    H229018   5.350   7.405   2.734 -0.3818 -1.7386  0.4534
 9689TIP3   OH229019   0.118   2.828   5.765  0.0485  0.5607  0.0777
 9689TIP3    H129020   0.084   2.844   5.853  2.4532  1.4086  0.8974
 9689TIP3    H229021   0.112   2.913   5.722 -0.0874  0.4151 -0.1870
 9690TIP3   OH229022   6.974   4.435   6.272 -0.3712 -0.2788 -0.3035
 9690TIP3    H129023   7.059   4.391   6.272 -0.5918 -0.7296  0.6985
 9690TIP3    H229024   6.941   4.423   6.361 -0.4309  1.9409  0.0038
 9691TIP3   OH229025   4.886   0.845   2.673  0.1869  0.5728 -0.6201
 9691TIP3    H129026   4.896   0.846   2.768  0.7109 -0.7611 -0.6492
 9691TIP3    H229027   4.801   0.803   2.659 -1.1553  3.2284 -0.6723
 9692TIP3   OH229028   2.066   4.052   4.979 -0.2311 -0.1044  0.1008
 9692TIP3    H129029   2.091   3.987   4.914  0.3031  1.2777 -1.0923
 9692TIP3    H229030   2.148   4.088   5.011 -0.5038 -0.4891  1.2579
 9693TIP3   OH229031   2.405   3.407   5.526 -0.0098 -0.0207  0.9751
 9693TIP3    H129032   2.421   3.346   5.599 -1.0449 -0.3027  0.9794
 9693TIP3    H229033   2.315   3.387   5.499  0.4469 -0.0528 -0.5089
 9694TIP3   OH229034   0.454   2.871   1.931 -0.0901  0.0362 -0.0520
 9694TIP3    H129035   0.399   2.944   1.959 -1.6997 -1.0098 -0.4426
 9694TIP3    H229036   0.543   2.897   1.957 -1.1319  0.3822  3.4341
 9695TIP3   OH229037   1.895   3.726   6.142 -0.6133 -0.0143 -0.2590
 9695TIP3    H129038   1.936   3.702   6.060 -0.3178 -1.4015  0.2803
 9695TIP3    H229039   1.861   3.643   6.177  1.2142  0.1969  2.0781
 9696TIP3   OH229040   4.882   2.822   2.089 -0.0490  0.5662 -0.2530
 9696TIP3    H129041   4.835   2.770   2.023 -0.7759  0.8337  0.0516
 9696TIP3    H229042   4.930   2.888   2.039  1.1650 -0.6075 -0.6757
 9697TIP3   OH229043   4.160   6.397   1.787 -0.3077  0.1624 -0.3445
 9697TIP3    H129044   4.224   6.467   1.775  1.2603 -0.8702  1.7090
 9697TIP3    H229045   4.081   6.430   1.744  0.5995  2.8643 -0.0681
 9698TIP3   OH229046   1.184   3.278   6.216  0.4101  0.7635 -0.2260
 9698TIP3    H129047   1.211   3.321   6.135 -1.0525  1.2787 -0.4693
 9698TIP3    H229048   1.106   3.228   6.191  1.5852 -1.3157  0.2567
 9699TIP3   OH229049   3.768   2.729   3.098 -0.1576 -0.6057 -0.0223
 9699TIP3    H129050   3.726   2.763   3.019  0.8890  1.0038  0.0872
 9699TIP3    H229051   3.702   2.674   3.140 -1.1133 -0.5087 -1.3999
 9700TIP3   OH229052   4.230   6.891   2.382  0.1257 -0.1598  0.6551
 9700TIP3    H129053   4.234   6.809   2.431  0.1414  0.7025  2.0909
 9700TIP3    H229054   4.321   6.912   2.362  0.0403 -1.3615 -1.2261
 9701TIP3   OH229055   3.736   6.987   2.144  0.3249 -0.5929 -0.1347
 9701TIP3    H129056   3.682   6.912   2.171 -1.0348 -0.2594 -1.8611
 9701TIP3    H229057   3.764   6.966   2.056  1.9570 -0.1535  0.2727
 9702TIP3   OH229058   4.282   6.713   0.104 -0.3955 -0.0507  0.6396
 9702TIP3    H129059   4.187   6.707   0.092 -0.4883  2.2938 -0.0176
 9702TIP3    H229060   4.293   6.776   0.176  0.6551 -0.4479  0.8301
 9703TIP3   OH229061   7.448   2.725   1.948 -0.4459 -0.6434  0.1232
 9703TIP3    H129062   7.517   2.742   1.884 -0.3194  0.1684  0.4677
 9703TIP3    H229063   7.419   2.812   1.975 -1.8193 -0.9690 -0.2516
 9704TIP3   OH229064   3.527   5.943   5.995 -0.5059 -0.2029  0.4194
 9704TIP3    H129065   3.552   5.877   6.059 -0.6266 -0.0151  0.6604
 9704TIP3    H229066   3.433   5.957   6.010 -0.5174 -0.0996  0.2558
 9705TIP3   OH229067   1.888   5.230   0.401 -0.3777  0.3843 -0.1585
 9705TIP3    H129068   1.948   5.304   0.410  0.7660 -0.5160 -0.2678
 9705TIP3    H229069   1.829   5.238   0.476  0.0993  1.0819  0.1506
 9706TIP3   OH229070   0.869   4.620   6.123 -0.3736  0.0112  0.1167
 9706TIP3    H129071   0.855   4.579   6.037  0.4858 -2.1071  0.9609
 9706TIP3    H229072   0.964   4.621   6.134 -0.4456  1.0394  0.6985
 9707TIP3   OH229073   0.073   3.104   5.753  0.1323  0.0920 -0.2387
 9707TIP3    H129074   0.163   3.136   5.743  0.4107 -0.7559 -0.5535
 9707TIP3    H229075   0.040   3.147   5.831  0.8654  0.3007 -0.0423
 9708TIP3   OH229076   7.680   1.531   2.774 -0.3348 -0.3258 -0.8377
 9708TIP3    H129077   7.731   1.609   2.752 -1.2666  0.8108  0.9141
 9708TIP3    H229078   7.660   1.540   2.867  0.9600 -3.5220 -0.1845
 9709TIP3   OH229079   5.125   4.841   0.075 -0.0016 -0.0965  0.5709
 9709TIP3    H129080   5.116   4.849  -0.020 -1.2082 -0.5446  0.6267
 9709TIP3    H229081   5.038   4.813   0.104 -0.0057  1.2954  1.9495
 9710TIP3   OH229082   1.050   1.179   6.154 -0.0767  0.4301  0.5758
 9710TIP3    H129083   1.058   1.105   6.093 -0.9492  1.1841 -0.4781
 9710TIP3    H229084   1.049   1.138   6.241  0.2655 -0.7322  0.0439
 9711TIP3   OH229085   3.539   6.652   0.988 -0.3471  0.0763 -0.0648
 9711TIP3    H129086   3.603   6.677   0.921 -1.2148 -0.6970 -1.1838
 9711TIP3    H229087   3.456   6.644   0.941 -1.2328  0.7877  1.3314
 9712TIP3   OH229088   5.432   4.869   0.912  0.1099 -0.5047 -0.1318
 9712TIP3    H129089   5.348   4.912   0.893  1.2447  2.7102  1.7173
 9712TIP3    H229090   5.464   4.841   0.826 -1.9583 -0.0904 -1.0856
 9713TIP3   OH229091   2.464   4.856   5.992  0.0850 -0.2466 -0.2382
 9713TIP3    H129092   2.455   4.765   6.018 -0.2126 -0.1806 -0.1081
 9713TIP3    H229093   2.461   4.854   5.896  1.3776 -0.5100 -0.2778
 9714TIP3   OH229094   2.019   6.036   5.992  0.0430  0.1165  0.3527
 9714TIP3    H129095   1.959   6.020   5.919 -0.8719  2.4615  0.5714
 9714TIP3    H229096   1.971   6.005   6.069 -0.0378  0.0840  0.2897
 9715TIP3   OH229097   2.867   6.809   0.392  0.6268 -0.2967 -0.8575
 9715TIP3    H129098   2.782   6.780   0.359  0.1600  1.0052 -0.8629
 9715TIP3    H229099   2.901   6.868   0.325  0.5424  0.8658  0.0819
 9716TIP3   OH229100   7.639   1.701   0.508 -0.4033  0.5624 -0.0165
 9716TIP3    H129101   7.546   1.710   0.528 -0.3018  0.3105  0.5847
 9716TIP3    H229102   7.643   1.632   0.443 -0.5805  0.1182  0.4445
 9717TIP3   OH229103   0.624   3.033   6.425  0.7336 -0.2618 -0.0739
 9717TIP3    H129104   0.592   3.117   6.392  2.5051  0.5572  0.2235
 9717TIP3    H229105   0.715   3.029   6.396  0.8119 -1.8611  0.3480
 9718TIP3   OH229106   2.322   5.402   0.473  0.0137 -0.7258  0.2725
 9718TIP3    H129107   2.264   5.342   0.520 -0.8578 -0.9737 -1.0895
 9718TIP3    H229108   2.330   5.363   0.386  1.5964 -0.2673  0.2089
 9719TIP3   OH229109   1.237   5.572   0.535  0.0510 -0.0125 -0.4691
 9719TIP3    H129110   1.158   5.552   0.587  0.1638  0.4956 -0.0986
 9719TIP3    H229111   1.219   5.534   0.449 -1.2747  1.4669 -0.8778
 9720TIP3   OH229112   0.711   1.934   1.995 -0.4486 -0.1562  0.6833
 9720TIP3    H129113   0.740   1.848   2.025  0.9037  0.7372  2.0131
 9720TIP3    H229114   0.790   1.989   2.000 -1.4070  1.2759  0.2967
 9721TIP3   OH229115   0.915   3.497   4.234 -0.1828 -0.4728  0.3468
 9721TIP3    H129116   0.831   3.537   4.257 -0.1380 -0.1703  0.0040
 9721TIP3    H229117   0.945   3.455   4.314 -1.2940 -1.7202  0.1323
 9722TIP3   OH229118   7.083   6.420   4.771  0.3487 -0.0950  0.0913
 9722TIP3    H129119   7.093   6.388   4.682 -0.1574 -0.9563  0.3418
 9722TIP3    H229120   7.119   6.350   4.826 -0.3699 -0.0491  0.6188
 9723TIP3   OH229121   3.794   6.890   0.577 -0.1310  0.0370 -0.0273
 9723TIP3    H129122   3.804   6.985   0.567  0.2162 -0.0308 -0.3353
 9723TIP3    H229123   3.854   6.853   0.513 -1.1627 -0.3903 -0.7585
 9724TIP3   OH229124   5.828   6.976   1.161  0.6472 -0.5275  0.0405
 9724TIP3    H129125   5.878   6.894   1.160  2.2074  0.3817  0.9678
 9724TIP3    H229126   5.864   7.026   1.088  0.4960 -0.2218  0.1765
 9725TIP3   OH229127   1.010   3.698   6.051  0.1453  0.3707  0.2044
 9725TIP3    H129128   1.077   3.765   6.043  0.7527 -0.3071 -0.4846
 9725TIP3    H229129   0.943   3.724   5.986  0.6101  0.0426 -0.4081
 9726TIP3   OH229130   5.809   0.030   2.155  0.2347 -0.3043 -0.1161
 9726TIP3    H129131   5.894   0.032   2.110  0.1027 -0.4333 -0.3680
 9726TIP3    H229132   5.753   0.086   2.101 -0.0176 -0.7365 -0.2982
 9727TIP3   OH229133   6.893   0.605   1.415  0.2589 -0.4898 -0.2189
 9727TIP3    H129134   6.820   0.549   1.440 -0.0944  0.1695  0.2599
 9727TIP3    H229135   6.915   0.653   1.495  0.2914  0.3341 -0.7175
 9728TIP3   OH229136   5.911   1.238   0.694 -0.0906  0.1648  0.7282
 9728TIP3    H129137   5.860   1.210   0.619 -1.2651  1.1680  1.1339
 9728TIP3    H229138   5.944   1.325   0.669  0.1830  0.1607  1.0680
 9729TIP3   OH229139   5.453   0.444   0.637  0.6342  0.5452 -0.1013
 9729TIP3    H129140   5.436   0.407   0.724  0.0722  0.2216 -0.3511
 9729TIP3    H229141   5.541   0.413   0.614  1.1363  1.3290  0.7202
 9730TIP3   OH229142   0.777   2.142   6.212  0.0607  0.1879 -0.2204
 9730TIP3    H129143   0.701   2.184   6.171  1.9598  1.9553 -2.0657
 9730TIP3    H229144   0.753   2.134   6.304 -2.6904 -0.0784 -0.9037
 9731TIP3   OH229145   4.302   6.729   2.040 -0.3436  0.6872  0.2887
 9731TIP3    H129146   4.240   6.692   2.103  0.2473 -0.4570  0.2044
 9731TIP3    H229147   4.249   6.789   1.987 -1.4653 -0.5734 -0.0276
 9732TIP3   OH229148   5.127   3.775   2.912  0.3258  0.1660  0.3618
 9732TIP3    H129149   5.084   3.831   2.846  0.9516  1.5192  1.0766
 9732TIP3    H229150   5.055   3.725   2.951 -0.2002  0.1886 -0.5483
 9733TIP3   OH229151   5.688   1.491   0.113 -0.2926 -0.8639  0.1323
 9733TIP3    H129152   5.613   1.535   0.153  0.3942 -0.2233  0.7438
 9733TIP3    H229153   5.723   1.554   0.051  0.1864 -0.8703  0.3914
 9734TIP3   OH229154   2.311   3.897   5.949 -0.0063  0.2542 -0.3477
 9734TIP3    H129155   2.376   3.882   5.880 -3.5344  0.2237 -3.8461
 9734TIP3    H229156   2.254   3.820   5.945 -2.2788  1.8526  0.2194
 9735TIP3   OH229157   4.060   7.365   0.595 -0.1305 -0.4709 -0.1551
 9735TIP3    H129158   4.092   7.343   0.682 -0.6583 -0.0222  0.1553
 9735TIP3    H229159   4.018   7.451   0.605 -1.4286 -1.0494 -0.5452
 9736TIP3   OH229160   1.364   3.456   5.557  0.2398  0.7840 -0.1829
 9736TIP3    H129161   1.301   3.392   5.589  2.8002 -0.6511  2.2423
 9736TIP3    H229162   1.376   3.435   5.465 -1.4981 -0.0352 -0.2338
 9737TIP3   OH229163   7.294   3.012   3.375 -0.0594 -0.4199 -1.1797
 9737TIP3    H129164   7.354   2.952   3.331  1.5212  0.8622 -0.8330
 9737TIP3    H229165   7.212   2.963   3.383  1.0223 -2.3118 -1.3892
 9738TIP3   OH229166   4.899   6.700   2.443  0.8661 -0.1373 -0.4772
 9738TIP3    H129167   4.830   6.703   2.509 -0.0533 -0.3149 -1.4155
 9738TIP3    H229168   4.921   6.792   2.427  0.1981 -0.0442 -0.8462
 9739TIP3   OH229169   4.430   5.975   1.429 -0.5004  0.5032 -0.1303
 9739TIP3    H129170   4.348   6.024   1.434 -0.5882  0.4639 -1.0659
 9739TIP3    H229171   4.475   6.011   1.352 -0.5187 -0.7873 -0.7634
 9740TIP3   OH229172   3.120   2.520   0.622  0.1049 -0.3012  0.6011
 9740TIP3    H129173   3.079   2.604   0.602  0.5514 -0.1302  0.3992
 9740TIP3    H229174   3.210   2.529   0.590  0.7499 -0.1195  2.3865
 9741TIP3   OH229175   1.021   2.837   6.156 -0.1044  0.1836  1.3796
 9741TIP3    H129176   1.057   2.769   6.099 -0.2671  0.4597  0.9446
 9741TIP3    H229177   0.929   2.844   6.131  0.3911  2.0311 -0.0451
 9742TIP3   OH229178   5.883   5.818   0.583  0.0072 -0.3931  0.0875
 9742TIP3    H129179   5.836   5.748   0.537 -1.5692  0.2621  0.6741
 9742TIP3    H229180   5.973   5.812   0.549 -0.8254 -0.7039 -2.1962
 9743TIP3   OH229181   1.852   5.540   4.792  0.0177  0.7216 -0.2092
 9743TIP3    H129182   1.926   5.523   4.734 -1.3050  2.5708 -2.5081
 9743TIP3    H229183   1.787   5.474   4.767  1.1790 -1.5352  2.4745
 9744TIP3   OH229184   3.888   0.951   0.720  0.1997  0.0600  0.5397
 9744TIP3    H129185   3.919   0.865   0.693 -2.6386 -0.0917 -2.4865
 9744TIP3    H229186   3.898   0.951   0.816  1.2693 -3.1590  0.4894
 9745TIP3   OH229187   2.370   4.372   5.839 -0.2589 -0.1404  0.3249
 9745TIP3    H129188   2.445   4.423   5.868 -0.1616  1.1136 -2.0275
 9745TIP3    H229189   2.294   4.426   5.862 -0.2182  0.5127 -1.0504
 9746TIP3   OH229190   3.445   6.996   1.361 -0.4195  0.0528  0.4743
 9746TIP3    H129191   3.405   6.928   1.415  1.1465 -0.6783  0.7435
 9746TIP3    H229192   3.539   6.987   1.377  0.0350  0.1476 -2.0141
 9747TIP3   OH229193   0.180   2.645   5.336 -0.6995 -0.1781 -0.1925
 9747TIP3    H129194   0.221   2.661   5.421 -1.6027 -0.5774  0.3315
 9747TIP3    H229195   0.252   2.624   5.278  0.0542  1.3094  0.1748
 9748TIP3   OH229196   1.558   2.738   5.701  0.6561  0.0285 -0.1543
 9748TIP3    H129197   1.604   2.781   5.773  0.8568 -1.0001  0.3412
 9748TIP3    H229198   1.616   2.747   5.626  1.0452 -0.0697  0.1377
 9749TIP3   OH229199   4.979   0.932   2.221  0.3176 -0.1641 -0.0436
 9749TIP3    H129200   4.998   0.847   2.262 -0.5100 -0.8732 -1.0936
 9749TIP3    H229201   4.923   0.977   2.284  1.2302 -0.1676  0.7707
 9750TIP3   OH229202   4.833   5.236   3.916  0.0908 -0.5309 -0.3625
 9750TIP3    H129203   4.889   5.184   3.859  2.6592 -1.0058  2.4987
 9750TIP3    H229204   4.801   5.174   3.982 -1.0977  0.4426  0.0061
 9751TIP3   OH229205   5.231   4.621   1.421 -0.6263 -0.2960 -0.0302
 9751TIP3    H129206   5.264   4.701   1.378 -2.4392  1.4550  1.7165
 9751TIP3    H229207   5.254   4.632   1.513  0.5556 -2.6083 -0.0105
 9752TIP3   OH229208   4.176   5.115   2.329  0.1453 -0.5282  0.0609
 9752TIP3    H129209   4.150   5.022   2.328  0.0222 -0.5081  0.7524
 9752TIP3    H229210   4.270   5.114   2.309  0.0016 -0.7479 -0.6098
 9753TIP3   OH229211   5.939   0.339   0.880 -0.1438  0.2081 -0.0947
 9753TIP3    H129212   5.991   0.386   0.946 -0.2406 -0.6114  0.5633
 9753TIP3    H229213   5.861   0.393   0.868  0.0393  0.5399  0.2019
 9754TIP3   OH229214   5.069   7.224   1.316 -0.1881  0.0109  0.0668
 9754TIP3    H129215   5.091   7.264   1.232 -0.5833  0.6894  0.2839
 9754TIP3    H229216   5.153   7.215   1.361 -0.0250  0.0142 -0.2364
 9755TIP3   OH229217   5.825   7.377   0.837  0.0211 -0.5434 -0.5196
 9755TIP3    H129218   5.777   7.422   0.906 -0.7668 -0.8919 -0.8309
 9755TIP3    H229219   5.882   7.444   0.799  0.0154 -0.2058  0.0696
 9756TIP3   OH229220   1.838   5.847   4.064 -0.3246  0.0292 -0.2846
 9756TIP3    H129221   1.864   5.862   3.973 -4.3141 -0.1204 -1.5643
 9756TIP3    H229222   1.841   5.934   4.105 -0.5568  0.4650 -1.1808
 9757TIP3   OH229223   4.817   2.642   2.991  0.3007  0.0109  0.4816
 9757TIP3    H129224   4.779   2.627   3.077 -0.1639 -0.1233  0.2500
 9757TIP3    H229225   4.837   2.736   2.990  0.1211  0.0515  0.6578
 9758TIP3   OH229226   7.620   1.551   0.749 -0.2339  0.2286  0.2589
 9758TIP3    H129227   7.700   1.521   0.792 -0.6610 -0.1066  0.8298
 9758TIP3    H229228   7.650   1.608   0.679  0.4058  2.0757  2.0036
 9759TIP3   OH229229   1.876   5.892   6.206 -1.0053  0.0751 -0.2501
 9759TIP3    H129230   1.909   5.803   6.190 -0.7030  0.1281  0.0569
 9759TIP3    H229231   1.863   5.895   6.301 -0.2789  0.6053 -0.1583
 9760TIP3   OH229232   2.867   5.992   1.273 -0.1911  0.5525 -0.1271
 9760TIP3    H129233   2.898   6.002   1.182  0.4866 -1.8445 -0.2015
 9760TIP3    H229234   2.777   5.962   1.264  0.0060 -0.0729 -0.0131
 9761TIP3   OH229235   0.310   2.860   5.533 -0.7453 -0.2921 -0.4906
 9761TIP3    H129236   0.392   2.813   5.544 -0.2094  1.0523  1.3652
 9761TIP3    H229237   0.257   2.836   5.609 -2.0603 -1.0521 -1.6035
 9762TIP3   OH229238   2.348   2.648   4.776  0.0617 -0.0754  0.2619
 9762TIP3    H129239   2.346   2.712   4.846 -2.0993 -0.9505  1.0446
 9762TIP3    H229240   2.425   2.671   4.724 -0.0112  2.4005  1.1990
 9763TIP3   OH229241   6.883   0.444   0.198 -0.1640 -0.1466 -0.0890
 9763TIP3    H129242   6.898   0.421   0.107  1.3307  0.1501  0.0816
 9763TIP3    H229243   6.842   0.366   0.236  0.3445 -0.7155 -0.7024
 9764TIP3   OH229244   2.335   7.036   0.429 -0.0050 -0.7796  0.4912
 9764TIP3    H129245   2.307   6.946   0.414  2.3394 -1.3941 -0.4196
 9764TIP3    H229246   2.407   7.049   0.367 -0.3363  1.7278  0.5997
 9765TIP3   OH229247   7.033   0.816   2.793 -0.1306 -0.7750 -0.2416
 9765TIP3    H129248   6.950   0.800   2.749  0.8838 -0.9154 -2.1571
 9765TIP3    H229249   7.065   0.898   2.756  0.5519 -0.6721  0.5467
 9766TIP3   OH229250   1.844   4.014   5.768  0.1028  0.3779  0.1243
 9766TIP3    H129251   1.853   4.063   5.686  2.3924  1.9953  1.2845
 9766TIP3    H229252   1.784   4.067   5.821 -1.0058 -0.4266 -0.3128
 9767TIP3   OH229253   2.672   5.438   0.481 -0.3765  0.0740  0.4173
 9767TIP3    H129254   2.616   5.500   0.434 -0.3567  0.0228  0.3274
 9767TIP3    H229255   2.701   5.487   0.558  1.2985  0.8690 -0.6978
 9768TIP3   OH229256   4.258   3.816   0.257  0.1027 -0.4964  0.0593
 9768TIP3    H129257   4.170   3.824   0.293  0.2392 -0.1497  0.3132
 9768TIP3    H229258   4.249   3.753   0.186  0.0620 -2.1131  1.4557
 9769TIP3   OH229259   5.322   0.027   2.010 -0.4280  0.9653  0.0442
 9769TIP3    H129260   5.335  -0.026   2.089 -1.9192  1.2062  0.4761
 9769TIP3    H229261   5.397   0.007   1.955  1.6810  2.2682  2.3356
 9770TIP3   OH229262   1.971   6.584   0.521  0.1601 -0.1344  0.1807
 9770TIP3    H129263   1.970   6.491   0.502  1.1118  0.1558 -1.4088
 9770TIP3    H229264   1.987   6.590   0.615  1.3192 -1.5549  0.0816
 9771TIP3   OH229265   0.314   1.188   6.110 -0.5651 -0.2290  0.2124
 9771TIP3    H129266   0.226   1.160   6.086  0.4422 -1.7489 -1.9753
 9771TIP3    H229267   0.342   1.244   6.037  1.4909 -2.5513 -0.8979
 9772TIP3   OH229268   2.162   3.616   6.327  0.5115  0.7289 -1.1194
 9772TIP3    H129269   2.239   3.638   6.380  0.6487  0.6693 -1.2941
 9772TIP3    H229270   2.088   3.638   6.383  0.6467  1.3330 -1.1755
 9773TIP3   OH229271   5.505   1.760   1.031  0.2347 -0.2101  0.7727
 9773TIP3    H129272   5.413   1.739   1.044 -0.1341  0.3436 -0.8610
 9773TIP3    H229273   5.506   1.825   0.961  1.7453  1.0915  1.9468
 9774TIP3   OH229274   3.798   6.967   0.263 -0.0869  0.1767 -0.1724
 9774TIP3    H129275   3.821   6.971   0.170 -0.7912  0.8429 -0.3287
 9774TIP3    H229276   3.708   7.000   0.266 -0.3981 -0.7096  0.6322
 9775TIP3   OH229277   0.702   3.189   5.580  0.1981 -0.3854 -0.2755
 9775TIP3    H129278   0.769   3.225   5.522  0.6570 -0.0009  0.4940
 9775TIP3    H229279   0.619   3.219   5.543  0.5972  2.0842  0.7779
 9776TIP3   OH229280   2.930   5.680   6.295 -0.5308 -0.0624  0.0250
 9776TIP3    H129281   2.988   5.723   6.357 -0.9118 -0.3794  0.6132
 9776TIP3    H229282   2.842   5.699   6.327 -0.7667  0.6504 -1.0169
 9777TIP3   OH229283   1.547   3.376   5.740 -0.0124  0.6944 -0.5771
 9777TIP3    H129284   1.621   3.436   5.744 -0.5747  1.3422  0.3384
 9777TIP3    H229285   1.480   3.424   5.690 -0.2318  0.5735 -0.4006
 9778TIP3   OH229286   1.140   0.439   1.220 -1.1201 -0.5292  0.6106
 9778TIP3    H129287   1.150   0.344   1.230  3.1744 -0.5413 -2.4403
 9778TIP3    H229288   1.187   0.476   1.294 -1.8079 -0.7456  1.1630
 9779TIP3   OH229289   0.791   2.028   0.311 -0.1964 -0.0168  0.2381
 9779TIP3    H129290   0.781   2.111   0.357 -0.5111  1.5606 -2.5710
 9779TIP3    H229291   0.741   1.966   0.363 -1.5817  1.9696  1.3495
 9780TIP3   OH229292   1.564   3.162   5.527 -0.5789  0.1618 -0.1983
 9780TIP3    H129293   1.655   3.140   5.507 -1.2122 -1.7613 -1.1158
 9780TIP3    H229294   1.564   3.185   5.620  0.9610  0.9071 -0.3683
 9781TIP3   OH229295   0.328   3.884   0.452 -0.1013  0.3022  0.6563
 9781TIP3    H129296   0.338   3.915   0.362  0.4286  0.0480  0.6267
 9781TIP3    H229297   0.278   3.954   0.496  1.0498  1.1849  0.5852
 9782TIP3   OH229298   7.423   1.108   0.077 -0.6877 -0.1170 -0.3815
 9782TIP3    H129299   7.480   1.032   0.067 -0.9584 -0.4543  0.6246
 9782TIP3    H229300   7.477   1.173   0.122 -1.2772 -0.6702  1.1757
 9783TIP3   OH229301   2.592   2.914   6.468 -0.6953  0.2194  0.0366
 9783TIP3    H129302   2.573   2.963   6.388  0.1924 -0.6985 -0.7482
 9783TIP3    H229303   2.601   2.823   6.439 -1.0315 -0.2203  1.2842
 9784TIP3   OH229304   2.124   4.697   0.249  0.3589 -0.3628 -0.2419
 9784TIP3    H129305   2.167   4.628   0.299  1.1415  0.1880 -0.1594
 9784TIP3    H229306   2.187   4.721   0.181 -0.1377 -0.1120 -0.6250
 9785TIP3   OH229307   0.339   1.269   2.279  0.3562 -0.5434  0.3338
 9785TIP3    H129308   0.424   1.293   2.243 -0.2954  0.5712 -0.5177
 9785TIP3    H229309   0.348   1.281   2.373  1.1409 -0.4467  0.2518
 9786TIP3   OH229310   1.934   1.394   0.487 -0.6508  0.1043 -0.3355
 9786TIP3    H129311   1.982   1.320   0.451  2.1731  1.5778  0.2238
 9786TIP3    H229312   1.970   1.406   0.575 -3.0798  0.3994  0.6501
 9787TIP3   OH229313   6.421   6.234   0.391  0.1135  0.3817 -0.0714
 9787TIP3    H129314   6.390   6.155   0.435  1.0957  1.1685  2.1223
 9787TIP3    H229315   6.479   6.202   0.323 -0.9769 -0.8558 -0.4370
 9788TIP3   OH229316   2.920   4.764   6.411  0.2120  0.3817  0.0318
 9788TIP3    H129317   2.993   4.707   6.389 -0.3540 -0.1757 -0.4187
 9788TIP3    H229318   2.843   4.708   6.406 -0.0983  0.6115  1.9464
 9789TIP3   OH229319   0.244   1.658   0.298 -0.3399 -0.1116 -0.1048
 9789TIP3    H129320   0.172   1.717   0.274 -0.6555 -0.2343  0.5163
 9789TIP3    H229321   0.232   1.581   0.243 -1.4087 -0.6466  0.8397
 9790TIP3   OH229322   6.161   6.129   0.860  0.1858 -0.8060 -0.0660
 9790TIP3    H129323   6.081   6.129   0.808 -1.1199 -0.0050  1.8907
 9790TIP3    H229324   6.138   6.084   0.941  1.9603 -1.3307  0.1804
 9791TIP3   OH229325   1.078   4.263   5.608 -0.0864  0.1630  0.3396
 9791TIP3    H129326   1.000   4.252   5.661 -1.5351  0.3927 -1.6841
 9791TIP3    H229327   1.118   4.176   5.605 -0.6063 -0.0916  0.8695
 9792TIP3   OH229328   6.618   1.252   1.322 -0.3886  1.0713  0.1917
 9792TIP3    H129329   6.647   1.340   1.344  0.4057  0.6581  0.8226
 9792TIP3    H229330   6.596   1.212   1.406  0.6335  0.1914  0.0505
 9793TIP3   OH229331   5.003   5.865   0.052 -0.1287 -0.4351 -0.3573
 9793TIP3    H129332   4.956   5.854  -0.031 -0.8428  0.2692 -0.0542
 9793TIP3    H229333   4.934   5.882   0.116  0.4017 -1.2001  0.4267
 9794TIP3   OH229334   3.195   5.268   6.465 -0.0586 -0.1227 -0.6530
 9794TIP3    H129335   3.181   5.237   6.376  0.4399 -0.4261 -0.6299
 9794TIP3    H229336   3.140   5.346   6.473 -0.0317 -0.0409 -1.2563
 9795TIP3   OH229337   2.356   4.635   6.457  0.2602 -0.1525  0.1028
 9795TIP3    H129338   2.397   4.666   6.377  1.1204 -3.3324 -0.7624
 9795TIP3    H229339   2.427   4.591   6.505 -0.3006  1.4486  2.4979
 9796TIP3   OH229340   5.058   4.137   0.722 -0.0019 -0.4276  0.5812
 9796TIP3    H129341   5.152   4.138   0.740  0.5150 -3.1804 -1.6154
 9796TIP3    H229342   5.040   4.225   0.688  1.3269  0.8045  2.9078
 9797TIP3   OH229343   0.854   2.851   5.848  0.1189  0.7538  0.2617
 9797TIP3    H129344   0.948   2.865   5.858  0.2141 -0.1225  0.6298
 9797TIP3    H229345   0.823   2.832   5.937 -0.1809 -0.2959 -0.0654
 9798TIP3   OH229346   2.681   2.739   5.554 -0.1377  0.0324  0.0644
 9798TIP3    H129347   2.689   2.748   5.649  0.4593 -1.2394  0.1421
 9798TIP3    H229348   2.757   2.787   5.519 -1.4427  2.2140  0.1263
 9799TIP3   OH229349   5.928   5.795   0.224 -0.2557  0.0887 -0.5730
 9799TIP3    H129350   5.865   5.859   0.257 -0.6178  0.1499 -1.3802
 9799TIP3    H229351   5.947   5.739   0.299  0.1392  1.2007  0.1695
 9800TIP3   OH229352   6.711   6.010   0.974  0.7826  0.5765 -0.0273
 9800TIP3    H129353   6.705   5.955   1.052 -1.0885  0.9783  0.1321
 9800TIP3    H229354   6.634   5.988   0.922  1.5287  0.9717 -1.3499
 9801TIP3   OH229355   4.499   5.745   1.305  0.2385 -0.2407  0.1402
 9801TIP3    H129356   4.533   5.771   1.219  0.4184 -2.1949 -0.4070
 9801TIP3    H229357   4.449   5.821   1.335  0.6511  0.6759 -1.4396
 9802TIP3   OH229358   5.040   7.207   5.089  0.6173 -0.2863 -0.0443
 9802TIP3    H129359   5.015   7.152   5.015  1.3440  0.8096 -1.1316
 9802TIP3    H229360   5.096   7.151   5.143 -1.3178 -1.6430  0.5910
 9803TIP3   OH229361   3.187   5.308   5.635 -0.6518  0.8135  0.0629
 9803TIP3    H129362   3.204   5.402   5.640 -0.6742  0.7940  0.5093
 9803TIP3    H229363   3.130   5.290   5.710 -0.6785  0.4504 -0.0442
 9804TIP3   OH229364   2.894   7.138   6.347  0.3703  0.3004 -0.0316
 9804TIP3    H129365   2.865   7.194   6.419  2.9619 -0.6654  1.8750
 9804TIP3    H229366   2.940   7.198   6.287  1.2247  0.5931  0.8951
 9805TIP3   OH229367   2.893   5.104   6.273 -0.1007 -0.5236  0.3855
 9805TIP3    H129368   2.808   5.070   6.302 -0.0299 -0.2540  0.9170
 9805TIP3    H229369   2.927   5.152   6.348 -0.2015  0.7329 -0.3435
 9806TIP3   OH229370   3.243   3.578   4.412  0.0899  0.3807  0.2103
 9806TIP3    H129371   3.189   3.503   4.438  3.6429 -2.9964 -1.6027
 9806TIP3    H229372   3.189   3.626   4.350 -2.0053 -1.1420  0.7883
 9807TIP3   OH229373   3.156   6.102   5.034  0.1160 -0.4454  0.4836
 9807TIP3    H129374   3.096   6.091   5.108  1.1496  0.5419  1.5019
 9807TIP3    H229375   3.126   6.183   4.991  0.7005  0.0587  1.0034
 9808TIP3   OH229376   4.086   7.119   5.049 -0.1088 -0.4276  0.1498
 9808TIP3    H129377   4.077   7.048   4.985  0.7728 -0.4844  0.0830
 9808TIP3    H229378   4.111   7.195   4.997  1.3010 -0.6367  0.4937
 9809TIP3   OH229379   0.458   1.340   0.444 -0.3461  0.2634  0.8027
 9809TIP3    H129380   0.487   1.431   0.448 -0.2654  0.1822  2.3935
 9809TIP3    H229381   0.496   1.306   0.363 -1.3489  1.9662 -0.4056
 9810TIP3   OH229382   3.648   6.138   5.146 -0.0460  0.1581 -0.4112
 9810TIP3    H129383   3.666   6.125   5.053 -0.9788 -1.0156 -0.4393
 9810TIP3    H229384   3.565   6.092   5.162  1.8698 -2.7825  1.7485
 9811TIP3   OH229385   2.752   5.416   3.958 -0.5582  0.0572  0.0740
 9811TIP3    H129386   2.759   5.489   3.896 -1.1009  0.3323  0.3278
 9811TIP3    H229387   2.726   5.458   4.040  3.5650  0.1427  1.4394
 9812TIP3   OH229388   0.618   5.638   4.999 -0.1937 -0.5704 -0.0650
 9812TIP3    H129389   0.599   5.730   4.984 -1.4272 -0.4991  1.7578
 9812TIP3    H229390   0.677   5.638   5.075  0.0497 -1.2675 -0.2459
 9813TIP3   OH229391   0.437   1.717   0.830 -0.3641 -0.1611 -0.4242
 9813TIP3    H129392   0.420   1.707   0.737 -0.6379  0.2136 -0.4143
 9813TIP3    H229393   0.468   1.631   0.858  1.0476  0.0895 -1.1416
 9814TIP3   OH229394   1.324   1.697   1.711  0.2660  0.0934 -0.1350
 9814TIP3    H129395   1.359   1.772   1.759  1.7360 -0.0823 -0.9257
 9814TIP3    H229396   1.304   1.632   1.779 -1.7779  1.4846  0.6340
 9815TIP3   OH229397   1.120   0.556   0.058  0.4386 -0.0065 -0.0019
 9815TIP3    H129398   1.137   0.612  -0.018  0.4270 -2.0499 -1.5705
 9815TIP3    H229399   1.030   0.575   0.082  0.7850  1.4470  0.2067
 9816TIP3   OH229400   7.895   0.455   0.885 -0.3529 -0.1978 -0.1020
 9816TIP3    H129401   7.863   0.386   0.943  0.9504 -0.6812  0.0528
 9816TIP3    H229402   7.821   0.515   0.877 -1.1278 -1.0280  0.6610
 9817TIP3   OH229403   3.982   5.686   4.888  0.6632  0.0753 -0.6188
 9817TIP3    H129404   4.015   5.692   4.978  0.0876  0.6302 -0.4390
 9817TIP3    H229405   3.921   5.759   4.880 -1.1202 -1.3984 -0.6929
 9818TIP3   OH229406   2.098   4.723   4.911  0.1339 -0.2636 -0.0718
 9818TIP3    H129407   2.082   4.802   4.860  0.4145 -0.4900 -0.5253
 9818TIP3    H229408   2.192   4.726   4.931  0.0507 -0.2464  0.3088
 9819TIP3   OH229409   1.195   4.895   6.047  0.1985 -0.1307 -0.5045
 9819TIP3    H129410   1.288   4.906   6.025  1.3358 -2.2067  2.8836
 9819TIP3    H229411   1.180   4.960   6.116 -0.1744 -1.4689  0.6946
 9820TIP3   OH229412   3.072   4.684   3.803  0.2361 -0.2668  0.5519
 9820TIP3    H129413   2.984   4.702   3.837  0.7134 -0.0428  1.6784
 9820TIP3    H229414   3.123   4.762   3.826  0.6139 -0.1796 -0.5431
 9821TIP3   OH229415   4.947   0.401   1.978  0.0143 -0.3998  0.3501
 9821TIP3    H129416   4.932   0.377   1.886 -1.3982  0.8384  0.2439
 9821TIP3    H229417   4.988   0.323   2.016 -1.5323 -1.8098 -0.7672
 9822TIP3   OH229418   1.834   7.071   6.047  0.4907 -0.2661  0.0771
 9822TIP3    H129419   1.813   7.087   5.955  1.7075  0.5610 -0.0744
 9822TIP3    H229420   1.827   7.157   6.089  0.6148 -0.5129  0.6113
 9823TIP3   OH229421   0.643   4.264   0.260  0.4453 -0.3970 -0.0554
 9823TIP3    H129422   0.708   4.334   0.261 -0.8012  0.7814  0.6236
 9823TIP3    H229423   0.668   4.208   0.333 -0.0437  0.7579  1.0128
 9824TIP3   OH229424   0.020   3.952   0.205 -0.0416 -0.5540  0.5009
 9824TIP3    H129425   0.088   4.010   0.170 -0.1763  1.1436  2.9007
 9824TIP3    H229426  -0.054   3.961   0.144  1.3484 -1.3320 -1.3480
 9825TIP3   OH229427   1.133   4.212   4.184  0.0405 -0.6216 -0.3163
 9825TIP3    H129428   1.063   4.160   4.224 -1.2898  1.4367  0.0945
 9825TIP3    H229429   1.093   4.296   4.165  2.0755  0.1744 -1.2539
 9826TIP3   OH229430   3.522   4.721   5.848 -0.4746  1.0697 -0.6292
 9826TIP3    H129431   3.493   4.704   5.937 -1.2622  4.2081 -0.2085
 9826TIP3    H229432   3.596   4.781   5.858  1.3689 -0.9068 -2.0045
 9827TIP3   OH229433   2.326   5.567   5.019 -0.0364  0.2068 -0.0951
 9827TIP3    H129434   2.333   5.475   4.996 -1.0567  0.5807 -1.9964
 9827TIP3    H229435   2.412   5.604   4.997  0.1546 -0.1544  0.0475
 9828TIP3   OH229436   7.280   1.797   1.323  0.6595  0.8714 -0.1459
 9828TIP3    H129437   7.341   1.739   1.278  0.4705  0.3424  0.2807
 9828TIP3    H229438   7.202   1.797   1.268  0.8115  1.0625 -0.3671
 9829TIP3   OH229439   5.767   6.882   0.855  0.2931 -0.0804  0.0643
 9829TIP3    H129440   5.711   6.913   0.783 -0.1326 -1.8339 -0.3789
 9829TIP3    H229441   5.821   6.958   0.877 -0.4595  0.8702 -1.2447
 9830TIP3   OH229442   1.433   5.743   5.633  0.8348  0.4357  0.0240
 9830TIP3    H129443   1.415   5.837   5.630  1.5458  0.6965  3.0237
 9830TIP3    H229444   1.353   5.704   5.667  1.3895  0.2240  1.0996
 9831TIP3   OH229445   0.950   0.225   0.629 -0.4445 -0.0604 -0.6210
 9831TIP3    H129446   0.970   0.199   0.539 -0.9657 -1.3327 -0.3741
 9831TIP3    H229447   0.971   0.148   0.682  0.4322  0.8827  0.4218
 9832TIP3   OH229448   0.719   1.764   6.356 -0.0373 -0.4773  0.0424
 9832TIP3    H129449   0.668   1.735   6.280 -0.0579 -0.3524  0.0088
 9832TIP3    H229450   0.661   1.825   6.402  0.2334 -0.0190 -0.2179
 9833TIP3   OH229451   2.744   5.365   4.372 -0.0334 -0.5822  0.2102
 9833TIP3    H129452   2.678   5.296   4.379 -0.2787 -0.2183  1.6088
 9833TIP3    H229453   2.736   5.414   4.454 -0.3165  1.5263 -1.0393
 9834TIP3   OH229454   2.556   4.536   5.074  0.5639 -0.1902  0.4666
 9834TIP3    H129455   2.523   4.540   4.984  0.4925  0.0364  0.5041
 9834TIP3    H229456   2.560   4.442   5.093 -0.3996 -0.2039  0.5904
 9835TIP3   OH229457   0.972   3.484   2.446  0.1950 -0.0068 -0.0938
 9835TIP3    H129458   1.043   3.544   2.427 -1.0945  0.8324 -2.4914
 9835TIP3    H229459   0.901   3.540   2.477  0.4568 -0.7960  1.9461
 9836TIP3   OH229460   2.647   2.608   6.085 -0.0357  0.2447  0.1385
 9836TIP3    H129461   2.574   2.568   6.037  0.1060 -0.1564  0.2550
 9836TIP3    H229462   2.612   2.622   6.173 -0.2369  0.8106 -0.0335
 9837TIP3   OH229463   3.302   3.159   5.284 -0.1649  0.3796  0.4554
 9837TIP3    H129464   3.317   3.115   5.201 -0.4676  0.8329  0.1597
 9837TIP3    H229465   3.262   3.092   5.340 -1.9116  0.6620 -0.4363
 9838TIP3   OH229466   5.762   1.834   0.243  0.1496 -0.0466 -0.3469
 9838TIP3    H129467   5.816   1.860   0.318  0.3855 -1.9861  0.1850
 9838TIP3    H229468   5.751   1.914   0.192  0.5249  1.1618  1.4249
 9839TIP3   OH229469   5.988   6.997   0.215  0.4219  0.0553 -0.0618
 9839TIP3    H129470   5.981   7.036   0.128  1.4041  0.3014 -0.0344
 9839TIP3    H229471   6.003   7.072   0.273  1.0223 -0.2330  0.1546
 9840TIP3   OH229472   5.610   6.988   0.666 -0.0243 -0.4271  0.0561
 9840TIP3    H129473   5.541   7.034   0.618  0.3050 -0.8899 -0.8911
 9840TIP3    H229474   5.630   6.912   0.611  0.3732 -0.9701  0.9374
 9841TIP3   OH229475   7.458   0.912   1.156 -0.0759 -0.5650 -0.2186
 9841TIP3    H129476   7.522   0.963   1.205  0.3683 -0.0403 -1.3077
 9841TIP3    H229477   7.436   0.838   1.213  0.3561  0.0703  0.7830
 9842TIP3   OH229478   4.907   6.402   1.607  0.2185 -0.5209  0.3738
 9842TIP3    H129479   4.935   6.345   1.535 -0.1041  0.1863 -0.3178
 9842TIP3    H229480   4.989   6.439   1.641  0.2455  0.6603 -0.9124
 9843TIP3   OH229481   0.098   2.330   6.223 -0.0801  0.3297 -0.7757
 9843TIP3    H129482   0.130   2.406   6.174 -1.8829  1.0679 -0.8550
 9843TIP3    H229483   0.108   2.256   6.163  2.7743  0.2788 -0.2887
 9844TIP3   OH229484   0.235   2.899   0.258  0.2381  0.5103 -0.1529
 9844TIP3    H129485   0.246   2.807   0.282 -0.5863  0.7281  1.0959
 9844TIP3    H229486   0.217   2.943   0.340 -1.7226  1.4216 -1.0409
 9845TIP3   OH229487   4.734   5.800   1.420 -0.0501 -0.4492  0.5829
 9845TIP3    H129488   4.652   5.759   1.393 -1.4384  1.0890  2.3195
 9845TIP3    H229489   4.766   5.745   1.492  0.3367 -0.9204  0.0554
 9846TIP3   OH229490   7.552   2.053   6.163  0.2618 -0.5422 -0.0913
 9846TIP3    H129491   7.530   1.995   6.236  0.2331  0.0399  0.3614
 9846TIP3    H229492   7.621   2.110   6.198  0.4149 -0.4206 -0.5919
 9847TIP3   OH229493   7.805   1.959   1.997  0.1112 -0.3944  0.0162
 9847TIP3    H129494   7.717   1.935   1.965  0.0979 -0.9843  0.4845
 9847TIP3    H229495   7.807   2.054   1.993 -0.1376 -0.4253 -1.1147
 9848TIP3   OH229496   4.801   5.997   3.000  0.0903  0.4676  0.2984
 9848TIP3    H129497   4.782   6.046   2.920 -1.0274  0.6693  0.6718
 9848TIP3    H229498   4.735   6.028   3.063  0.0312 -0.7517  0.8447
 9849TIP3   OH229499   2.441   3.182   5.725 -0.1065  0.3903  0.3157
 9849TIP3    H129500   2.392   3.131   5.661 -0.3272  2.0101 -0.8317
 9849TIP3    H229501   2.533   3.172   5.698  0.0068 -0.7698  1.1030
 9850TIP3   OH229502   2.272   7.021   6.440  0.4998  0.1963 -0.5585
 9850TIP3    H129503   2.340   7.009   6.373  1.7688  0.2697  0.7078
 9850TIP3    H229504   2.316   7.003   6.523 -1.1533 -0.2123  0.2450
 9851TIP3   OH229505   4.940   0.128   4.249  0.2875 -0.0890  0.6036
 9851TIP3    H129506   4.938   0.036   4.225 -0.9468  0.4198 -1.3601
 9851TIP3    H229507   5.008   0.166   4.194 -0.1196  0.4226  0.4491
 9852TIP3   OH229508   1.904   2.357   6.004 -0.2587  0.2092 -0.0736
 9852TIP3    H129509   1.980   2.406   5.972 -0.7263  0.8290 -0.2244
 9852TIP3    H229510   1.905   2.372   6.099  0.6049 -0.9055  0.1134
 9853TIP3   OH229511   1.826   3.048   5.406  0.4284  0.3877 -0.1686
 9853TIP3    H129512   1.891   3.083   5.467  0.6178  1.3941 -0.9248
 9853TIP3    H229513   1.877   3.017   5.331  0.4627 -3.8146  1.5163
 9854TIP3   OH229514   3.307   4.151   5.142 -0.2466 -0.3242  0.0044
 9854TIP3    H129515   3.327   4.215   5.210 -0.1744 -1.3607  0.9725
 9854TIP3    H229516   3.260   4.200   5.075 -0.2420  0.7232  0.7689
 9855TIP3   OH229517   1.575   0.867   1.149  0.2058 -0.5328  0.3311
 9855TIP3    H129518   1.552   0.897   1.061  0.2405 -0.9583  0.1770
 9855TIP3    H229519   1.647   0.805   1.136  0.1327 -0.6872  0.6479
 9856TIP3   OH229520   5.665   6.505   0.717  0.3821  0.2459  0.5027
 9856TIP3    H129521   5.599   6.503   0.787 -1.2891 -0.4108 -1.0469
 9856TIP3    H229522   5.749   6.497   0.763 -0.7496 -1.8264  2.3373
 9857TIP3   OH229523   1.440   6.057   6.001  0.7868 -0.7106 -0.0634
 9857TIP3    H129524   1.491   6.090   5.927  0.7637  0.5331  0.4522
 9857TIP3    H229525   1.503   6.008   6.053  1.0674 -0.6193 -0.3152
 9858TIP3   OH229526   6.255   6.507   1.838  0.2203  1.2179  0.4373
 9858TIP3    H129527   6.334   6.561   1.829  0.8625  0.9917  3.9869
 9858TIP3    H229528   6.199   6.557   1.898 -0.8830 -0.1966  0.6079
 9859TIP3   OH229529   4.818   7.050   0.168 -0.2938 -0.2006  0.3567
 9859TIP3    H129530   4.821   7.013   0.256  0.7197 -0.2931  0.2939
 9859TIP3    H229531   4.904   7.090   0.156 -0.5030  0.0036 -0.5058
 9860TIP3   OH229532   2.273   6.022   6.326 -0.5890 -0.5492  0.3500
 9860TIP3    H129533   2.337   5.966   6.371 -0.5663 -1.3524 -0.6766
 9860TIP3    H229534   2.267   5.986   6.238 -0.5018  1.1184 -0.3666
 9861TIP3   OH229535   5.549   1.356   3.909 -0.0770  0.1980 -0.0993
 9861TIP3    H129536   5.518   1.288   3.969  0.3615  0.4297  0.3841
 9861TIP3    H229537   5.471   1.410   3.893 -0.3857 -0.3163 -0.3525
 9862TIP3   OH229538   2.334   5.946   5.138  0.1179 -0.1391  0.0390
 9862TIP3    H129539   2.296   5.863   5.167  0.8625 -0.1980  0.8621
 9862TIP3    H229540   2.394   5.922   5.067  1.9828 -0.5820  1.7186
 9863TIP3   OH229541   0.445   4.688   2.538  0.5321 -0.5668 -0.0547
 9863TIP3    H129542   0.398   4.771   2.532 -0.9360 -1.2210  1.6771
 9863TIP3    H229543   0.529   4.710   2.578  1.7331  0.5970 -3.0603
 9864TIP3   OH229544   3.095   5.722   4.660 -0.1600 -0.4124  0.0936
 9864TIP3    H129545   3.041   5.684   4.729 -0.1309 -0.6183  0.0048
 9864TIP3    H229546   3.146   5.790   4.703  0.7743 -1.3805  0.5338
 9865TIP3   OH229547   1.414   0.152   2.939 -0.1216 -0.0994 -0.1615
 9865TIP3    H129548   1.408   0.080   3.003 -2.2615  0.6377  0.5205
 9865TIP3    H229549   1.327   0.192   2.941  1.0130  2.4577 -0.6025
 9866TIP3   OH229550   3.787   4.807   5.825 -0.5246 -0.9627  0.6292
 9866TIP3    H129551   3.784   4.898   5.855 -1.7922 -0.6737 -0.3253
 9866TIP3    H229552   3.851   4.765   5.882  1.3471  0.9374 -0.0088
 9867TIP3   OH229553   3.436   6.764   4.161  0.2507 -0.2683  0.2989
 9867TIP3    H129554   3.352   6.796   4.195  0.0030  0.0429 -0.6047
 9867TIP3    H229555   3.432   6.669   4.174  0.3676 -0.1106  1.6051
 9868TIP3   OH229556   3.611   4.572   5.394 -0.0067  0.3622  0.5277
 9868TIP3    H129557   3.523   4.602   5.370 -0.6626 -2.7885 -1.3439
 9868TIP3    H229558   3.608   4.565   5.489 -2.0042 -0.2466  0.4541
 9869TIP3   OH229559   5.532   0.700   1.918 -0.3433 -0.2716  0.2864
 9869TIP3    H129560   5.598   0.668   1.856 -1.0825  0.0488 -0.6899
 9869TIP3    H229561   5.572   0.776   1.960 -0.6668  0.8723 -1.4335
 9870TIP3   OH229562   0.542   0.743   0.171 -0.0905  0.5065  0.4126
 9870TIP3    H129563   0.525   0.659   0.214 -0.5723 -0.1266 -0.9766
 9870TIP3    H229564   0.606   0.787   0.227  0.4264 -0.9404  0.9650
 9871TIP3   OH229565   0.686   1.143   0.802 -0.2714 -0.2749 -0.1244
 9871TIP3    H129566   0.595   1.120   0.781 -0.2954  0.1380 -0.4646
 9871TIP3    H229567   0.717   1.069   0.854 -0.7338 -0.5216 -0.1932
 9872TIP3   OH229568   4.641   6.832   0.171 -0.4956  0.5582  0.1482
 9872TIP3    H129569   4.581   6.904   0.152  1.1828  1.6978 -0.9253
 9872TIP3    H229570   4.723   6.856   0.128  0.3788 -1.5639  0.5407
 9873TIP3   OH229571   0.597   2.772   0.100 -0.1120 -0.1113 -0.0807
 9873TIP3    H129572   0.607   2.853   0.050  0.8172 -0.3048 -0.2191
 9873TIP3    H229573   0.608   2.798   0.191  1.6655 -0.3100 -0.2250
 9874TIP3   OH229574   3.094   7.020   3.799 -0.1096 -0.6272  0.1522
 9874TIP3    H129575   3.175   7.044   3.844 -0.6638  0.0017  0.8128
 9874TIP3    H229576   3.024   7.046   3.859 -0.9180  1.7096 -1.7284
 9875TIP3   OH229577   7.100   1.271   0.486  0.1357 -0.5557 -0.2067
 9875TIP3    H129578   7.055   1.238   0.409  1.3156 -2.0227 -0.2921
 9875TIP3    H229579   7.030   1.303   0.543 -0.9044 -1.5228 -0.9228
 9876TIP3   OH229580   3.995   3.283   5.298 -0.1465 -0.1497 -0.4035
 9876TIP3    H129581   4.015   3.193   5.271 -0.8422 -0.8519  1.3560
 9876TIP3    H229582   3.929   3.274   5.367  0.8570  1.6307  0.8413
 9877TIP3   OH229583   3.875   5.401   1.536 -0.0116 -0.1050 -0.3981
 9877TIP3    H129584   3.914   5.428   1.619 -0.3035  1.3840 -0.7343
 9877TIP3    H229585   3.843   5.312   1.552 -0.1640  0.2174  1.1133
 9878TIP3   OH229586   7.179   1.355   1.291  0.6905  0.0255  0.0346
 9878TIP3    H129587   7.108   1.295   1.313 -1.0534  1.7898 -0.6430
 9878TIP3    H229588   7.174   1.424   1.357 -0.6806  2.1415 -2.2074
 9879TIP3   OH229589   2.072   4.365   5.005  0.2476  0.2449  0.3035
 9879TIP3    H129590   2.022   4.288   4.976  1.5367 -0.3985 -0.2509
 9879TIP3    H229591   2.115   4.397   4.926 -0.8396  1.9862  0.3895
 9880TIP3   OH229592   0.586   4.604   3.269 -0.1123 -0.0551  0.1686
 9880TIP3    H129593   0.625   4.668   3.209  0.4330  0.5198  1.1317
 9880TIP3    H229594   0.596   4.643   3.356 -0.9465 -0.8658  0.6303
 9881TIP3   OH229595   2.764   4.235   5.816  1.0042  0.0955 -0.0581
 9881TIP3    H129596   2.854   4.241   5.782  0.6907  0.6469 -0.8055
 9881TIP3    H229597   2.741   4.143   5.804  1.5821 -0.1173  0.4245
 9882TIP3   OH229598   0.252   3.880   6.401 -0.9778  0.7151 -1.3325
 9882TIP3    H129599   0.293   3.887   6.487 -0.9171  1.1944 -1.3993
 9882TIP3    H229600   0.310   3.823   6.351 -1.8755 -0.9202 -0.5433
 9883TIP3   OH229601   4.384   5.109   2.147 -0.1671 -0.1771  0.0843
 9883TIP3    H129602   4.420   5.036   2.198 -0.8244 -0.4920  0.1017
 9883TIP3    H229603   4.449   5.179   2.156  0.2776 -0.6245  0.3923
 9884TIP3   OH229604   2.128   2.706   5.164 -0.7387 -0.7659 -0.0064
 9884TIP3    H129605   2.117   2.628   5.219  1.4776 -2.4036 -1.7644
 9884TIP3    H229606   2.216   2.697   5.129 -0.9779  1.8609 -1.3432
 9885TIP3   OH229607   5.634   7.336   1.139 -0.1722 -0.1886 -0.2330
 9885TIP3    H129608   5.695   7.410   1.148 -2.0066  1.4434 -0.9018
 9885TIP3    H229609   5.548   7.375   1.152 -1.2108 -2.1542 -1.1077
 9886TIP3   OH229610   1.210   2.789   0.548  0.0053  0.0803  0.0560
 9886TIP3    H129611   1.238   2.765   0.636 -0.9771  0.9295  0.5994
 9886TIP3    H229612   1.292   2.800   0.499  0.6529  2.3664  1.5787
 9887TIP3   OH229613   1.497   1.264   1.089 -0.2349  0.1022 -0.4367
 9887TIP3    H129614   1.489   1.335   1.153 -0.6661  0.5067 -0.9292
 9887TIP3    H229615   1.577   1.284   1.040  0.5393 -0.6526  0.5097
 9888TIP3   OH229616   3.997   5.061   5.648 -0.0015  0.4627 -0.5625
 9888TIP3    H129617   4.062   5.060   5.578 -0.1888 -0.7660 -0.7468
 9888TIP3    H229618   4.019   4.985   5.702 -0.2423  1.0398  0.3597
 9889TIP3   OH229619   0.316   0.737   1.196 -0.2254 -0.1558  0.3867
 9889TIP3    H129620   0.291   0.646   1.184 -0.9914  0.2045 -0.8332
 9889TIP3    H229621   0.395   0.748   1.143 -0.5269  0.0686 -0.0149
 9890TIP3   OH229622   1.561   3.967   5.364 -0.0571  0.3231  0.0079
 9890TIP3    H129623   1.650   3.972   5.398 -0.5014 -1.0197  1.4082
 9890TIP3    H229624   1.571   3.983   5.270  2.0234 -2.6163 -0.3279
 9891TIP3   OH229625   4.775   6.836   2.859  0.1877  0.0270  0.0660
 9891TIP3    H129626   4.751   6.764   2.801 -0.8421 -0.0607  0.5785
 9891TIP3    H229627   4.695   6.889   2.865  0.2651  0.0118  1.4192
 9892TIP3   OH229628   1.039   0.925   0.243  0.2137 -0.3505  0.1422
 9892TIP3    H129629   0.996   0.932   0.328 -0.5134  0.1743 -0.2658
 9892TIP3    H229630   1.133   0.922   0.264  0.0746  0.5336  0.9257
 9893TIP3   OH229631   1.433   2.525   5.847  0.3593  0.0937 -0.6234
 9893TIP3    H129632   1.493   2.596   5.823 -1.2601  0.1138 -4.9016
 9893TIP3    H229633   1.491   2.454   5.875  2.2558  1.0908 -1.8759
 9894TIP3   OH229634   2.219   4.065   5.496  0.5446 -0.1150 -0.6886
 9894TIP3    H129635   2.296   4.119   5.515  0.1725  0.2853 -0.3196
 9894TIP3    H229636   2.205   4.077   5.402  0.2888  0.6716 -0.5572
 9895TIP3   OH229637   2.935   4.854   5.997 -0.5732  0.2521  0.1875
 9895TIP3    H129638   2.956   4.901   6.078  0.7415  0.9780 -0.5425
 9895TIP3    H229639   3.001   4.784   5.992 -0.4395  0.4105 -0.4029
 9896TIP3   OH229640   1.280   0.447   6.403  0.2412  0.3896 -0.2370
 9896TIP3    H129641   1.277   0.506   6.479 -2.8637  0.0153 -0.0043
 9896TIP3    H229642   1.205   0.389   6.416  1.9144 -2.1388 -1.6607
 9897TIP3   OH229643   1.454   5.389   5.854  0.3108 -0.4342 -0.1498
 9897TIP3    H129644   1.491   5.445   5.785  1.8541 -0.4809  0.6253
 9897TIP3    H229645   1.519   5.391   5.924 -0.5254 -1.6446  0.6750
 9898TIP3   OH229646   6.552   2.671   3.036  0.3553  0.2272  0.3039
 9898TIP3    H129647   6.627   2.731   3.036  0.5255  0.0534 -1.8993
 9898TIP3    H229648   6.523   2.669   3.127  1.3750  2.3704  0.7102
 9899TIP3   OH229649   2.055   6.170   6.410  1.1393 -0.5282 -0.1796
 9899TIP3    H129650   2.027   6.134   6.494 -0.0413 -1.0040 -0.7662
 9899TIP3    H229651   2.124   6.111   6.381  0.5055 -1.2376 -0.2527
 9900TIP3   OH229652   5.916   7.289   0.264  0.0393 -0.6723  0.9716
 9900TIP3    H129653   5.956   7.375   0.279  0.2310 -0.7472  0.8931
 9900TIP3    H229654   5.933   7.272   0.171  0.9638 -1.2946  1.2512
 9901TIP3   OH229655   2.910   3.901   5.945 -0.0429  0.1975  0.5946
 9901TIP3    H129656   3.005   3.901   5.956  0.2969 -0.8362 -1.8320
 9901TIP3    H229657   2.877   3.952   6.019  2.4769  1.6272  0.8071
 9902TIP3   OH229658   5.443   5.907   5.465  0.4003  0.0654 -0.1086
 9902TIP3    H129659   5.537   5.918   5.474  0.3269  1.9453 -1.3722
 9902TIP3    H229660   5.431   5.868   5.379 -0.0338  0.9624 -0.4643
 9903TIP3   OH229661   0.081   3.183   0.943  0.0766 -0.0516 -0.0284
 9903TIP3    H129662   0.039   3.263   0.911 -2.0628 -1.2284 -0.2329
 9903TIP3    H229663   0.172   3.190   0.913 -0.0079  2.3883  0.1397
 9904TIP3   OH229664   2.409   3.474   6.017 -0.1254  0.1161  0.0386
 9904TIP3    H129665   2.469   3.494   6.089 -2.3529  0.0244  1.9984
 9904TIP3    H229666   2.384   3.383   6.031 -1.6701  0.5208 -0.0246
 9905TIP3   OH229667   0.145   2.900   1.380 -0.0895  0.2728 -0.0631
 9905TIP3    H129668   0.107   2.977   1.421  0.0137 -0.2535  1.0496
 9905TIP3    H229669   0.118   2.827   1.437 -0.8346 -0.6083 -1.5071
 9906TIP3   OH229670   2.335   5.152   4.174  0.2594 -0.6218 -0.8120
 9906TIP3    H129671   2.276   5.089   4.215  0.7312  0.1817  1.1274
 9906TIP3    H229672   2.284   5.232   4.168  0.8778 -0.1585  0.1020
 9907TIP3   OH229673   4.246   0.527   5.769 -0.2098  0.1653  0.1267
 9907TIP3    H129674   4.196   0.589   5.716 -0.0173  0.7659  0.6348
 9907TIP3    H229675   4.329   0.572   5.786  0.2948 -0.6120 -0.2802
 9908TIP3   OH229676   0.135   1.635   1.236 -0.1854  0.2717  0.4764
 9908TIP3    H129677   0.198   1.689   1.188 -2.3031  1.1497 -1.3809
 9908TIP3    H229678   0.181   1.611   1.316  2.6453  0.5986 -0.9703
 9909TIP3   OH229679   4.543   5.908   0.068 -0.1886 -0.3860 -0.2753
 9909TIP3    H129680   4.479   5.866   0.011  1.5295 -1.2553 -1.6359
 9909TIP3    H229681   4.512   5.998   0.077 -0.8850 -0.4299 -2.0090
 9910TIP3   OH229682   0.413   1.479   1.219 -0.0057 -0.2730 -0.9472
 9910TIP3    H129683   0.337   1.493   1.275  0.3633  1.1880 -0.7877
 9910TIP3    H229684   0.488   1.491   1.277  0.3670 -2.6049 -0.8992
 9911TIP3   OH229685   2.424   4.148   5.994 -0.2909  0.4586  0.0255
 9911TIP3    H129686   2.380   4.064   5.981  0.9070 -0.0887 -0.5454
 9911TIP3    H229687   2.411   4.194   5.911 -1.4520  1.0787  0.5464
 9912TIP3   OH229688   4.671   4.203   6.317  0.0052  0.5116 -0.0686
 9912TIP3    H129689   4.742   4.159   6.271  0.6946  1.0354  0.4890
 9912TIP3    H229690   4.651   4.146   6.392 -1.2190 -0.4179 -1.0731
 9913TIP3   OH229691   6.122   0.155   5.235  0.4863 -0.1253 -0.0361
 9913TIP3    H129692   6.138   0.113   5.320  1.5199 -1.7230 -0.9975
 9913TIP3    H229693   6.166   0.240   5.241 -0.1890  0.1496  1.3168
 9914TIP3   OH229694   5.213   7.249   0.394  0.4265  0.2223 -0.7612
 9914TIP3    H129695   5.259   7.291   0.321  1.2882 -1.9759 -1.5181
 9914TIP3    H229696   5.151   7.316   0.424  1.4338  1.8634 -2.2156
 9915TIP3   OH229697   0.716   2.035   2.420  0.0024 -0.0292  0.5742
 9915TIP3    H129698   0.660   2.026   2.497  0.0043 -0.6807  0.5022
 9915TIP3    H229699   0.662   2.081   2.356 -0.2231 -0.0744  0.7343
 9916TIP3   OH229700   5.188   6.774   0.249  0.2962  0.5700 -0.0420
 9916TIP3    H129701   5.218   6.722   0.174 -1.6673 -0.7727  0.0607
 9916TIP3    H229702   5.219   6.862   0.231 -0.2828  0.3097 -2.5250
 9917TIP3   OH229703   2.649   4.511   5.893  0.1660  0.1151 -0.5183
 9917TIP3    H129704   2.677   4.420   5.882  3.3170  0.5376  2.7679
 9917TIP3    H229705   2.695   4.559   5.825  4.2376  0.1193  2.0220
 9918TIP3   OH229706   1.216   2.046   2.073 -0.6538 -0.6081  0.2338
 9918TIP3    H129707   1.310   2.042   2.091 -0.9228  0.1574  1.9178
 9918TIP3    H229708   1.205   1.996   1.992  1.1914 -0.7571  0.0468
 9919TIP3   OH229709   7.369   1.528   4.013  0.1133  0.0328 -0.9682
 9919TIP3    H129710   7.407   1.511   3.927 -0.3376 -1.4174 -0.8824
 9919TIP3    H229711   7.425   1.481   4.074 -0.1445  0.2479 -0.5625
 9920TIP3   OH229712   0.537   0.263   0.900  0.1206 -0.1160  0.2244
 9920TIP3    H129713   0.585   0.266   0.817  0.8641 -0.0069  0.6506
 9920TIP3    H229714   0.456   0.311   0.883  1.0275  1.3842  0.0441
 9921TIP3   OH229715   6.685   7.397   3.096 -0.5006 -0.1865 -0.0658
 9921TIP3    H129716   6.698   7.305   3.076  0.0769  0.4874 -3.0215
 9921TIP3    H229717   6.653   7.398   3.187 -0.4846 -3.2477  0.0168
 9922TIP3   OH229718   5.611   2.533   0.542  0.8769  0.2005 -0.0333
 9922TIP3    H129719   5.620   2.512   0.635  0.2696 -0.7473 -0.1788
 9922TIP3    H229720   5.675   2.603   0.527  2.6269 -1.2016  0.6092
 9923TIP3   OH229721   5.996   6.134   0.345 -0.0814  0.0830  0.0552
 9923TIP3    H129722   6.011   6.225   0.319  0.1415  0.2231  0.6632
 9923TIP3    H229723   6.078   6.089   0.325  0.0416  0.1608  0.3886
 9924TIP3   OH229724   0.267   2.048   2.271 -0.0980 -0.5502  0.3855
 9924TIP3    H129725   0.295   2.109   2.340  0.7428 -0.2054 -0.2552
 9924TIP3    H229726   0.261   2.102   2.192 -2.1306 -0.7144  0.3994
 9925TIP3   OH229727   4.594   5.719   1.808  0.0819 -0.4195  0.5429
 9925TIP3    H129728   4.678   5.703   1.767  0.3186 -0.7294  1.1368
 9925TIP3    H229729   4.598   5.670   1.891  0.0513  1.0901  1.4548
 9926TIP3   OH229730   1.702   2.486   4.737  0.0455 -0.3915 -0.4296
 9926TIP3    H129731   1.690   2.416   4.672 -0.1899 -1.4274  0.7180
 9926TIP3    H229732   1.781   2.532   4.708  1.0964 -2.0969 -0.3230
 9927TIP3   OH229733   3.698   5.450   5.600 -0.1997 -0.6831 -0.5784
 9927TIP3    H129734   3.765   5.465   5.667  0.8693  0.7314 -1.9310
 9927TIP3    H229735   3.615   5.468   5.645  0.4227 -0.8154  0.6574
 9928TIP3   OH229736   5.437   7.385   0.275  0.0625 -0.2829 -0.7030
 9928TIP3    H129737   5.508   7.332   0.309  1.0607  1.1719 -0.4901
 9928TIP3    H229738   5.480   7.460   0.234 -1.3245  0.4574 -0.8499
 9929TIP3   OH229739   2.131   3.928   6.159 -0.4007  0.2496 -0.0283
 9929TIP3    H129740   2.186   3.932   6.081 -1.0067 -0.9755 -0.5159
 9929TIP3    H229741   2.064   3.864   6.139 -1.2982  0.8319  1.0403
 9930TIP3   OH229742   0.007   1.738   1.559 -0.0378 -0.1551 -0.3216
 9930TIP3    H129743  -0.050   1.808   1.528 -0.5860 -1.0176 -1.2502
 9930TIP3    H229744   0.096   1.769   1.540 -0.2820  0.2796 -0.7486
 9931TIP3   OH229745   4.280   6.465   6.335  0.0025 -0.0891 -0.1664
 9931TIP3    H129746   4.247   6.394   6.391  1.0435  0.9940  1.8570
 9931TIP3    H229747   4.360   6.429   6.297  0.2094 -0.2044  0.3775
 9932TIP3   OH229748   1.090   1.906   1.728 -0.0804 -0.5662 -0.1666
 9932TIP3    H129749   1.148   1.852   1.675  0.5652 -0.6965  0.6527
 9932TIP3    H229750   1.102   1.873   1.818  1.0278  1.5131  0.4906
 9933TIP3   OH229751   6.542   7.365   1.192  0.4967  0.6923 -0.4636
 9933TIP3    H129752   6.587   7.281   1.196  0.0026  0.4698  0.6374
 9933TIP3    H229753   6.452   7.345   1.216  0.4320  1.5730  0.0650
 9934TIP3   OH229754   3.923   4.545   5.876  0.0284  0.4841 -0.2965
 9934TIP3    H129755   3.852   4.490   5.907 -0.4351  0.3036 -1.6374
 9934TIP3    H229756   3.954   4.501   5.797  1.5172  0.6478  0.1765
 9935TIP3   OH229757   1.008   2.385   0.038 -0.2813  0.3589 -0.3891
 9935TIP3    H129758   0.982   2.329   0.111  0.9643  0.2002 -0.0542
 9935TIP3    H229759   1.014   2.473   0.077  0.5823  0.2401 -0.2546
 9936TIP3   OH229760   7.546   7.411   0.176 -0.4608 -0.5532 -0.3142
 9936TIP3    H129761   7.564   7.388   0.085  0.9599  1.1828 -0.4936
 9936TIP3    H229762   7.456   7.443   0.175  0.0630  0.9134 -1.3956
 9937TIP3   OH229763   3.012   6.247   5.911  0.1531 -0.2322  0.2369
 9937TIP3    H129764   3.072   6.281   5.977 -0.0792  0.3820  0.1361
 9937TIP3    H229765   2.982   6.163   5.946 -0.4357  0.3715  1.1861
 9938TIP3   OH229766   2.950   5.679   6.016 -0.1062 -0.2456 -0.1099
 9938TIP3    H129767   3.011   5.607   6.005 -1.3966 -1.4900  0.7014
 9938TIP3    H229768   2.933   5.682   6.111 -0.3759  0.8629 -0.1786
 9939TIP3   OH229769   3.100   3.646   6.026 -0.0622  0.1034  0.5215
 9939TIP3    H129770   3.035   3.707   6.061 -0.7473 -0.4562  0.2342
 9939TIP3    H229771   3.131   3.687   5.945  1.2228  1.2038  1.5384
 9940TIP3   OH229772   3.408   7.011   5.859  0.3546  0.3150  0.2538
 9940TIP3    H129773   3.363   7.084   5.901  1.9355  1.6621 -0.3136
 9940TIP3    H229774   3.489   7.049   5.826  0.7023 -1.4729 -1.0309
 9941TIP3   OH229775   2.715   4.015   5.390 -0.3017  0.4956  0.1082
 9941TIP3    H129776   2.632   3.977   5.418 -2.2179  3.1668 -1.7520
 9941TIP3    H229777   2.727   4.091   5.447  0.5542  0.5208 -0.0874
 9942TIP3   OH229778   5.307   6.224   4.725 -0.0649  0.3810 -0.0907
 9942TIP3    H129779   5.256   6.293   4.683 -0.9734  0.4633  1.0939
 9942TIP3    H229780   5.380   6.270   4.766  0.2641  0.4298 -0.7434
 9943TIP3   OH229781   2.659   2.064   1.696 -0.5065  0.3940  0.3724
 9943TIP3    H129782   2.690   2.013   1.772 -1.5449  0.2091  0.6704
 9943TIP3    H229783   2.582   2.016   1.665 -1.3875  1.6854  0.5389
 9944TIP3   OH229784   3.974   3.858   5.545 -0.0297  0.6760  0.6813
 9944TIP3    H129785   3.914   3.924   5.509 -1.0315  0.3608  1.7180
 9944TIP3    H229786   4.034   3.837   5.473 -2.4541 -0.5033 -1.0809
 9945TIP3   OH229787   1.516   1.449   0.786 -0.2163 -0.6172  0.0003
 9945TIP3    H129788   1.430   1.469   0.823  0.1543 -2.6447  2.0859
 9945TIP3    H229789   1.510   1.357   0.760  1.3209 -0.7881  0.1976
 9946TIP3   OH229790   1.141   2.067   0.918  0.3151  0.0461 -0.4441
 9946TIP3    H129791   1.183   2.091   0.835  0.2357  2.4686  0.1676
 9946TIP3    H229792   1.100   2.148   0.947 -0.6817 -1.1021  1.3725
 9947TIP3   OH229793   5.288   6.711   0.554 -0.1371 -0.1314 -0.4806
 9947TIP3    H129794   5.281   6.620   0.584  2.4862  0.0465  0.8334
 9947TIP3    H229795   5.307   6.761   0.634  1.6312  1.1110 -1.6377
 9948TIP3   OH229796   0.230   3.283   6.316  0.9191 -0.2141 -0.3851
 9948TIP3    H129797   0.301   3.336   6.352  0.2708  0.9581 -0.8275
 9948TIP3    H229798   0.263   3.251   6.232  1.4562 -0.8537  0.0598
 9949TIP3   OH229799   6.507   6.832   1.276  0.5320 -0.4518 -0.4445
 9949TIP3    H129800   6.522   6.738   1.285  2.0703 -0.1906 -0.1624
 9949TIP3    H229801   6.496   6.846   1.182  1.4533 -0.7595 -0.6040
 9950TIP3   OH229802   3.588   5.588   4.104 -0.1741 -0.3574  0.0150
 9950TIP3    H129803   3.665   5.533   4.107 -1.1359 -1.6706  2.4160
 9950TIP3    H229804   3.514   5.527   4.111 -1.3109  1.0825  0.9686
 9951TIP3   OH229805   7.488   1.696   0.230 -0.1684 -0.3208  0.1127
 9951TIP3    H129806   7.435   1.630   0.186 -0.5581 -0.2883  0.5316
 9951TIP3    H229807   7.515   1.655   0.312  0.3246 -0.2806 -0.0255
 9952TIP3   OH229808   7.584   2.347   2.225  0.6527  0.6049 -0.0757
 9952TIP3    H129809   7.618   2.259   2.208 -1.2987 -0.5572  1.6792
 9952TIP3    H229810   7.639   2.405   2.173  0.3229 -1.8905 -3.3513
 9953TIP3   OH229811   0.575   7.385   2.870  0.4422  0.6714 -0.3435
 9953TIP3    H129812   0.626   7.411   2.793  0.7662  0.0514 -0.3401
 9953TIP3    H229813   0.525   7.309   2.841 -0.0836  0.9559 -0.1889
 9954TIP3   OH229814   2.025   0.058   0.077  0.1256 -0.4007  0.3597
 9954TIP3    H129815   1.949   0.105   0.113 -0.8928 -1.5469 -0.2413
 9954TIP3    H229816   1.997  -0.034   0.075  1.4009 -0.7829 -0.2302
 9955TIP3   OH229817   2.364   3.881   6.310 -0.6728  0.0210 -0.3506
 9955TIP3    H129818   2.276   3.905   6.281 -0.5328  0.8135 -0.1412
 9955TIP3    H229819   2.399   3.962   6.348  0.4464 -0.0641 -1.1714
 9956TIP3   OH229820   4.446   6.204   3.349 -0.0360 -0.4698  0.1596
 9956TIP3    H129821   4.386   6.135   3.378  2.1142 -2.4295  0.0403
 9956TIP3    H229822   4.418   6.282   3.398 -3.0644 -1.1551 -0.3778
 9957TIP3   OH229823   3.993   5.202   0.632  0.1415  0.5876 -0.0154
 9957TIP3    H129824   3.990   5.238   0.721  0.2786 -2.0488  1.0974
 9957TIP3    H229825   3.965   5.274   0.576 -0.6003  2.0921  2.2344
 9958TIP3   OH229826   6.995   2.676   0.747  0.3385 -0.1948  0.0908
 9958TIP3    H129827   6.910   2.672   0.704  1.0015 -0.0060 -1.2720
 9958TIP3    H229828   7.039   2.751   0.707  1.0698 -0.1755  0.9104
 9959TIP3   OH229829   2.412   6.782   6.369  0.6274  0.1304 -0.1920
 9959TIP3    H129830   2.478   6.713   6.365  0.0106 -0.3773 -2.1535
 9959TIP3    H229831   2.331   6.736   6.390  0.3101  0.3151 -0.9984
 9960TIP3   OH229832   3.137   6.916   5.972  0.0125 -0.2207  0.0955
 9960TIP3    H129833   3.092   6.833   5.983  0.4205 -0.4050  0.3923
 9960TIP3    H229834   3.207   6.897   5.910 -1.2109  0.4079 -1.5057
 9961TIP3   OH229835   6.499   2.843   3.608  0.2473 -0.1446 -0.0794
 9961TIP3    H129836   6.570   2.803   3.659 -0.1813 -0.3787  0.3449
 9961TIP3    H229837   6.542   2.908   3.554  0.6778  0.3242  0.8134
 9962TIP3   OH229838   5.713   7.251   3.689  0.3857 -0.0897  0.1462
 9962TIP3    H129839   5.764   7.312   3.742  0.6547 -0.8663  0.7895
 9962TIP3    H229840   5.636   7.231   3.743  2.4251 -3.7617  1.9253
 9963TIP3   OH229841   1.737   5.838   5.357 -0.0252 -0.0258 -0.2996
 9963TIP3    H129842   1.648   5.826   5.322 -0.3592 -0.5650  0.7154
 9963TIP3    H229843   1.783   5.885   5.288 -1.2850  0.8422 -0.5729
 9964TIP3   OH229844   6.897   1.515   0.595  0.2954 -0.4713 -0.0779
 9964TIP3    H129845   6.984   1.520   0.634  0.6864  3.5986 -1.3146
 9964TIP3    H229846   6.840   1.558   0.659 -0.7633 -2.3958  0.3466
 9965TIP3   OH229847   2.714   5.291   6.120 -0.1773 -0.5881  0.6945
 9965TIP3    H129848   2.806   5.281   6.143 -0.2325  0.1199  1.2498
 9965TIP3    H229849   2.694   5.215   6.065  1.2631  0.2972 -1.0981
 9966TIP3   OH229850   3.362   3.927   5.402  0.2398  0.1350 -0.0805
 9966TIP3    H129851   3.355   3.887   5.315 -0.5220 -1.0186  0.5073
 9966TIP3    H229852   3.435   3.881   5.444  1.0503  1.1594 -0.3458
 9967TIP3   OH229853   4.757   4.852   6.005 -0.2351 -0.0641 -0.2634
 9967TIP3    H129854   4.822   4.803   6.056  0.4304  0.7795 -0.3028
 9967TIP3    H229855   4.673   4.824   6.042  0.2626  1.0132  1.7371
 9968TIP3   OH229856   4.361   4.896   1.596  0.5029 -0.6137 -0.0581
 9968TIP3    H129857   4.389   4.987   1.606  2.6054 -1.3262  0.7145
 9968TIP3    H229858   4.398   4.869   1.512 -1.2534 -0.3640 -0.9298
 9969TIP3   OH229859   0.561   4.583   6.273 -0.4587  0.1632  0.0751
 9969TIP3    H129860   0.480   4.566   6.225 -0.2528 -0.3555 -0.0943
 9969TIP3    H229861   0.594   4.496   6.296  0.6064  0.3309 -0.7832
 9970TIP3   OH229862   0.574   2.045   5.086  0.1752  0.3055  0.0729
 9970TIP3    H129863   0.534   2.020   5.169  0.1765 -0.3532 -0.1194
 9970TIP3    H229864   0.543   2.134   5.069  2.4747  1.5815  2.2300
 9971TIP3   OH229865   6.922   6.146   0.591  0.2479  0.2817 -0.5347
 9971TIP3    H129866   6.937   6.230   0.548  1.9435  0.9525  1.2703
 9971TIP3    H229867   6.868   6.096   0.530  0.9934  1.8949 -2.5444
 9972TIP3   OH229868   0.255   0.255   2.254 -0.5408  0.3724 -0.4927
 9972TIP3    H129869   0.336   0.205   2.240 -0.8317  0.2684 -1.7975
 9972TIP3    H229870   0.283   0.347   2.252 -0.4674  0.3393 -1.0239
 9973TIP3   OH229871   1.190   0.308   1.839 -0.0300  0.4463  0.2247
 9973TIP3    H129872   1.169   0.397   1.866 -1.7128  0.2385 -0.3340
 9973TIP3    H229873   1.188   0.257   1.920  0.7215  0.8694  0.5142
 9974TIP3   OH229874   6.242   5.522   1.195  0.0475 -0.1645 -0.0539
 9974TIP3    H129875   6.169   5.581   1.212  0.8520  0.6327  0.7203
 9974TIP3    H229876   6.222   5.443   1.245 -0.3494 -0.0045  0.0416
 9975TIP3   OH229877   1.418   3.503   5.985  0.5412  0.3363  0.0348
 9975TIP3    H129878   1.419   3.579   6.043  0.6603  1.2258 -1.1181
 9975TIP3    H229879   1.328   3.499   5.952  0.3832 -0.3723  0.5242
 9976TIP3   OH229880   5.054   7.145   0.107  0.0057  0.1392  0.3432
 9976TIP3    H129881   5.077   7.220   0.162 -0.2284 -0.0163  0.6505
 9976TIP3    H229882   5.113   7.152   0.032  0.9136 -0.1429  1.0252
 9977TIP3   OH229883   7.307   6.884   0.135  0.2575 -0.4960  0.0996
 9977TIP3    H129884   7.350   6.812   0.088  1.0137 -0.0276  0.0658
 9977TIP3    H229885   7.274   6.941   0.066 -0.6860 -1.0138  0.1251
 9978TIP3   OH229886   6.308   6.675   0.561 -0.3465  0.0404  0.4024
 9978TIP3    H129887   6.329   6.768   0.570  1.2121 -0.2243 -0.3056
 9978TIP3    H229888   6.302   6.644   0.652 -1.0145  0.8506  0.6445
 9979TIP3   OH229889   2.211   4.564   5.569  0.2572 -0.3186  0.3864
 9979TIP3    H129890   2.301   4.559   5.536 -0.0095  1.7414 -0.7140
 9979TIP3    H229891   2.159   4.594   5.494 -1.2801 -0.9761  1.1575
 9980TIP3   OH229892   1.398   0.685   4.995 -0.3555  0.2074  0.4257
 9980TIP3    H129893   1.479   0.711   5.039  0.2196  2.7458 -2.0230
 9980TIP3    H229894   1.423   0.673   4.904 -2.1232 -2.1205  0.2093
 9981TIP3   OH229895   5.130   7.422   0.119  0.2384 -0.1105  0.7491
 9981TIP3    H129896   5.151   7.410   0.026 -0.6321 -0.5506  0.5965
 9981TIP3    H229897   5.035   7.430   0.120  0.3242  0.7637  1.5193
 9982TIP3   OH229898   3.570   7.016   5.009 -0.3062 -0.5656 -0.4006
 9982TIP3    H129899   3.476   7.028   5.016 -0.0860  0.0650  1.7675
 9982TIP3    H229900   3.606   7.105   5.004  0.1836 -0.8012 -1.2647
 9983TIP3   OH229901   3.911   5.220   4.952  0.5331 -0.2230  0.4376
 9983TIP3    H129902   3.963   5.230   5.032  0.3746  0.1824  0.4904
 9983TIP3    H229903   3.913   5.306   4.911 -1.4145  0.2569  1.2590
 9984TIP3   OH229904   4.888   7.101   1.569  0.1627 -0.4688 -0.1043
 9984TIP3    H129905   4.822   7.076   1.504 -1.4955 -0.8137  1.6349
 9984TIP3    H229906   4.940   7.022   1.583 -2.5867 -1.9563  2.4968
 9985TIP3   OH229907   7.705   2.216   1.113  0.4172  0.0587  0.8169
 9985TIP3    H129908   7.783   2.256   1.073  0.2895 -0.9939 -0.5270
 9985TIP3    H229909   7.651   2.290   1.139  0.3770  0.8051 -1.2477
 9986TIP3   OH229910   2.710   3.666   6.025  0.0827  0.0374 -0.0158
 9986TIP3    H129911   2.757   3.735   5.979 -1.1677 -0.2144 -1.6872
 9986TIP3    H229912   2.671   3.613   5.956  0.1761 -1.7581  1.2682
 9987TIP3   OH229913   0.884   0.743   0.797  0.9494  0.2097  0.0835
 9987TIP3    H129914   0.848   0.656   0.811 -0.4147  0.9308  1.1842
 9987TIP3    H229915   0.968   0.728   0.754 -0.2365 -1.5406 -1.6738
 9988TIP3   OH229916   0.621   1.566   0.466  0.0062 -0.4799  0.7422
 9988TIP3    H129917   0.701   1.614   0.490  0.3229 -0.9888  0.7092
 9988TIP3    H229918   0.642   1.526   0.382 -0.9329  0.9021 -0.1748
 9989TIP3   OH229919   0.397   6.490   0.854 -0.3757 -0.2708 -0.6475
 9989TIP3    H129920   0.488   6.518   0.844  0.2953 -2.2958 -0.5899
 9989TIP3    H229921   0.357   6.508   0.769  0.5443 -0.9471 -1.2302
 9990TIP3   OH229922   1.117   0.407   0.932  0.4567  0.1115  0.1179
 9990TIP3    H129923   1.186   0.469   0.956  1.1488 -1.3014  1.9688
 9990TIP3    H229924   1.064   0.399   1.011  0.1370 -1.3141 -0.2255
 9991TIP3   OH229925   3.213   2.954   6.286  0.1422  0.1155  0.2659
 9991TIP3    H129926   3.283   3.013   6.257 -1.1268  3.1280  3.0074
 9991TIP3    H229927   3.137   2.979   6.233  0.1766 -0.6215 -0.1353
 9992TIP3   OH229928   4.787   7.262   3.927  0.0507  0.0114  0.3993
 9992TIP3    H129929   4.774   7.282   4.019  0.6271 -1.7147  0.8841
 9992TIP3    H229930   4.781   7.167   3.922  2.6338 -0.1331 -0.8955
 9993TIP3   OH229931   4.412   5.233   4.988 -0.0589 -0.1901 -0.3072
 9993TIP3    H129932   4.435   5.242   5.080 -1.3391  0.4933 -0.0390
 9993TIP3    H229933   4.432   5.319   4.950  2.2801 -1.0561 -1.0908
 9994TIP3   OH229934   5.090   6.945   1.651  0.3566 -0.3815 -0.1665
 9994TIP3    H129935   5.123   7.011   1.711 -3.1764  1.4589 -0.0931
 9994TIP3    H229936   5.070   6.870   1.707 -1.4449  0.7695  0.7974
 9995TIP3   OH229937   3.178   6.235   5.437 -0.6533  0.1056 -0.7335
 9995TIP3    H129938   3.087   6.207   5.446 -0.0215 -1.7440  0.0998
 9995TIP3    H229939   3.172   6.328   5.416 -2.7111  0.1993  0.1415
 9996TIP3   OH229940   4.562   5.039   4.443  0.1468 -0.0495 -0.9819
 9996TIP3    H129941   4.473   5.072   4.459  0.2207  0.5985 -1.8437
 9996TIP3    H229942   4.548   4.958   4.394  0.0134 -0.1813 -0.7253
 9997TIP3   OH229943   6.211   0.711   5.220 -0.7748  0.1393 -0.8307
 9997TIP3    H129944   6.193   0.649   5.291 -1.9587 -1.3459 -2.3694
 9997TIP3    H229945   6.294   0.751   5.243 -2.0036  0.9828  2.2637
 9998TIP3   OH229946   3.292   5.565   5.777  0.0787  0.1821 -0.6305
 9998TIP3    H129947   3.358   5.634   5.766  0.6922 -0.3959 -0.5962
 9998TIP3    H229948   3.231   5.578   5.705  1.0019 -0.1351 -1.4784
 9999TIP3   OH229949   7.108   5.917   1.820  0.6533  0.1794 -0.2662
 9999TIP3    H129950   7.058   5.913   1.739 -4.0522 -1.9409  2.5016
 9999TIP3    H229951   7.172   5.847   1.813 -1.0775 -1.3289 -1.3456
10000TIP3   OH229952   1.455  -0.017   2.707 -0.2050  0.3164  0.0307
10000TIP3    H129953   1.426   0.062   2.753  1.6416  1.2158 -0.2900
10000TIP3    H229954   1.406  -0.016   2.625 -1.4597  0.2083  0.7754
10001TIP3   OH229955   5.166   3.160   5.122  0.0122 -0.4110 -0.0320
10001TIP3    H129956   5.250   3.122   5.098 -1.0323 -2.1289 -1.0646
10001TIP3    H229957   5.108   3.141   5.048 -1.6016 -0.2989  1.1510
10002TIP3   OH229958   4.849   4.456   5.025  0.2498 -0.0590 -0.5803
10002TIP3    H129959   4.763   4.494   5.013  0.1262 -0.3505 -0.6278
10002TIP3    H229960   4.866   4.407   4.945  0.3821 -0.1531 -0.4969
10003TIP3   OH229961   2.351   1.584  -0.000 -0.0181  0.0781  0.4313
10003TIP3    H129962   2.261   1.580  -0.035  0.1914  0.1140 -0.1168
10003TIP3    H229963   2.358   1.507   0.056 -0.3254 -0.0432  0.3042
10004TIP3   OH229964   1.650   0.805   1.461 -0.1296  0.4715  0.5607
10004TIP3    H129965   1.674   0.854   1.382 -1.8982  1.9385  0.9042
10004TIP3    H229966   1.668   0.865   1.533 -1.3644  0.2718  1.0521
10005TIP3   OH229967   2.735   1.396   1.470  0.1893 -0.0773 -0.2251
10005TIP3    H129968   2.751   1.486   1.496 -1.1944  0.5972 -1.7081
10005TIP3    H229969   2.687   1.402   1.387  0.9535 -2.1648 -0.8544
10006TIP3   OH229970   3.964   5.571   5.952  0.3146 -1.0979  0.4502
10006TIP3    H129971   3.870   5.584   5.941  0.2024 -0.4748  1.9847
10006TIP3    H229972   3.995   5.545   5.865 -0.9748  0.3580 -0.4705
10007TIP3   OH229973   4.900   6.385   4.977 -0.5065  0.1145 -0.2346
10007TIP3    H129974   4.943   6.456   4.930 -0.1162 -1.6702 -2.6310
10007TIP3    H229975   4.967   6.351   5.036 -0.3334  0.9378  0.0510
10008TIP3   OH229976   4.372   6.799   5.062 -0.4519  0.4678  0.3872
10008TIP3    H129977   4.379   6.844   4.978  0.9383  1.2195  0.8897
10008TIP3    H229978   4.287   6.756   5.059 -0.3552  0.3517 -1.4742
10009TIP3   OH229979   5.178   7.324   1.058 -0.2065  0.1024 -0.2294
10009TIP3    H129980   5.198   7.413   1.085  0.6327 -0.7826  2.1974
10009TIP3    H229981   5.211   7.318   0.968  0.7587  1.8814 -0.0086
10010TIP3   OH229982   0.724   6.106   1.407  0.1670 -0.5079 -0.4175
10010TIP3    H129983   0.759   6.058   1.482 -1.3721 -2.5460 -0.9717
10010TIP3    H229984   0.632   6.120   1.428  0.1820  0.6306 -1.0733
10011TIP3   OH229985   3.432   5.529   6.390 -0.5200  0.6421  0.1253
10011TIP3    H129986   3.423   5.544   6.484  1.4369 -0.4646  0.5147
10011TIP3    H229987   3.379   5.451   6.373 -1.3544  1.1887  0.1891
10012TIP3   OH229988   7.814   6.218   5.432  0.5118  0.5011 -0.3199
10012TIP3    H129989   7.867   6.156   5.482  0.8049  1.4456  0.5577
10012TIP3    H229990   7.731   6.224   5.480  0.3742  0.5825 -0.5609
10013TIP3   OH229991   2.470   0.073   0.669 -0.2506  0.1870 -0.9376
10013TIP3    H129992   2.542   0.129   0.640  1.5696 -1.9272 -0.6149
10013TIP3    H229993   2.425   0.047   0.589  0.5007  0.0077 -1.3043
10014TIP3   OH229994   1.433   0.555   0.896 -0.2241 -0.0553  0.1352
10014TIP3    H129995   1.477   0.490   0.841 -0.3190 -0.8601  0.9937
10014TIP3    H229996   1.386   0.503   0.962 -0.1412  0.8840  0.9554
10015TIP3   OH229997   2.946   2.569   1.204 -0.2827 -0.1644 -0.1429
10015TIP3    H129998   2.905   2.495   1.249 -2.0037  0.8004 -0.0670
10015TIP3    H229999   2.928   2.555   1.112  0.1290 -0.2827 -0.2057
10016TIP3   OH230000   7.672   0.763   6.082 -0.1742  0.2767  0.2527
10016TIP3    H130001   7.709   0.676   6.098  0.2081  0.0534 -1.7635
10016TIP3    H230002   7.589   0.746   6.037 -0.6118  0.9251  0.7996
10017TIP3   OH230003   3.749   2.886   0.941  0.6409  0.3662 -0.5675
10017TIP3    H130004   3.740   2.976   0.909  0.0857  0.0303 -1.3560
10017TIP3    H230005   3.667   2.869   0.987  0.5070  0.0623 -0.9188
10018TIP3   OH230006   4.386   5.564   5.394 -0.6400  0.2585  0.0512
10018TIP3    H130007   4.455   5.610   5.346  0.2130  0.9085  1.8759
10018TIP3    H230008   4.412   5.570   5.486 -1.2964 -2.5520  0.4873
10019TIP3   OH230009   5.779   3.787   4.168 -0.0572 -0.4417 -0.9601
10019TIP3    H130010   5.832   3.708   4.160 -1.6453 -1.4295 -2.1849
10019TIP3    H230011   5.715   3.767   4.237 -0.6206 -0.3393 -1.4430
10020TIP3   OH230012   6.549   3.531   4.784  0.7034 -0.8228  0.2319
10020TIP3    H130013   6.525   3.562   4.871 -0.1248 -0.7824 -0.0048
10020TIP3    H230014   6.468   3.498   4.747  1.1485 -1.2880 -0.3447
10021TIP3   OH230015   4.829   3.969   4.915 -0.3538  0.1406 -0.0086
10021TIP3    H130016   4.798   3.899   4.973  0.0892  0.3899  0.5347
10021TIP3    H230017   4.810   4.050   4.963 -1.2179  0.4175 -0.8020
10022TIP3   OH230018   0.688   0.888   0.321 -0.0250  0.2935 -0.2760
10022TIP3    H130019   0.622   0.925   0.380 -0.3947 -0.8621  0.0675
10022TIP3    H230020   0.762   0.866   0.378 -1.7236 -4.0695  0.4274
10023TIP3   OH230021   5.112   4.398   5.929 -0.3575 -0.1591  0.0959
10023TIP3    H130022   5.153   4.390   6.015 -1.6010  0.6062  0.7805
10023TIP3    H230023   5.182   4.426   5.871  0.2983  0.1734  1.0440
10024TIP3   OH230024   4.623   5.126   5.524 -0.4114 -0.2517  0.0015
10024TIP3    H130025   4.707   5.172   5.534  0.1209 -1.1893 -0.0545
10024TIP3    H230026   4.621   5.064   5.597 -0.2089 -1.5105 -1.0513
10025TIP3   OH230027   2.638   1.475   1.195 -0.0883 -0.4189  0.9511
10025TIP3    H130028   2.710   1.483   1.133 -1.2945  1.5529 -0.2457
10025TIP3    H230029   2.602   1.388   1.179  1.2031 -0.9181  0.6719
10026TIP3   OH230030   2.629   1.849   0.520 -0.1552 -0.3207 -0.7072
10026TIP3    H130031   2.705   1.800   0.550  0.6955  0.8642 -0.9065
10026TIP3    H230032   2.565   1.839   0.591 -0.3152 -2.3956 -1.1093
10027TIP3   OH230033   1.353   1.669   1.229 -0.2378  0.2730  0.2455
10027TIP3    H130034   1.282   1.616   1.192  0.1289  0.4653 -0.7504
10027TIP3    H230035   1.330   1.759   1.207 -1.0533  0.5802  2.2697
10028TIP3   OH230036   4.915   6.202   3.599 -0.1510  0.2019 -0.3217
10028TIP3    H130037   4.880   6.113   3.599 -0.9891  0.5219  0.6510
10028TIP3    H230038   5.003   6.193   3.562  0.2118 -1.1947  0.8504
10029TIP3   OH230039   1.757   3.117   1.254  0.2807 -0.1607  0.1241
10029TIP3    H130040   1.664   3.124   1.231  0.1910 -1.3905  0.0511
10029TIP3    H230041   1.777   3.024   1.241  1.5839  0.1495 -0.0964
10030TIP3   OH230042   3.142   2.194   1.561 -0.0298 -0.2759  0.3740
10030TIP3    H130043   3.237   2.186   1.556  0.0478  1.3349 -0.9567
10030TIP3    H230044   3.109   2.113   1.522  0.7671 -1.9809  3.0922
10031TIP3   OH230045   2.596   2.124   0.399 -0.4653  0.4058 -0.6285
10031TIP3    H130046   2.560   2.175   0.471  1.7731  0.8022  0.2622
10031TIP3    H230047   2.596   2.033   0.430 -0.4527  0.4419 -0.5239
10032TIP3   OH230048   4.148   3.825   5.300 -0.1134 -0.2247  0.0109
10032TIP3    H130049   4.237   3.800   5.276  0.6997  1.6474  1.0247
10032TIP3    H230050   4.155   3.916   5.327 -2.3578 -0.0433  0.0561
10033TIP3   OH230051   7.775   0.672   0.068  0.2529 -0.1242 -0.1501
10033TIP3    H130052   7.816   0.600   0.019 -0.7005 -0.2527 -0.7867
10033TIP3    H230053   7.727   0.628   0.139 -1.0953 -0.2139 -1.0883
10034TIP3   OH230054   4.431   3.750   5.307  0.4014  0.0387  0.0211
10034TIP3    H130055   4.475   3.667   5.289  2.0785  0.8687  0.2299
10034TIP3    H230056   4.395   3.739   5.395  2.2739  0.2061  0.8310
10035TIP3   OH230057   2.451   6.258   2.034 -0.0076  0.0211 -0.1264
10035TIP3    H130058   2.419   6.189   1.976 -0.0097  0.2040 -0.3476
10035TIP3    H230059   2.527   6.220   2.078 -1.2912 -0.8532  1.3663
10036TIP3   OH230060   2.358   7.346   4.114  0.4351 -0.0213 -0.0581
10036TIP3    H130061   2.306   7.267   4.127  0.2476  0.0143 -0.6121
10036TIP3    H230062   2.361   7.359   4.019 -0.6301  1.3708  0.0727
10037TIP3   OH230063   2.329   1.265   0.529 -0.5904 -0.4910  0.5578
10037TIP3    H130064   2.399   1.277   0.465  0.7950 -1.1401  1.9078
10037TIP3    H230065   2.303   1.354   0.553 -0.2730 -0.2424 -0.0139
10038TIP3   OH230066   3.920   6.520   4.125  0.5025  0.3255  0.0809
10038TIP3    H130067   3.873   6.560   4.198  2.8298 -0.9631  2.3314
10038TIP3    H230068   3.900   6.427   4.132 -1.6341  0.4877 -2.7430
10039TIP3   OH230069   4.206   0.958   0.410  0.2637 -0.0560 -0.2910
10039TIP3    H130070   4.233   0.890   0.472 -1.4366  0.0465  0.5917
10039TIP3    H230071   4.120   0.930   0.378 -0.2318  1.4029 -0.3143
10040TIP3   OH230072   1.121   2.504   0.801 -0.5618  0.1392  0.3213
10040TIP3    H130073   1.093   2.542   0.884 -1.1881 -1.2309  0.7414
10040TIP3    H230074   1.049   2.448   0.774 -0.1807  0.2257 -0.9421
10041TIP3   OH230075   4.499   2.560   1.593  0.2075 -0.1971 -0.4503
10041TIP3    H130076   4.415   2.605   1.597  0.1228 -0.0344 -3.0633
10041TIP3    H230077   4.521   2.540   1.684 -1.9484  1.0532  0.3593
10042TIP3   OH230078   5.189   7.412   4.428 -0.0252  0.2830  0.0807
10042TIP3    H130079   5.273   7.375   4.454  0.8739  0.8139 -1.9643
10042TIP3    H230080   5.130   7.389   4.499  1.9164  0.1779  1.7181
10043TIP3   OH230081   6.051   3.662   6.309  0.1201 -0.4920  0.1704
10043TIP3    H130082   6.019   3.722   6.242 -0.7862 -1.1451  0.0089
10043TIP3    H230083   6.146   3.671   6.306  0.1502 -1.3200 -1.9539
10044TIP3   OH230084   4.432   6.467   5.684 -0.3144  0.4441  0.1387
10044TIP3    H130085   4.366   6.398   5.676 -0.4545  0.8252 -2.4671
10044TIP3    H230086   4.506   6.425   5.727 -1.5741 -0.4510  1.4903
10045TIP3   OH230087   1.635   0.931   1.714 -0.2320 -1.0231  0.0633
10045TIP3    H130088   1.678   0.950   1.798 -0.5120 -0.4665  0.0826
10045TIP3    H230089   1.623   0.836   1.714  1.5737 -1.2694 -0.2113
10046TIP3   OH230090   3.933   3.378   5.660  0.6694  0.2901  0.4028
10046TIP3    H130091   3.915   3.319   5.587 -1.6055 -0.3088  1.3891
10046TIP3    H230092   3.887   3.338   5.735  1.7019  1.6713  1.7999
10047TIP3   OH230093   0.866   1.448   1.223 -0.1578 -1.0167  0.2309
10047TIP3    H130094   0.876   1.542   1.211 -1.9391 -0.6457  1.4000
10047TIP3    H230095   0.797   1.423   1.162  0.8677 -1.7236 -0.6557
10048TIP3   OH230096   4.525   4.698   6.184  0.4123 -0.1694 -0.1746
10048TIP3    H130097   4.520   4.624   6.124  0.4144 -0.4591  0.1842
10048TIP3    H230098   4.574   4.665   6.259  0.5959  0.2567 -0.1070
10049TIP3   OH230099   3.644   3.227   4.801 -0.5688 -0.1675  0.6201
10049TIP3    H130100   3.585   3.221   4.726  0.7783  0.8439 -0.5562
10049TIP3    H230101   3.647   3.139   4.837 -1.2025 -0.6784 -0.5541
10050TIP3   OH230102   2.051   2.332   0.490  0.3384  0.1052 -0.3502
10050TIP3    H130103   1.986   2.270   0.521 -0.3461  0.3433 -1.2559
10050TIP3    H230104   2.074   2.301   0.402  1.2702  0.1613 -0.1329
10051TIP3   OH230105   2.517   3.650   5.521  0.6878  0.2989 -0.0856
10051TIP3    H130106   2.608   3.621   5.512  1.8868  2.6069  3.7021
10051TIP3    H230107   2.469   3.571   5.547  2.2077 -0.2287  1.1462
10052TIP3   OH230108   3.187   5.207   6.170 -0.2414  0.0446  0.3144
10052TIP3    H130109   3.096   5.177   6.176 -0.0564 -0.5371  0.2380
10052TIP3    H230110   3.180   5.298   6.139 -0.7388 -0.5351 -1.3450
10053TIP3   OH230111   3.493   5.684   6.103  0.0834 -0.3306 -0.1102
10053TIP3    H130112   3.495   5.661   6.010  1.0505 -1.2919  0.1472
10053TIP3    H230113   3.450   5.610   6.145  2.2508 -1.2291  0.5841
10054TIP3   OH230114   5.226   3.866   5.797  0.1254 -0.2252 -0.1111
10054TIP3    H130115   5.293   3.929   5.769 -1.1372  0.6230 -1.2320
10054TIP3    H230116   5.240   3.790   5.740 -0.3686  0.2541 -0.8725
10055TIP3   OH230117   4.125   5.200   1.638 -0.4961 -0.7761 -0.4356
10055TIP3    H130118   4.198   5.148   1.672  1.0669  0.7271 -1.3897
10055TIP3    H230119   4.164   5.253   1.569 -1.9926  1.7573  0.5801
10056TIP3   OH230120   3.267   1.491   1.266 -0.0415  0.0045 -1.0016
10056TIP3    H130121   3.315   1.556   1.214  0.3043  1.0967  0.6202
10056TIP3    H230122   3.193   1.540   1.302  0.1937 -0.5062  0.1985
10057TIP3   OH230123   5.822   6.468   0.311  0.2152  0.0253  0.7929
10057TIP3    H130124   5.852   6.418   0.236 -3.8098  0.0753 -0.9550
10057TIP3    H230125   5.857   6.421   0.387  2.5253 -1.2609 -1.0312
10058TIP3   OH230126   0.021   2.313   0.954  0.0053  0.5358  0.4840
10058TIP3    H130127   0.033   2.386   0.893 -2.1469  0.0522 -0.5699
10058TIP3    H230128   0.107   2.273   0.960  0.2167  0.4232 -2.4935
10059TIP3   OH230129   3.551   2.459   0.268  0.8063  0.8486 -0.4121
10059TIP3    H130130   3.539   2.365   0.252 -1.2907  0.7700  1.3957
10059TIP3    H230131   3.640   2.477   0.237  1.5390 -1.9084 -0.0650
10060TIP3   OH230132   4.782   4.192   5.073  0.3084 -0.2183  0.6946
10060TIP3    H130133   4.790   4.285   5.054 -1.0531 -0.1972  0.1656
10060TIP3    H230134   4.746   4.188   5.161 -1.4614 -0.1918  0.0054
10061TIP3   OH230135   7.286   6.889   1.657  0.0492 -0.5510 -0.0639
10061TIP3    H130136   7.274   6.891   1.562 -1.3676 -0.1665  0.1111
10061TIP3    H230137   7.311   6.799   1.677 -0.4751 -0.8403 -0.7091
10062TIP3   OH230138   7.076   7.214   1.370 -0.2825  0.1129 -0.4097
10062TIP3    H130139   7.030   7.298   1.372  0.7226  0.6749 -0.7935
10062TIP3    H230140   7.028   7.159   1.432 -0.9151  0.9844 -0.1210
10063TIP3   OH230141   4.239   3.510   5.559  0.1996 -0.5131  0.3081
10063TIP3    H130142   4.291   3.589   5.548  0.6279 -0.7848  0.3543
10063TIP3    H230143   4.148   3.540   5.559  0.3449 -0.0751 -0.1033
10064TIP3   OH230144   5.965   6.970   2.051 -0.0383 -0.1661  0.4129
10064TIP3    H130145   5.894   6.918   2.012 -1.6239  0.8921  1.8487
10064TIP3    H230146   5.959   7.055   2.007  0.0259  0.0826  0.8866
10065TIP3   OH230147   1.656   2.383   0.589 -0.1737  0.3026  0.0616
10065TIP3    H130148   1.631   2.462   0.637  2.2098  1.1743 -0.0587
10065TIP3    H230149   1.624   2.310   0.643  0.3197  1.3069  1.7309
10066TIP3   OH230150   4.115   5.316   5.573 -0.1549 -0.2234 -0.2353
10066TIP3    H130151   4.210   5.328   5.561 -0.0966 -1.1360 -0.6697
10066TIP3    H230152   4.107   5.237   5.626 -0.6820 -0.0572 -0.0608
10067TIP3   OH230153   0.406   0.279   1.315  0.0306 -0.4583 -0.0968
10067TIP3    H130154   0.484   0.335   1.310  0.5720 -1.2418 -0.6210
10067TIP3    H230155   0.428   0.203   1.261  0.1477 -2.1849  2.3020
10068TIP3   OH230156   5.319   6.500   0.731 -0.1457  0.2251 -0.0202
10068TIP3    H130157   5.230   6.475   0.757  0.8639 -2.9044  0.7129
10068TIP3    H230158   5.355   6.542   0.808  0.0017 -1.3262  0.7882
10069TIP3   OH230159   4.655   1.960   0.842 -0.1905 -0.2585  0.4939
10069TIP3    H130160   4.584   1.917   0.794 -0.3348  0.5234 -0.0075
10069TIP3    H230161   4.627   1.958   0.933 -0.1099 -1.3864  0.5012
10070TIP3   OH230162   5.700   6.380   6.091  0.1037  0.1477 -0.6146
10070TIP3    H130163   5.674   6.457   6.041  1.1025 -0.0099 -1.4021
10070TIP3    H230164   5.731   6.318   6.025  0.0305 -0.6369  0.0799
10071TIP3   OH230165   4.829   6.689   5.557 -0.0734 -0.4064  0.5554
10071TIP3    H130166   4.895   6.638   5.604  0.7511  0.5715  0.4684
10071TIP3    H230167   4.810   6.763   5.615 -1.0720 -0.6756  0.5687
10072TIP3   OH230168   4.964   6.518   5.342  1.5618 -0.1113 -0.5836
10072TIP3    H130169   4.953   6.600   5.390  0.3887 -0.1481 -0.7842
10072TIP3    H230170   5.039   6.475   5.385  2.8192  1.4969 -1.1262
10073TIP3   OH230171   5.269   4.647   5.492  0.5020 -0.1020 -0.2091
10073TIP3    H130172   5.195   4.674   5.438 -1.5374 -2.2514  1.4435
10073TIP3    H230173   5.280   4.717   5.556 -1.1388 -0.4863  0.5129
10074TIP3   OH230174   3.672   4.437   5.970 -0.2635 -0.1223  0.6372
10074TIP3    H130175   3.581   4.464   5.987 -0.3781 -1.5860  2.4530
10074TIP3    H230176   3.722   4.472   6.044  0.6728  0.6990 -0.3674
10075TIP3   OH230177   2.978   6.684   5.998 -0.1965 -0.0080  0.4329
10075TIP3    H130178   2.928   6.677   5.917  0.1452 -1.0700  0.3125
10075TIP3    H230179   2.918   6.727   6.059 -0.5790  0.4745 -0.2703
10076TIP3   OH230180   6.834   6.302   4.548  0.6657 -0.0045  0.4668
10076TIP3    H130181   6.881   6.307   4.631  0.7901 -0.7005  0.4414
10076TIP3    H230182   6.808   6.392   4.530  0.6320  0.1533  1.2637
10077TIP3   OH230183   1.571   1.849   0.243  0.1345  0.6695  0.1654
10077TIP3    H130184   1.663   1.832   0.222  0.0835  1.0720 -0.3800
10077TIP3    H230185   1.556   1.800   0.324  0.9391  0.9198  0.4719
10078TIP3   OH230186   1.805   1.314   1.031 -0.8012 -0.4456 -0.4868
10078TIP3    H130187   1.866   1.272   0.970  1.1290  0.0386  1.0582
10078TIP3    H230188   1.772   1.390   0.982 -0.5898 -1.0227 -1.5380
10079TIP3   OH230189   3.243   6.910   5.432 -0.4985 -0.8279 -0.0828
10079TIP3    H130190   3.327   6.935   5.470 -0.4060 -3.1696  1.3518
10079TIP3    H230191   3.210   6.990   5.392  1.2832  0.7150  1.4462
10080TIP3   OH230192   4.013   4.126   4.560 -0.1051  0.3305 -0.3425
10080TIP3    H130193   4.065   4.190   4.608  0.0738  1.3463 -1.8464
10080TIP3    H230194   4.071   4.094   4.491  0.2608 -2.4831  1.1950
10081TIP3   OH230195   5.531   5.528   5.934 -0.8269 -0.2305 -0.5773
10081TIP3    H130196   5.618   5.550   5.968 -0.5784  1.4237 -2.1917
10081TIP3    H230197   5.494   5.469   5.999  1.7298 -1.4258 -0.1535
10082TIP3   OH230198   1.721   0.245   4.533  0.4741 -0.6643 -0.7420
10082TIP3    H130199   1.729   0.313   4.466  0.4560  1.0022  0.9270
10082TIP3    H230200   1.643   0.269   4.582  0.5033 -1.8657 -0.0926
10083TIP3   OH230201   2.127   7.239   6.450 -0.6882 -1.0397 -0.3879
10083TIP3    H130202   2.108   7.244   6.356 -0.0278 -2.8016 -0.6304
10083TIP3    H230203   2.171   7.156   6.461 -1.3404 -1.1442  1.6048
10084TIP3   OH230204   3.608   6.147   4.604  0.3041 -0.3914  0.3001
10084TIP3    H130205   3.676   6.097   4.559  1.5192  0.5565  1.0660
10084TIP3    H230206   3.539   6.083   4.622  1.4896 -1.6212  0.5394
10085TIP3   OH230207   3.993   5.173   6.210 -0.5760 -0.2480  0.2696
10085TIP3    H130208   3.927   5.177   6.279 -1.0956 -1.7205 -0.1245
10085TIP3    H230209   3.954   5.219   6.136 -0.4680  0.3461  0.5728
10086TIP3   OH230210   7.151   5.286   5.953  0.1955 -0.1238  0.3313
10086TIP3    H130211   7.178   5.263   5.864 -0.8416 -0.1618  0.0170
10086TIP3    H230212   7.229   5.325   5.993  1.1384 -1.6033 -0.0472
10087TIP3   OH230213   3.330   6.251   4.835  0.0294  0.0683 -0.4989
10087TIP3    H130214   3.291   6.262   4.748  0.1529 -0.2347 -0.5944
10087TIP3    H230215   3.275   6.304   4.893  0.0593  0.4238 -0.7921
10088TIP3   OH230216   4.709   5.598   6.334 -0.0351 -0.4422  0.2946
10088TIP3    H130217   4.702   5.665   6.403  2.6390 -2.1147  2.3080
10088TIP3    H230218   4.625   5.553   6.336 -0.6894  0.7874  1.1573
10089TIP3   OH230219   0.329  -0.037   6.351 -0.1191 -0.2115  0.3198
10089TIP3    H130220   0.293   0.017   6.421  1.3468  0.2814  0.7117
10089TIP3    H230221   0.340   0.023   6.277  0.9391 -0.1136  0.5577
10090TIP3   OH230222   3.068   1.506   0.878  0.6687  0.0812 -0.4729
10090TIP3    H130223   3.141   1.456   0.915 -0.0027 -0.5138  0.0697
10090TIP3    H230224   3.098   1.597   0.880  1.9438 -0.3012 -1.5749
10091TIP3   OH230225   3.502   5.735   5.778 -0.5133  0.3896  0.2792
10091TIP3    H130226   3.510   5.817   5.827  2.6364 -0.5525  1.4836
10091TIP3    H230227   3.553   5.749   5.699 -0.2144 -0.2930  0.3449
10092TIP3   OH230228   6.971   5.493   3.842  0.3169  0.2589 -0.5174
10092TIP3    H130229   6.883   5.513   3.875  1.0627 -0.7899  2.2094
10092TIP3    H230230   6.956   5.465   3.751 -2.1275  0.4305 -0.2054
10093TIP3   OH230231   4.208   5.374   6.231  0.2333 -0.0263 -0.0079
10093TIP3    H130232   4.126   5.423   6.225  0.8852  0.9465 -1.4164
10093TIP3    H230233   4.201   5.324   6.312 -0.4732  2.3795  1.4597
10094TIP3   OH230234   1.223   0.328   0.652 -0.2789 -0.6068 -0.3918
10094TIP3    H130235   1.129   0.312   0.660 -0.0922 -1.0237  1.1165
10094TIP3    H230236   1.263   0.267   0.714  1.2378 -2.8964 -3.4885
10095TIP3   OH230237   3.004   1.576   1.227 -0.7151 -0.0693 -0.3154
10095TIP3    H130238   2.954   1.544   1.152 -1.3537 -1.8897  0.8723
10095TIP3    H230239   2.967   1.663   1.245 -1.8825 -0.4438 -0.8678
10096TIP3   OH230240   4.120   6.910   5.846 -0.2820 -0.5058  0.2603
10096TIP3    H130241   4.141   6.854   5.771 -1.1083 -0.3915 -0.0576
10096TIP3    H230242   4.165   6.993   5.828 -1.1409 -0.2015 -0.5066
10097TIP3   OH230243   1.949   5.335   5.206  0.2911  0.0000 -0.0949
10097TIP3    H130244   1.938   5.405   5.271  2.5416  1.0998 -0.8586
10097TIP3    H230245   2.004   5.270   5.250 -0.8488 -0.7908  0.2033
10098TIP3   OH230246   5.062   6.720   3.967  0.3251 -0.3912  0.0585
10098TIP3    H130247   5.106   6.801   3.942  0.4342 -0.5061 -0.1208
10098TIP3    H230248   5.028   6.685   3.885 -0.8390  0.1336  0.3025
10099TIP3   OH230249   1.584   0.361   0.198  0.0676  0.0656 -0.1985
10099TIP3    H130250   1.499   0.335   0.162  0.3348 -0.1318 -0.6839
10099TIP3    H230251   1.585   0.457   0.190 -0.1481  0.0773 -0.0998
10100TIP3   OH230252   7.060   6.318   1.396  0.2150  0.0777  0.1303
10100TIP3    H130253   7.083   6.411   1.387  0.9553 -0.0281  0.9533
10100TIP3    H230254   6.999   6.303   1.324 -1.8422  1.8138  1.4519
10101TIP3   OH230255   4.102   4.233   6.328 -0.0802  0.0303 -0.3988
10101TIP3    H130256   4.096   4.171   6.255 -1.7960  1.7880 -1.8318
10101TIP3    H230257   4.066   4.187   6.403 -3.6793  0.0674 -2.0157
10102TIP3   OH230258   4.932   5.669   5.244  0.1861  0.2312  0.1807
10102TIP3    H130259   4.886   5.634   5.320  2.4245 -0.3416  1.3079
10102TIP3    H230260   4.960   5.756   5.272  2.4745 -0.6326  0.6423
10103TIP3   OH230261   0.668   0.184   0.428 -0.2792 -0.4242 -0.1528
10103TIP3    H130262   0.739   0.123   0.411 -1.0188 -1.2883 -0.2019
10103TIP3    H230263   0.666   0.241   0.351 -1.1694 -1.9151 -1.2672
10104TIP3   OH230264   5.982   3.666   5.846  0.5062  0.4189 -0.7088
10104TIP3    H130265   5.996   3.749   5.892 -0.0085 -0.0340  0.2692
10104TIP3    H230266   5.900   3.632   5.882  0.2469 -0.0826 -1.7568
10105TIP3   OH230267   5.930   4.506   5.847  0.3377  0.1292 -0.6382
10105TIP3    H130268   5.977   4.576   5.894 -1.6479  0.3028  1.1823
10105TIP3    H230269   5.852   4.549   5.813  1.1047 -0.3209 -3.0245
10106TIP3   OH230270   3.835   3.780   5.899  0.3625  0.5298  0.0301
10106TIP3    H130271   3.777   3.772   5.823  1.4285 -0.1388 -0.7372
10106TIP3    H230272   3.912   3.826   5.865  0.9647 -0.0275  0.6328
10107TIP3   OH230273   5.012   5.041   5.966  0.4368  0.1040 -0.1420
10107TIP3    H130274   4.931   4.991   5.954  1.3166 -1.4700  0.4161
10107TIP3    H230275   5.010   5.106   5.896 -0.5402 -0.9730 -1.1421
10108TIP3   OH230276   3.364   0.793   0.739  0.1185 -0.5259  0.0848
10108TIP3    H130277   3.394   0.718   0.688  1.2304 -0.0705  0.0685
10108TIP3    H230278   3.334   0.856   0.672 -0.2365 -0.7008  0.0763
10109TIP3   OH230279   2.855   5.573   5.623 -0.3528  0.4395  0.5221
10109TIP3    H130280   2.814   5.659   5.619 -1.7721 -0.2782 -0.9664
10109TIP3    H230281   2.833   5.540   5.711 -1.9735  0.5641  0.1740
10110TIP3   OH230282   1.564   0.664   0.548  0.2539 -0.1026 -0.6664
10110TIP3    H130283   1.550   0.636   0.458  1.9709 -2.6233 -0.2086
10110TIP3    H230284   1.538   0.588   0.601  1.1346  0.6175  0.8322
10111TIP3   OH230285   4.709   7.251   4.616 -0.0529  0.3214  0.0182
10111TIP3    H130286   4.695   7.334   4.571 -0.0002 -0.9744 -2.4643
10111TIP3    H230287   4.708   7.274   4.709  1.2618  3.3087 -0.6280
10112TIP3   OH230288   0.680   0.740   2.963 -0.4570  0.0840  0.3150
10112TIP3    H130289   0.669   0.686   2.885 -1.7885  1.8426 -0.7233
10112TIP3    H230290   0.769   0.719   2.994 -0.5623 -1.9240 -0.6313
10113TIP3   OH230291   6.598   7.398   2.467 -0.0402  0.0155 -0.2838
10113TIP3    H130292   6.638   7.411   2.381  0.9447 -1.5691 -0.0655
10113TIP3    H230293   6.565   7.309   2.465 -0.6471  0.2145  0.7320
10114TIP3   OH230294   1.202   0.194   1.301  0.4251 -0.1191 -0.2603
10114TIP3    H130295   1.210   0.099   1.303 -1.0416 -0.2296  0.9398
10114TIP3    H230296   1.257   0.224   1.374  1.2454 -0.0050 -0.9146
10115TIP3   OH230297   4.447   5.555   5.657 -0.6090  0.0411  0.1865
10115TIP3    H130298   4.393   5.585   5.731 -0.2559  0.0432  0.4448
10115TIP3    H230299   4.432   5.461   5.654 -2.8439  0.4017 -1.5235
10116TIP3   OH230300   7.369   2.193   5.170  0.2794  0.0306  0.3051
10116TIP3    H130301   7.439   2.143   5.127  0.0383 -0.0185 -0.0311
10116TIP3    H230302   7.295   2.133   5.172  0.1388  0.2074  0.3408
10117TIP3   OH230303   6.315   5.787   5.916  0.9942 -0.2546 -0.0292
10117TIP3    H130304   6.385   5.793   5.981  1.1734  0.6301 -0.3023
10117TIP3    H230305   6.279   5.699   5.928  1.9515 -0.6049  0.3169
10118TIP3   OH230306   5.183   6.481   5.949 -0.2450 -0.4672 -0.1990
10118TIP3    H130307   5.155   6.498   6.039 -1.1543 -1.3894 -0.3164
10118TIP3    H230308   5.242   6.406   5.956  0.5930  0.1685 -0.2367
10119TIP3   OH230309   1.159   3.208   0.604  0.5837 -0.4024 -0.1772
10119TIP3    H130310   1.121   3.220   0.692 -0.5194  0.7051 -0.7897
10119TIP3    H230311   1.249   3.182   0.621  0.5313  0.2875  1.2944
10120TIP3   OH230312   1.223   1.130   0.893  0.7158 -0.2351  0.1882
10120TIP3    H130313   1.311   1.166   0.886  0.1254  1.4838  1.4831
10120TIP3    H230314   1.227   1.049   0.841  2.2961  1.1817 -1.9776
10121TIP3   OH230315   5.650   2.593   6.437 -0.2561 -0.2782  0.1182
10121TIP3    H130316   5.657   2.605   6.343 -1.5731 -1.5468 -0.1514
10121TIP3    H230317   5.674   2.502   6.452  0.5205  0.0706  1.0895
10122TIP3   OH230318   4.937   6.185   4.512 -0.2716  0.2282 -0.6205
10122TIP3    H130319   4.977   6.126   4.575 -0.0183  0.5049 -0.5196
10122TIP3    H230320   5.011   6.217   4.459 -0.1481  1.9348  0.5641
10123TIP3   OH230321   4.493   0.737   0.587  0.3525 -0.5274  0.0270
10123TIP3    H130322   4.587   0.739   0.572  0.4369 -0.9256  0.5111
10123TIP3    H230323   4.458   0.693   0.510  0.4800  0.3328 -0.5371
10124TIP3   OH230324   5.597   6.311   2.022 -0.3131 -0.2980 -0.4038
10124TIP3    H130325   5.623   6.375   1.955  1.6437 -1.2604 -0.5874
10124TIP3    H230326   5.553   6.364   2.089  1.0733  1.2351 -0.6641
10125TIP3   OH230327   4.149   4.964   6.264  0.3524  0.0245 -0.3261
10125TIP3    H130328   4.132   4.948   6.357  1.5525 -1.5919 -0.3783
10125TIP3    H230329   4.094   5.040   6.243 -0.2859  0.1205  1.5793
10126TIP3   OH230330   2.652   0.768   1.021 -0.1414  0.0213 -0.3586
10126TIP3    H130331   2.727   0.816   1.056  1.3170 -1.4257 -1.4307
10126TIP3    H230332   2.684   0.731   0.938 -1.2514 -2.6999  0.3716
10127TIP3   OH230333   4.447   6.136   4.889  0.1903 -0.1634  0.0622
10127TIP3    H130334   4.416   6.205   4.948  0.7951 -0.1970  0.4204
10127TIP3    H230335   4.535   6.163   4.864  0.0951 -0.3615 -0.4979
10128TIP3   OH230336   3.759   6.845   5.862  0.6144 -0.0636  0.6392
10128TIP3    H130337   3.795   6.913   5.805  0.4406 -1.1735 -0.8146
10128TIP3    H230338   3.732   6.892   5.941  0.0533  1.6351 -0.5420
10129TIP3   OH230339   3.021   1.822   0.391 -0.6745  0.5623 -0.2517
10129TIP3    H130340   2.946   1.790   0.341 -1.2127  2.0695 -0.4270
10129TIP3    H230341   3.042   1.907   0.351  0.8617  0.3446  0.0598
10130TIP3   OH230342   2.199   0.085   1.568 -0.9259 -0.3738 -1.0596
10130TIP3    H130343   2.228  -0.004   1.545  3.3216  0.9821 -1.2782
10130TIP3    H230344   2.185   0.082   1.663 -1.3188 -1.4256 -1.1455
10131TIP3   OH230345   2.831   0.485   0.616 -0.0004  0.0684  0.1508
10131TIP3    H130346   2.857   0.533   0.695  1.9208  1.8944 -1.5777
10131TIP3    H230347   2.913   0.463   0.572 -1.1342  2.0647 -3.1119
10132TIP3   OH230348   7.702   1.059   2.183 -0.3172  0.0690 -0.3421
10132TIP3    H130349   7.788   1.097   2.205 -0.7946  0.9096  0.1351
10132TIP3    H230350   7.721   0.992   2.118  0.8330 -0.5296  0.5875
10133TIP3   OH230351   4.427   4.535   5.992  0.3017 -0.3784  0.5363
10133TIP3    H130352   4.334   4.534   5.967  0.4245  0.1076  0.0498
10133TIP3    H230353   4.451   4.443   6.002 -0.4830 -0.4808  1.5981
10134TIP3   OH230354   1.212   1.252   0.628  0.9226 -0.5783  0.0601
10134TIP3    H130355   1.259   1.186   0.678  0.3693  0.0899  1.5049
10134TIP3    H230356   1.278   1.290   0.570  1.7905 -0.7632  0.9139
10135TIP3   OH230357   2.568   0.536   1.181 -0.2514 -0.6549  0.6304
10135TIP3    H130358   2.474   0.554   1.188 -0.3287 -1.2834  1.2937
10135TIP3    H230359   2.603   0.608   1.128 -0.6123  1.1980  2.8464
10136TIP3   OH230360   2.034   6.551   1.134 -0.6148 -0.1599  0.2155
10136TIP3    H130361   2.077   6.607   1.199  0.3609  1.5795 -1.8750
10136TIP3    H230362   2.066   6.463   1.155  2.4978  0.8433 -0.0659
10137TIP3   OH230363   1.455   2.947   5.408 -0.0981 -0.0207  0.1741
10137TIP3    H130364   1.517   2.883   5.442 -0.4236  0.4230  1.6332
10137TIP3    H230365   1.501   3.031   5.416  0.0431  0.0286 -1.0408
10138TIP3   OH230366   2.725   0.765   0.635 -0.5338  0.0505  0.0836
10138TIP3    H130367   2.747   0.748   0.543  0.8661 -0.4649  0.5031
10138TIP3    H230368   2.809   0.776   0.678 -1.2089  1.0890  1.1661
10139TIP3   OH230369   4.976   5.362   4.627 -0.0372 -0.3341 -0.6274
10139TIP3    H130370   4.978   5.438   4.569 -0.1445  0.2588  0.1419
10139TIP3    H230371   4.888   5.362   4.664  0.3731 -0.0685  0.3761
10140TIP3   OH230372   7.346   0.718   1.481 -0.0813  0.3752 -0.1704
10140TIP3    H130373   7.329   0.681   1.567  0.0553 -0.4693 -0.4991
10140TIP3    H230374   7.306   0.805   1.484  0.9420  0.8112  1.1260
10141TIP3   OH230375   3.144   0.075   0.285  0.0702  0.4649  0.0457
10141TIP3    H130376   3.065   0.024   0.305  0.3265  0.2369  0.4770
10141TIP3    H230377   3.162   0.055   0.193 -0.9522  1.3046 -0.3448
10142TIP3   OH230378   4.116   1.488   1.033 -0.3286  0.0930  0.1819
10142TIP3    H130379   4.108   1.437   1.114 -1.0816 -2.7174 -1.6081
10142TIP3    H230380   4.191   1.451   0.988 -1.1012  0.3076 -1.3245
10143TIP3   OH230381   6.652   6.779   5.406 -0.6841  0.0376 -0.3771
10143TIP3    H130382   6.649   6.703   5.464 -1.2749 -0.1023 -0.5861
10143TIP3    H230383   6.679   6.744   5.321 -1.0330  0.0460 -0.4933
10144TIP3   OH230384   2.666   6.415   3.593  0.0961 -0.1535 -0.0388
10144TIP3    H130385   2.751   6.390   3.555  1.1561  0.9254  1.5549
10144TIP3    H230386   2.626   6.331   3.618  1.5750 -0.5906  0.9971
10145TIP3   OH230387   1.735   1.766   1.364  0.0101  0.5075  0.3095
10145TIP3    H130388   1.756   1.677   1.334  2.6930  0.7534  1.2789
10145TIP3    H230389   1.819   1.812   1.359 -1.0456  2.5608  1.2714
10146TIP3   OH230390   2.620   2.743   0.577  0.3458  0.0415 -0.0079
10146TIP3    H130391   2.606   2.666   0.522  0.4054  1.2186 -1.6964
10146TIP3    H230392   2.554   2.805   0.549  0.0621  0.4928  1.6004
10147TIP3   OH230393   1.206   0.783   6.414 -0.4015 -0.0746  0.0796
10147TIP3    H130394   1.254   0.866   6.423  0.5446 -0.5252 -0.6482
10147TIP3    H230395   1.241   0.728   6.484 -0.6786 -0.0190  0.2604
10148TIP3   OH230396   7.658   5.948   5.547 -0.1882  0.2654 -0.4294
10148TIP3    H130397   7.596   5.961   5.619 -0.6025  2.4378 -1.1313
10148TIP3    H230398   7.744   5.966   5.585 -0.2856  0.2137 -0.1874
10149TIP3   OH230399   0.795   6.873   0.878 -0.2408 -0.5063  0.3932
10149TIP3    H130400   0.790   6.828   0.794 -1.0534 -1.7287  1.0723
10149TIP3    H230401   0.760   6.960   0.861 -0.6162 -0.8200 -0.4774
10150TIP3   OH230402   4.022   7.006   5.366  0.2355 -0.5151  0.5558
10150TIP3    H130403   4.102   7.059   5.361  0.5777 -0.9477  1.5021
10150TIP3    H230404   4.045   6.931   5.419 -0.5319 -1.1483  0.0104
10151TIP3   OH230405   4.092   6.337   3.136 -0.7076  0.1407 -0.1304
10151TIP3    H130406   4.137   6.410   3.178  0.1663  0.1678 -1.1031
10151TIP3    H230407   4.044   6.294   3.207  0.0535  0.7022  0.7271
10152TIP3   OH230408   6.832   4.057   5.891  0.3091  0.0387 -0.0479
10152TIP3    H130409   6.878   4.112   5.953  2.1709  0.4544 -1.7591
10152TIP3    H230410   6.838   4.104   5.807 -2.1474 -0.4960 -0.5742
10153TIP3   OH230411   5.846   6.941   5.177  0.2796  1.0827 -0.2473
10153TIP3    H130412   5.850   7.034   5.154  0.4993  1.4756  1.2959
10153TIP3    H230413   5.880   6.937   5.267  0.1018 -0.4637 -0.2303
10154TIP3   OH230414   5.772   4.341   4.131 -0.4330 -0.3215 -0.7040
10154TIP3    H130415   5.783   4.272   4.066  1.5766  0.6486 -1.4148
10154TIP3    H230416   5.767   4.422   4.080 -0.5405  0.2848  0.2556
10155TIP3   OH230417   1.169  -0.016   0.325 -0.2276 -0.5030  0.1752
10155TIP3    H130418   1.081   0.014   0.343  0.0820 -0.1442  1.1108
10155TIP3    H230419   1.194   0.028   0.243 -0.7780 -0.3425  0.0961
10156TIP3   OH230420   6.624   6.220   1.848  0.3861 -0.2045 -0.3419
10156TIP3    H130421   6.662   6.208   1.761 -1.7005  0.0924 -1.3174
10156TIP3    H230422   6.653   6.143   1.897  1.1829 -0.6185 -1.4248
10157TIP3   OH230423   3.803   6.605   4.647 -0.6076 -0.4333  0.0142
10157TIP3    H130424   3.708   6.594   4.650 -0.5307 -1.0388  0.5074
10157TIP3    H230425   3.831   6.602   4.738 -0.2787  1.4206 -0.0065
10158TIP3   OH230426   5.892   5.074   6.307 -0.3380  0.1222 -0.5829
10158TIP3    H130427   5.981   5.048   6.283 -0.4908 -1.3225  0.4100
10158TIP3    H230428   5.866   5.134   6.237  1.4475  0.6446 -0.8330
10159TIP3   OH230429   3.338   1.491   0.186 -0.5998  0.3526  0.1565
10159TIP3    H130430   3.328   1.397   0.167  0.1462  0.8391 -2.8792
10159TIP3    H230431   3.281   1.506   0.261 -1.0307 -2.4579  0.4672
10160TIP3   OH230432   4.152   3.090   6.130 -0.4244  0.4228 -0.2684
10160TIP3    H130433   4.080   3.056   6.077 -0.8016 -0.3382  0.7271
10160TIP3    H230434   4.191   3.013   6.170 -0.8268  1.0741  1.4162
10161TIP3   OH230435   7.873   0.777   1.254  0.0774 -0.1440  0.1472
10161TIP3    H130436   7.886   0.824   1.171 -0.2504  0.0412  0.1978
10161TIP3    H230437   7.838   0.843   1.313  1.2103 -0.0478  0.7144
10162TIP3   OH230438   6.929   5.767   5.033 -0.5203  0.4594 -0.0571
10162TIP3    H130439   6.933   5.845   5.088  1.0662  0.7335 -0.5165
10162TIP3    H230440   6.908   5.800   4.946 -1.1732  0.2225  0.0070
10163TIP3   OH230441   2.493   0.936   0.581 -0.2365  0.2106  0.1329
10163TIP3    H130442   2.562   1.000   0.565 -0.5285  0.2083 -1.2099
10163TIP3    H230443   2.539   0.852   0.583 -0.0189  0.3423  0.6109
10164TIP3   OH230444   6.701   5.882   5.678  0.3160 -0.1382  0.1492
10164TIP3    H130445   6.707   5.977   5.668 -1.8619  0.1879  1.5441
10164TIP3    H230446   6.738   5.865   5.764  1.4236 -0.6760 -0.4176
10165TIP3   OH230447   3.431   0.531   0.634 -0.4499  0.3098 -0.0828
10165TIP3    H130448   3.387   0.447   0.626  0.6758 -0.1753 -1.5952
10165TIP3    H230449   3.461   0.551   0.545  2.4165  0.5511  0.8628
10166TIP3   OH230450   0.736   7.090   0.167  0.3182 -0.0555  0.1499
10166TIP3    H130451   0.641   7.091   0.176  0.3107 -0.1315  0.0750
10166TIP3    H230452   0.751   7.101   0.073  0.3682 -0.8669  0.0622
10167TIP3   OH230453   3.406   0.454   0.344  0.2307  0.2810 -0.3406
10167TIP3    H130454   3.493   0.483   0.316  1.4313 -0.1548  2.6949
10167TIP3    H230455   3.418   0.363   0.369 -1.1401  0.1903  0.0347
10168TIP3   OH230456   5.255   4.922   5.297 -0.5879  0.3683  0.8425
10168TIP3    H130457   5.203   4.993   5.334  0.2705  1.4969 -0.0679
10168TIP3    H230458   5.208   4.842   5.321 -2.8812  1.3740 -0.1733
10169TIP3   OH230459   5.337   4.167   5.766 -0.3386  0.5426 -0.6131
10169TIP3    H130460   5.384   4.229   5.822  0.3113 -0.7863  0.3235
10169TIP3    H230461   5.403   4.136   5.704 -0.5518  0.4185 -0.7779
10170TIP3   OH230462   5.480   4.767   5.083 -0.7299  0.3094 -0.4262
10170TIP3    H130463   5.505   4.793   4.994  0.1015  0.5200 -0.1304
10170TIP3    H230464   5.528   4.826   5.140 -0.4195 -0.5403  0.1911
10171TIP3   OH230465   5.498   4.219   4.060  0.6429 -0.2114  0.4188
10171TIP3    H130466   5.568   4.208   3.995 -0.1253 -1.0068 -0.3015
10171TIP3    H230467   5.507   4.309   4.091  0.7812  0.3196 -1.1072
10172TIP3   OH230468   2.905   1.994  -0.025 -0.0339  0.2543  0.1428
10172TIP3    H130469   2.919   2.081   0.012 -0.0989  0.0095  0.7489
10172TIP3    H230470   2.875   1.941   0.049  3.1459 -1.1235  0.5594
10173TIP3   OH230471   3.043   3.806   6.415  0.5195 -0.2149 -0.2367
10173TIP3    H130472   3.101   3.871   6.376 -0.0943 -0.5408 -1.7301
10173TIP3    H230473   3.077   3.722   6.383 -0.8307 -0.4009 -1.2361
10174TIP3   OH230474   0.081   7.434   1.916  0.1497  0.0230  0.7204
10174TIP3    H130475  -0.005   7.462   1.947  0.8391  0.6752  2.0668
10174TIP3    H230476   0.062   7.367   1.850 -1.4185  1.1385 -0.0002
10175TIP3   OH230477   1.817   2.160   0.485  0.0057  0.1354 -0.1384
10175TIP3    H130478   1.802   2.244   0.528  1.1683  0.2745 -0.0026
10175TIP3    H230479   1.795   2.095   0.553  1.1325  0.3474  0.4343
10176TIP3   OH230480   4.008   3.634   1.716 -0.5040  0.2296  0.5883
10176TIP3    H130481   3.978   3.634   1.807 -1.6152 -1.0678  0.2450
10176TIP3    H230482   3.929   3.614   1.665  0.1335  0.8149 -0.6527
10177TIP3   OH230483   4.380   5.569   6.213 -0.5049 -1.0990  0.2849
10177TIP3    H130484   4.335   5.486   6.198 -0.6271 -0.9271 -0.3075
10177TIP3    H230485   4.315   5.636   6.194 -0.1645 -0.8568 -0.0501
10178TIP3   OH230486   4.989   5.574   6.393 -0.1829 -0.3643  0.4216
10178TIP3    H130487   5.019   5.486   6.375  0.1651  0.1167 -1.4054
10178TIP3    H230488   4.898   5.575   6.364  0.4456  0.4747 -1.6042
10179TIP3   OH230489   2.922   5.172   0.578  0.0072  0.6592 -0.1624
10179TIP3    H130490   2.961   5.111   0.642  0.3869  1.6333  0.5465
10179TIP3    H230491   2.911   5.254   0.627  0.9675  1.6352 -1.5430
10180TIP3   OH230492   5.345   4.601   6.124 -0.1863  0.1717 -0.0362
10180TIP3    H130493   5.394   4.658   6.183 -0.9942  0.3279  0.5087
10180TIP3    H230494   5.266   4.651   6.103 -0.0513 -0.0199 -0.9940
10181TIP3   OH230495   1.838   1.074   0.140  0.4120 -0.0734 -0.2573
10181TIP3    H130496   1.932   1.077   0.125  0.9938 -1.8000  2.5734
10181TIP3    H230497   1.804   1.154   0.101  3.4127  1.8696  0.9928
10182TIP3   OH230498   6.481   5.712   5.282  0.0079  0.1526  0.1504
10182TIP3    H130499   6.402   5.658   5.281  0.8754 -1.1651  1.5461
10182TIP3    H230500   6.459   5.784   5.341 -0.2369 -0.0862  0.3514
10183TIP3   OH230501   5.934   5.177   5.807 -0.1261  0.5802 -0.2509
10183TIP3    H130502   5.942   5.117   5.733  2.8412  1.7299 -0.9511
10183TIP3    H230503   5.860   5.233   5.785 -0.7772 -0.6241 -1.1909
10184TIP3   OH230504   1.871   2.070   0.768 -0.3845  0.0404  0.5946
10184TIP3    H130505   1.791   2.110   0.801 -0.6629  0.5093 -0.6073
10184TIP3    H230506   1.940   2.131   0.792 -0.7621  1.0904 -0.8857
10185TIP3   OH230507   0.688   0.452   0.090  0.5174  0.0979  0.1936
10185TIP3    H130508   0.640   0.454   0.173  2.4643  0.0085  1.3377
10185TIP3    H230509   0.726   0.539   0.082 -0.2461  0.3331 -0.9665
10186TIP3   OH230510   6.073   6.050   6.065  0.2012 -0.0213 -0.6605
10186TIP3    H130511   6.120   6.071   5.984  0.4600  2.3904  0.0805
10186TIP3    H230512   6.005   5.988   6.037  0.4950  0.5131 -2.6747
10187TIP3   OH230513   4.264   3.304   6.246  0.0628  0.1845 -0.8542
10187TIP3    H130514   4.229   3.376   6.194 -1.9266 -0.6920 -0.7996
10187TIP3    H230515   4.234   3.225   6.200  0.6890 -0.5878  0.0567
10188TIP3   OH230516   3.690   6.375   5.297  0.0079 -0.1031  0.0786
10188TIP3    H130517   3.683   6.288   5.258  1.5207 -0.3166  0.2506
10188TIP3    H230518   3.662   6.435   5.228 -0.3643 -0.6838 -0.2738
10189TIP3   OH230519   5.209   4.915   4.477  0.1866 -0.0597  0.3004
10189TIP3    H130520   5.215   4.956   4.391 -0.4996  0.1186  0.3312
10189TIP3    H230521   5.149   4.972   4.526  0.2045 -0.4198  0.7383
10190TIP3   OH230522   3.149   2.257   6.411 -0.0234  0.5203 -0.2125
10190TIP3    H130523   3.076   2.289   6.463 -0.0111  2.9027 -1.5837
10190TIP3    H230524   3.226   2.269   6.467 -0.5436 -1.0924  0.8660
10191TIP3   OH230525   2.209   0.185   0.752 -0.3945 -0.3328  0.1344
10191TIP3    H130526   2.286   0.199   0.698 -0.1838 -0.5600  0.3726
10191TIP3    H230527   2.194   0.269   0.796 -0.0926 -0.3852  0.3350
10192TIP3   OH230528   2.083   1.106   0.496  0.7932 -0.4313  0.5285
10192TIP3    H130529   2.111   1.015   0.505 -0.0216 -0.6083  1.3590
10192TIP3    H230530   2.161   1.158   0.517  1.0867 -0.9379  0.6809
10193TIP3   OH230531   5.682   5.755   1.217  0.4882  0.5365  0.1809
10193TIP3    H130532   5.714   5.690   1.155  1.0803  0.4341  0.5838
10193TIP3    H230533   5.712   5.839   1.181  1.8787  0.3875  0.9300
10194TIP3   OH230534   3.653   6.386   5.774  0.6252  0.4727  0.0726
10194TIP3    H130535   3.747   6.403   5.779  0.7020 -0.2726  1.4048
10194TIP3    H230536   3.629   6.409   5.684  1.4498  3.9641  0.6379
10195TIP3   OH230537   3.312   5.290   4.847 -0.0020 -0.0054  0.3282
10195TIP3    H130538   3.256   5.289   4.925  3.2404  0.2541  2.7918
10195TIP3    H230539   3.335   5.383   4.836 -0.8667  0.0191 -1.2577
10196TIP3   OH230540   5.836   6.439   1.621  0.0634 -0.0950  0.3852
10196TIP3    H130541   5.918   6.471   1.658 -0.0774 -1.2117  1.7350
10196TIP3    H230542   5.849   6.344   1.614  0.6172  0.1862 -3.8517
10197TIP3   OH230543   0.485   1.772   0.325  0.1478 -0.1884  0.3688
10197TIP3    H130544   0.406   1.726   0.298  0.1055 -0.2747  0.6472
10197TIP3    H230545   0.531   1.711   0.382  0.2390 -0.0018  0.4953
10198TIP3   OH230546   3.940   4.963   4.873  0.0704 -0.1177 -0.3980
10198TIP3    H130547   3.907   5.051   4.888  0.6332  0.2242 -1.1538
10198TIP3    H230548   4.036   4.972   4.875  0.1471 -0.9203  0.7519
10199TIP3   OH230549   5.121   6.938   4.267 -0.1848  0.2842  0.2455
10199TIP3    H130550   5.100   6.927   4.360 -1.0252  1.5184  0.2158
10199TIP3    H230551   5.160   6.854   4.241 -1.8673 -0.8263  1.1979
10200TIP3   OH230552   1.741   0.891   3.060  0.7404  0.5582  0.2538
10200TIP3    H130553   1.646   0.901   3.061  0.6201 -0.3900 -0.9427
10200TIP3    H230554   1.758   0.822   2.995  2.2921  1.3036 -0.1708
10201TIP3   OH230555   0.003   7.382  -0.020 -0.2871  0.3809 -0.1093
10201TIP3    H130556   0.027   7.309   0.037  1.9803 -0.6123 -2.2572
10201TIP3    H230557   0.033   7.460   0.027  2.9331 -0.5251 -0.5552
10202TIP3   OH230558   5.070   4.217   6.367 -0.0425  0.0236  0.0069
10202TIP3    H130559   5.102   4.127   6.362  1.2063  0.5252 -1.3881
10202TIP3    H230560   5.093   4.246   6.455 -1.0559 -1.2372  0.6986
10203TIP3   OH230561   5.207   3.607   6.169  0.1494 -0.3712 -0.3530
10203TIP3    H130562   5.238   3.641   6.253 -0.3695 -0.5411 -0.0895
10203TIP3    H230563   5.136   3.666   6.143 -0.2454 -0.8024 -0.2644
10204TIP3   OH230564   2.698   3.921   0.367  0.1106 -0.0528 -0.1827
10204TIP3    H130565   2.618   3.874   0.390  0.0612  0.0842 -0.0782
10204TIP3    H230566   2.768   3.869   0.407  0.0292  0.1601  0.2517
10205TIP3   OH230567   6.421   4.640   5.572 -0.1385 -0.3945 -0.3415
10205TIP3    H130568   6.435   4.683   5.487  0.1360  0.5076  0.1477
10205TIP3    H230569   6.333   4.666   5.598 -0.3789 -1.0066 -0.5370
10206TIP3   OH230570   0.331   4.767   5.876 -0.2005 -0.3773 -0.4752
10206TIP3    H130571   0.409   4.736   5.922  0.8974  0.2498 -1.8920
10206TIP3    H230572   0.359   4.778   5.785 -0.9966  3.1369 -0.3644
10207TIP3   OH230573   4.757   4.887   4.981  0.1018 -0.0599  0.2910
10207TIP3    H130574   4.784   4.849   4.897 -0.3560 -0.8475  0.4952
10207TIP3    H230575   4.738   4.979   4.960  0.0735 -0.2257 -0.4494
10208TIP3   OH230576   4.047   2.428   0.596  0.0211  0.7107  0.9978
10208TIP3    H130577   4.026   2.374   0.520  1.7392 -1.7225  2.2058
10208TIP3    H230578   3.965   2.475   0.615 -0.9247  0.0367 -1.2528
10209TIP3   OH230579   2.627   1.630   0.045  0.1479 -0.0700  0.0484
10209TIP3    H130580   2.534   1.611   0.034  0.1814 -1.0978  1.3632
10209TIP3    H230581   2.665   1.614  -0.042 -0.9800  0.9161 -0.6442
10210TIP3   OH230582   7.266   5.270   4.855  0.1498 -0.4231 -0.1182
10210TIP3    H130583   7.206   5.338   4.887 -0.2031 -0.4921 -0.6219
10210TIP3    H230584   7.352   5.297   4.886  0.0821  0.5105 -0.7216
10211TIP3   OH230585   5.421   4.548   5.266  0.0591  0.1491  0.0685
10211TIP3    H130586   5.426   4.594   5.183  0.0397 -0.8193 -0.4752
10211TIP3    H230587   5.380   4.610   5.326 -1.4256  0.2599 -1.0572
10212TIP3   OH230588   7.228   4.365   5.971 -0.3448 -0.3283 -0.0972
10212TIP3    H130589   7.176   4.285   5.977  0.1657 -0.8233 -1.9895
10212TIP3    H230590   7.164   4.436   5.963 -0.7816 -0.6011  0.9806
10213TIP3   OH230591   0.066   5.698   6.006  0.6498 -0.5672 -0.3964
10213TIP3    H130592   0.130   5.768   5.996 -0.1781  0.1387 -0.7053
10213TIP3    H230593   0.107   5.638   6.069  0.9805  0.6158  0.5210
10214TIP3   OH230594   5.385   1.014   0.173 -0.3218  0.3323 -0.5758
10214TIP3    H130595   5.410   1.089   0.227 -0.1061 -1.1910  1.5393
10214TIP3    H230596   5.372   1.050   0.086  1.9599  2.4629 -0.1136
10215TIP3   OH230597   5.890   4.324   6.065  0.3855 -0.0648  0.2399
10215TIP3    H130598   5.797   4.303   6.077  0.4239  0.5600  1.7110
10215TIP3    H230599   5.891   4.387   5.993 -0.1420 -1.5654 -1.1142
10216TIP3   OH230600   6.398   6.457   3.690  0.8762 -0.2284 -0.1580
10216TIP3    H130601   6.451   6.469   3.768  2.5333  0.3432 -1.3388
10216TIP3    H230602   6.321   6.512   3.704 -0.3498 -2.4791  2.3621
10217TIP3   OH230603   7.833   4.922   5.414  0.2082  0.0155 -0.0226
10217TIP3    H130604   7.886   4.879   5.347  1.1755  2.3853 -0.8416
10217TIP3    H230605   7.744   4.891   5.398  0.8219 -1.3388 -0.8434
10218TIP3   OH230606   6.014   5.870   5.562 -0.7244 -0.3187  0.4912
10218TIP3    H130607   5.946   5.843   5.500 -0.0313 -1.2521  0.1167
10218TIP3    H230608   6.018   5.799   5.626  1.0000 -1.0530 -0.4036
10219TIP3   OH230609   0.545   3.652   5.752  0.4541  0.0405  0.2947
10219TIP3    H130610   0.461   3.696   5.768  1.0886  1.0954  0.8093
10219TIP3    H230611   0.562   3.667   5.659 -1.6665 -3.3143 -0.7334
10220TIP3   OH230612   2.519   7.458   0.528 -0.1629  0.4303 -0.3208
10220TIP3    H130613   2.565   7.377   0.552  2.2535  1.6929 -0.5608
10220TIP3    H230614   2.489   7.443   0.439  0.6778 -0.0395 -0.5276
10221TIP3   OH230615   4.945   3.786   6.138 -0.5306  0.2180  0.1547
10221TIP3    H130616   4.971   3.811   6.226 -0.5422  1.6416 -0.2359
10221TIP3    H230617   4.858   3.747   6.149  0.5204 -1.9346  1.0842
10222TIP3   OH230618   3.989   0.734   0.329 -0.0197 -0.1506 -0.1011
10222TIP3    H130619   4.025   0.731   0.418 -3.2172 -0.4364  1.2596
10222TIP3    H230620   4.044   0.673   0.279  0.9332 -1.0884  2.0138
10223TIP3   OH230621   7.380   7.112   5.013 -0.3213  0.7282 -0.0322
10223TIP3    H130622   7.292   7.080   5.033 -1.0600  2.0291 -1.0860
10223TIP3    H230623   7.385   7.111   4.918  0.9454  0.3272  0.0336
10224TIP3   OH230624   2.414   2.828   1.021  0.0662  0.0901  0.1172
10224TIP3    H130625   2.435   2.837   1.114  1.2660 -1.1065 -0.0158
10224TIP3    H230626   2.322   2.851   1.014 -0.3254 -0.9240  1.7947
10225TIP3   OH230627   3.352   2.299   0.789  0.4026  0.1547 -0.2454
10225TIP3    H130628   3.264   2.283   0.823 -0.1953 -0.6456 -2.1187
10225TIP3    H230629   3.391   2.359   0.852 -0.5116 -1.5988  2.0903
10226TIP3   OH230630   6.165   4.614   3.324  0.0830 -0.4233 -0.1143
10226TIP3    H130631   6.074   4.619   3.294 -0.0454  0.3513  0.3863
10226TIP3    H230632   6.185   4.702   3.356  0.6685 -0.8598  0.7485
10227TIP3   OH230633   2.610   0.296   0.533 -0.8814  0.6299  0.0653
10227TIP3    H130634   2.617   0.378   0.583 -0.1267  0.4662  0.2336
10227TIP3    H230635   2.639   0.320   0.444  1.4394  0.0585  0.6467
10228TIP3   OH230636   0.088   4.553   5.929  0.0308  0.7129  0.4645
10228TIP3    H130637   0.001   4.513   5.933  0.2350  0.1814 -0.3404
10228TIP3    H230638   0.148   4.481   5.951  0.0982  1.8241  4.3163
10229TIP3   OH230639   6.345   3.860   5.590 -0.0923  0.2929  0.3482
10229TIP3    H130640   6.429   3.853   5.634 -0.4816  0.2074  1.0894
10229TIP3    H230641   6.324   3.771   5.562  0.0751  0.3185  0.1446
10230TIP3   OH230642   5.884   5.981   5.002 -0.4903 -0.5687 -0.4049
10230TIP3    H130643   5.826   6.051   5.032  0.0002 -0.0136 -0.7447
10230TIP3    H230644   5.953   6.026   4.954  1.2412 -1.0460  1.5586
10231TIP3   OH230645   5.869   5.672   4.965  0.1727  0.3339 -0.2871
10231TIP3    H130646   5.944   5.723   4.935 -0.6363  1.1170 -0.9786
10231TIP3    H230647   5.907   5.587   4.990  1.6250  1.5294  1.6531
10232TIP3   OH230648   0.956   4.984   5.698  0.1255  0.3231 -0.3728
10232TIP3    H130649   0.978   4.900   5.737 -0.4370  0.0460 -0.6557
10232TIP3    H230650   0.868   5.004   5.729 -0.5187 -0.1349 -1.8885
10233TIP3   OH230651   0.029   5.624   4.714  0.4727 -0.0163 -0.5196
10233TIP3    H130652  -0.055   5.594   4.678  3.0315 -4.8368 -2.9274
10233TIP3    H230653   0.073   5.665   4.640  1.9641 -1.4340 -0.4384
10234TIP3   OH230654   7.255   5.895   4.423  0.1314 -0.3240 -0.3936
10234TIP3    H130655   7.295   5.826   4.370  0.8727  0.1083 -0.4055
10234TIP3    H230656   7.299   5.975   4.394 -1.8326  0.3723 -1.5096
10235TIP3   OH230657   7.843   5.673   2.914 -0.0343  0.2254 -0.1405
10235TIP3    H130658   7.893   5.628   2.982  0.1467 -0.5303 -0.7716
10235TIP3    H230659   7.873   5.764   2.919  1.9195 -0.3456 -0.9449
10236TIP3   OH230660   7.596   3.396   6.304  0.3267  0.2950 -0.2268
10236TIP3    H130661   7.687   3.402   6.278  0.3962 -1.4417 -0.4392
10236TIP3    H230662   7.567   3.487   6.314  1.5340  0.8878 -2.0040
10237TIP3   OH230663   0.791   6.316   5.468 -0.3688 -0.3237 -0.1371
10237TIP3    H130664   0.783   6.255   5.541 -0.1577 -0.4459 -0.2161
10237TIP3    H230665   0.862   6.376   5.494 -1.2341  0.4922  0.3725
10238TIP3   OH230666   6.657   4.446   5.556  0.3039 -0.0008 -0.4778
10238TIP3    H130667   6.596   4.516   5.579  2.0143  1.0752  0.8836
10238TIP3    H230668   6.707   4.482   5.482  0.9339  0.0697 -0.0161
10239TIP3   OH230669   7.204   6.794   4.541 -0.1132  0.3155  0.0505
10239TIP3    H130670   7.288   6.838   4.534 -0.0227  0.0479 -0.5023
10239TIP3    H230671   7.180   6.772   4.451 -1.4612  1.6885  0.0512
10240TIP3   OH230672   4.243   2.280   0.023 -0.2216 -0.0542  0.2993
10240TIP3    H130673   4.235   2.271   0.118 -0.9029 -2.5899  0.0183
10240TIP3    H230674   4.316   2.224  -0.001  0.6042  1.3536 -0.5880
10241TIP3   OH230675   2.125   6.734   0.149 -0.0019  0.1271 -0.6533
10241TIP3    H130676   2.191   6.794   0.116  1.4912 -2.0801 -1.6955
10241TIP3    H230677   2.077   6.705   0.072 -0.1271 -0.7288 -0.2629
10242TIP3   OH230678   4.309   5.944   5.509  0.0003  0.3176  0.4022
10242TIP3    H130679   4.352   5.946   5.595  2.5378 -1.0676 -0.8039
10242TIP3    H230680   4.266   5.859   5.505 -1.2169  0.9007  0.7943
10243TIP3   OH230681   7.345   6.758   5.271  0.0960  0.1812 -0.0754
10243TIP3    H130682   7.343   6.807   5.353  1.2946 -0.8514  0.5945
10243TIP3    H230683   7.270   6.698   5.276 -0.2190  0.5793 -0.0302
10244TIP3   OH230684   2.100   5.635   5.941 -0.0986  0.6843  0.1497
10244TIP3    H130685   2.112   5.546   5.909  0.7788  1.0223 -0.4810
10244TIP3    H230686   2.082   5.625   6.034 -0.2311 -0.1646  0.0337
10245TIP3   OH230687   6.898   3.264   4.245  0.0226  0.0322  0.2626
10245TIP3    H130688   6.845   3.333   4.284  2.5774  2.1201  0.1790
10245TIP3    H230689   6.886   3.275   4.151 -0.2360 -0.2131  0.2638
10246TIP3   OH230690   0.584   5.636   4.723 -0.4105  0.2839 -0.2358
10246TIP3    H130691   0.612   5.726   4.705  1.4930 -0.3166 -0.4691
10246TIP3    H230692   0.601   5.624   4.817 -1.1530  0.3377 -0.0958
10247TIP3   OH230693   2.288   0.286   0.423  0.2210  0.0956 -0.1135
10247TIP3    H130694   2.272   0.291   0.329 -2.2273  1.9564  0.3318
10247TIP3    H230695   2.286   0.377   0.453 -0.0478 -0.5325  1.8797
10248TIP3   OH230696   5.666   3.679   4.970 -0.0984 -0.4560 -0.4263
10248TIP3    H130697   5.719   3.610   5.008 -0.9515  0.3242  2.2718
10248TIP3    H230698   5.704   3.760   5.006 -1.4439  0.2462 -0.5741
10249TIP3   OH230699   7.373   5.478   5.493 -0.5900  0.0289  0.6635
10249TIP3    H130700   7.440   5.488   5.427 -0.0374 -1.2325  1.0171
10249TIP3    H230701   7.355   5.567   5.524 -0.0110  0.4917 -0.3384
10250TIP3   OH230702   7.554   5.208   3.788  0.1320  0.2643 -0.0915
10250TIP3    H130703   7.646   5.190   3.806  0.4924  2.2845  0.2188
10250TIP3    H230704   7.541   5.176   3.698  1.2608  0.4163 -0.3161
10251TIP3   OH230705   6.312   4.956   3.307  0.0052  0.0012 -0.9729
10251TIP3    H130706   6.285   4.909   3.228 -0.4718  1.3042 -1.5822
10251TIP3    H230707   6.248   4.931   3.373  1.3740 -2.4473 -0.4950
10252TIP3   OH230708   6.657   6.935   5.129 -0.1807 -0.1969 -0.2520
10252TIP3    H130709   6.687   6.963   5.216 -3.2233 -1.6597  1.3789
10252TIP3    H230710   6.705   6.854   5.112  0.7492  0.3246 -0.1408
10253TIP3   OH230711   1.754   4.823   5.901 -0.3548 -0.1556  0.0727
10253TIP3    H130712   1.745   4.780   5.985  2.3820 -0.4355  0.2759
10253TIP3    H230713   1.774   4.752   5.839  2.1510  0.5050  0.0482
10254TIP3   OH230714   3.787   0.983   0.403 -0.1310 -0.2747 -0.2837
10254TIP3    H130715   3.722   1.011   0.468  0.7547 -0.1445  0.5613
10254TIP3    H230716   3.749   0.905   0.363 -0.9813  0.0265 -0.0821
10255TIP3   OH230717   4.038   1.448   0.330  0.2140 -0.3163  0.3508
10255TIP3    H130718   3.976   1.519   0.311  0.1734 -0.3376  0.4025
10255TIP3    H230719   4.122   1.492   0.339  0.0803 -0.1871  1.0506
10256TIP3   OH230720   6.079   0.881   0.525 -0.4237  0.1410 -0.3726
10256TIP3    H130721   5.985   0.887   0.514 -0.7926  0.2268  2.6338
10256TIP3    H230722   6.105   0.963   0.566  0.6268 -0.7670  0.8294
10257TIP3   OH230723   6.123   4.958   6.230 -0.3359  0.1495  0.1355
10257TIP3    H130724   6.103   4.865   6.240 -2.4211  0.3233 -1.8768
10257TIP3    H230725   6.185   4.977   6.300 -1.2713 -2.3310  1.7099
10258TIP3   OH230726   1.642   0.198   3.840 -0.9703 -0.0946 -0.5408
10258TIP3    H130727   1.550   0.173   3.837 -1.5545  1.9921 -0.6956
10258TIP3    H230728   1.666   0.216   3.749  0.0953 -2.3410 -0.7231
10259TIP3   OH230729   5.759   3.870   4.591 -0.2162 -0.4124 -0.2287
10259TIP3    H130730   5.692   3.901   4.653 -1.3557 -0.9721 -1.1536
10259TIP3    H230731   5.824   3.940   4.589 -0.4815 -0.1097  1.1269
10260TIP3   OH230732   5.830   4.458   4.384  0.4585  0.4822 -0.1241
10260TIP3    H130733   5.834   4.449   4.289 -0.8055  0.0791 -0.1428
10260TIP3    H230734   5.781   4.381   4.414  1.4161  0.2573  0.9143
10261TIP3   OH230735   4.193   0.388   0.346  0.5835 -0.0018 -0.0459
10261TIP3    H130736   4.180   0.301   0.310  0.5736  0.0206 -0.0967
10261TIP3    H230737   4.194   0.446   0.270 -1.9137  0.3506  0.1516
10262TIP3   OH230738   5.205   2.499   4.926  0.1611  0.1215 -0.2300
10262TIP3    H130739   5.282   2.452   4.896 -0.6364 -0.6865 -1.0496
10262TIP3    H230740   5.151   2.509   4.847 -0.5627  0.6932  0.3261
10263TIP3   OH230741   6.332   4.355   5.895  0.1280  0.2051  0.3765
10263TIP3    H130742   6.351   4.324   5.983  0.7868  0.6000  0.3780
10263TIP3    H230743   6.336   4.450   5.901 -3.6308  0.4212  0.7630
10264TIP3   OH230744   1.783   4.108   5.517  0.9308  0.5033 -0.2224
10264TIP3    H130745   1.819   4.150   5.439  0.2915 -1.4448 -1.6003
10264TIP3    H230746   1.725   4.174   5.554 -0.8634  0.5395 -2.9401
10265TIP3   OH230747   0.249   1.418   2.020 -0.5859 -0.3109 -0.6177
10265TIP3    H130748   0.268   1.430   2.113 -0.2734  2.0409 -0.9451
10265TIP3    H230749   0.167   1.370   2.017 -0.7522 -0.1237  0.8746
10266TIP3   OH230750   6.974   6.296   5.805  0.1792 -0.2937  0.2158
10266TIP3    H130751   7.021   6.350   5.869  1.3193 -2.6149  1.4270
10266TIP3    H230752   7.035   6.288   5.732  1.2949 -2.3659  1.3116
10267TIP3   OH230753   4.308   5.024   4.515 -0.4337  0.0652  0.6305
10267TIP3    H130754   4.327   4.972   4.593 -1.2188  0.9470  1.4121
10267TIP3    H230755   4.215   5.043   4.520 -0.5255 -0.0171 -0.6172
10268TIP3   OH230756   4.511   2.179   0.730 -0.0562 -0.1724  0.0833
10268TIP3    H130757   4.586   2.237   0.716 -0.2361  0.7422  2.6664
10268TIP3    H230758   4.548   2.103   0.775 -0.6554  0.3105  1.4235
10269TIP3   OH230759   5.989   5.862   2.113  0.5278  0.3225 -0.2193
10269TIP3    H130760   5.952   5.859   2.201  2.3378 -0.8674  0.5090
10269TIP3    H230761   5.980   5.954   2.087 -0.5191  0.5755  0.9643
10270TIP3   OH230762   6.772   2.716   5.214 -0.0552  0.0096 -0.0815
10270TIP3    H130763   6.685   2.754   5.221 -0.6016 -1.4151  1.0755
10270TIP3    H230764   6.807   2.719   5.303  0.2129 -1.4132 -0.1228
10271TIP3   OH230765   6.589   3.930   5.178  0.0625 -0.1593 -0.3717
10271TIP3    H130766   6.659   3.868   5.156  0.4423  0.6499 -1.4935
10271TIP3    H230767   6.520   3.912   5.114 -0.4258 -0.4115  0.2233
10272TIP3   OH230768   5.060   4.006   4.261  0.6807  0.5820  0.7846
10272TIP3    H130769   5.118   4.073   4.224 -1.0079  0.6693 -1.8296
10272TIP3    H230770   5.059   3.936   4.196 -0.3587 -0.4239  1.8633
10273TIP3   OH230771   2.664   4.678   3.737  0.2688  0.3383  0.0745
10273TIP3    H130772   2.646   4.587   3.715  0.7392  0.0779  0.7290
10273TIP3    H230773   2.621   4.729   3.669 -1.6171 -0.3094  0.7732
10274TIP3   OH230774   6.478   6.029   6.379  0.2155 -0.8521  0.3060
10274TIP3    H130775   6.472   6.037   6.474  1.5423 -1.7105  0.4845
10274TIP3    H230776   6.390   6.008   6.350 -0.3324  0.0584  1.2762
10275TIP3   OH230777   7.237   4.707   5.355 -0.8402  0.0834 -0.7376
10275TIP3    H130778   7.287   4.644   5.304  0.9102  1.0893 -0.2946
10275TIP3    H230779   7.172   4.654   5.402  0.0624 -1.2796 -1.0103
10276TIP3   OH230780   0.046   3.929   4.851 -0.0239 -0.0552  0.4452
10276TIP3    H130781   0.008   4.014   4.875  1.1546  0.3389  0.9799
10276TIP3    H230782   0.068   3.938   4.758  1.4145  0.7617  0.8383
10277TIP3   OH230783   3.860   0.140   0.618  0.0506 -0.0774 -0.3650
10277TIP3    H130784   3.781   0.087   0.628  0.0369 -0.0521 -0.3364
10277TIP3    H230785   3.864   0.192   0.699  0.8598 -1.1037  0.2641
10278TIP3   OH230786   5.392   3.449   3.591  0.4391 -0.3717  0.8286
10278TIP3    H130787   5.303   3.423   3.567  1.6121 -0.8094 -3.4466
10278TIP3    H230788   5.383   3.538   3.625 -1.8782 -1.2770  2.7057
10279TIP3   OH230789   7.792   6.587   5.970  0.4661 -0.1523 -0.0596
10279TIP3    H130790   7.834   6.512   5.929 -0.0398 -1.1306  1.1762
10279TIP3    H230791   7.710   6.598   5.923  0.5391 -0.3793 -0.2356
10280TIP3   OH230792   5.621   3.751   4.386  0.0799  0.0982 -0.3288
10280TIP3    H130793   5.558   3.819   4.362  1.6436  1.6086 -0.2621
10280TIP3    H230794   5.677   3.793   4.452 -0.3187 -1.9870  1.3591
10281TIP3   OH230795   2.082   7.090   0.493 -0.3699 -0.9375  0.0845
10281TIP3    H130796   2.055   7.114   0.581  0.0760  0.2753 -0.1026
10281TIP3    H230797   2.176   7.073   0.500 -0.0968  0.3558 -0.4009
10282TIP3   OH230798   7.066   6.010   5.871 -0.5917 -0.5627 -0.3831
10282TIP3    H130799   7.017   6.053   5.941 -0.5757 -1.1794  0.0119
10282TIP3    H230800   7.009   5.939   5.841 -0.9248  0.1715 -1.5223
10283TIP3   OH230801   6.481   6.900   4.342  0.4755 -0.0758  0.1190
10283TIP3    H130802   6.488   6.995   4.330 -1.0576  0.0439  0.0836
10283TIP3    H230803   6.489   6.887   4.436  1.4496 -0.0005  0.0620
10284TIP3   OH230804   1.783   1.612   0.191  0.3585 -0.4636  0.8908
10284TIP3    H130805   1.859   1.586   0.138 -0.2932 -0.5346 -0.0163
10284TIP3    H230806   1.818   1.678   0.251  0.8515  0.5079 -0.4346
10285TIP3   OH230807   6.229   3.587   5.515  0.0924  0.1999 -0.3417
10285TIP3    H130808   6.231   3.494   5.538  1.6515  0.7453  1.8644
10285TIP3    H230809   6.138   3.613   5.528 -0.2408 -0.8892 -0.4431
10286TIP3   OH230810   4.876   1.017   0.196  0.4884  0.3009 -0.2097
10286TIP3    H130811   4.952   0.961   0.216  0.0741 -0.3667 -0.4953
10286TIP3    H230812   4.812   0.958   0.157 -0.4915  0.7052  0.7581
10287TIP3   OH230813   5.607   5.860   5.046  0.0058 -0.7921 -0.0430
10287TIP3    H130814   5.590   5.899   4.960  1.5455  1.8255  0.7790
10287TIP3    H230815   5.528   5.876   5.096 -0.4792 -1.3370 -0.6330
10288TIP3   OH230816   6.254   3.301   5.786 -0.0189 -0.6252 -0.6889
10288TIP3    H130817   6.287   3.225   5.834 -3.2635 -1.5197  0.3134
10288TIP3    H230818   6.269   3.375   5.844  0.9991 -0.8785 -0.6294
10289TIP3   OH230819   5.858   3.761   6.478 -0.0544 -0.2279  0.0774
10289TIP3    H130820   5.944   3.745   6.439 -0.5685  2.2740 -2.2784
10289TIP3    H230821   5.796   3.717   6.420 -0.4983 -0.3101  0.6095
10290TIP3   OH230822   1.494   1.138   0.072 -0.2369  0.5348  0.3452
10290TIP3    H130823   1.571   1.096   0.110  0.3387  1.6192  0.4056
10290TIP3    H230824   1.430   1.067   0.062 -0.3327  0.1627  3.1166
10291TIP3   OH230825   4.776   2.291   0.601  0.5083 -0.1826  0.5826
10291TIP3    H130826   4.829   2.347   0.545 -1.3355  2.7350  1.6371
10291TIP3    H230827   4.797   2.319   0.690  1.4357 -2.9559  1.2926
10292TIP3   OH230828   4.586   3.030  -0.005 -0.3172  0.2567 -0.3682
10292TIP3    H130829   4.588   2.986   0.080  0.0397 -0.6251 -0.8171
10292TIP3    H230830   4.495   3.055  -0.018 -0.5748 -0.5899 -0.2124
10293TIP3   OH230831   7.273   4.840   4.996  0.2478 -0.4044  0.4404
10293TIP3    H130832   7.267   4.765   4.937  0.2011 -0.7898  0.9371
10293TIP3    H230833   7.315   4.908   4.943 -0.4066 -0.5318 -0.2524
10294TIP3   OH230834   0.763   1.860   5.914 -0.2706  0.0331  0.4586
10294TIP3    H130835   0.856   1.838   5.911  0.0342  1.4359 -1.2524
10294TIP3    H230836   0.761   1.954   5.933 -1.3155  0.0918  0.1047
10295TIP3   OH230837   1.840   1.530   1.212  0.3782  0.2807 -0.0435
10295TIP3    H130838   1.745   1.539   1.208  0.2677 -0.7274  0.1506
10295TIP3    H230839   1.861   1.465   1.144  0.8536  0.0016  0.3610
10296TIP3   OH230840   0.412   0.171   6.133 -0.0427 -0.0547 -0.2080
10296TIP3    H130841   0.440   0.109   6.065  1.7418  0.1835  0.2954
10296TIP3    H230842   0.458   0.252   6.112 -0.1760  0.2814  0.7748
10297TIP3   OH230843   6.564   5.014   6.401 -0.1720  0.2973 -0.5610
10297TIP3    H130844   6.543   4.968   6.482  0.3923 -0.2542 -0.7189
10297TIP3    H230845   6.591   4.945   6.341  0.7255  0.8332 -0.7899
10298TIP3   OH230846   6.948   5.763   6.216 -0.1153 -0.4374  0.7520
10298TIP3    H130847   6.859   5.755   6.251  0.3007 -1.1935  1.6485
10298TIP3    H230848   6.991   5.827   6.272 -0.4744  0.8999 -0.4724
10299TIP3   OH230849   4.048   1.755   1.153 -0.3746 -0.0815 -0.2023
10299TIP3    H130850   4.058   1.731   1.245  0.3707  0.3808 -0.1565
10299TIP3    H230851   4.002   1.681   1.113 -0.0421 -0.6028  0.3800
10300TIP3   OH230852   0.889   7.322   0.138 -0.0119 -0.2644 -0.1857
10300TIP3    H130853   0.837   7.242   0.127 -1.8059  0.7378  0.8260
10300TIP3    H230854   0.922   7.342   0.051 -2.8885  0.1275 -1.2370
10301TIP3   OH230855   6.318   5.715   3.970  0.0108 -0.0256 -0.3344
10301TIP3    H130856   6.377   5.691   3.898  2.7731  2.1370  1.1141
10301TIP3    H230857   6.312   5.811   3.964 -0.2447  0.1104  1.9181
10302TIP3   OH230858   3.094   6.564   4.061  0.2019 -0.1547  0.5929
10302TIP3    H130859   3.047   6.639   4.098 -1.0426  0.0097 -1.2447
10302TIP3    H230860   3.112   6.507   4.137 -2.0877  0.2623  1.4915
10303TIP3   OH230861   7.561   5.633   6.262 -0.0037 -0.4400  0.1002
10303TIP3    H130862   7.610   5.560   6.224 -0.1715 -0.6296  0.2481
10303TIP3    H230863   7.606   5.711   6.230  2.7020 -0.6373  3.2327
10304TIP3   OH230864   0.109   5.406   3.587 -0.0213  0.1466 -0.2683
10304TIP3    H130865   0.097   5.349   3.511  2.1273  0.3293 -0.7801
10304TIP3    H230866   0.146   5.487   3.551 -3.1125  1.9605  0.4378
10305TIP3   OH230867   5.630   4.798   4.866 -0.3536 -0.3263 -0.1858
10305TIP3    H130868   5.684   4.865   4.825 -0.1658 -0.0984  0.4256
10305TIP3    H230869   5.574   4.765   4.796  0.7491 -0.7452 -0.8770
10306TIP3   OH230870   5.189   1.398   0.530  0.3376  0.0202 -0.2736
10306TIP3    H130871   5.232   1.458   0.469  1.4976  0.1350  0.6379
10306TIP3    H230872   5.191   1.313   0.484 -0.5041  0.4780 -1.1806
10307TIP3   OH230873   6.012   4.309   3.877 -0.7201  1.0108 -0.4821
10307TIP3    H130874   6.082   4.374   3.883 -0.4160  0.7191 -0.8291
10307TIP3    H230875   6.047   4.231   3.920 -0.8128  0.8530 -0.6898
10308TIP3   OH230876   7.802   4.003   3.239 -0.6895 -0.3916  0.4166
10308TIP3    H130877   7.712   4.034   3.247 -0.6076  0.1890 -0.8097
10308TIP3    H230878   7.818   3.998   3.145  1.0331  0.9464  0.5915
10309TIP3   OH230879   4.285   6.403   4.777 -0.0260  0.0170 -0.1949
10309TIP3    H130880   4.303   6.388   4.870  1.7851 -0.3556 -0.5814
10309TIP3    H230881   4.260   6.318   4.743  0.3295 -0.0654 -0.2566
10310TIP3   OH230882   6.738   5.626   4.803  0.2766  0.3135  0.0334
10310TIP3    H130883   6.700   5.654   4.887  0.8968 -1.2554  0.8584
10310TIP3    H230884   6.793   5.699   4.776  1.4599  0.1428  1.8785
10311TIP3   OH230885   5.378   0.776   0.333  0.1439 -0.4265  0.3778
10311TIP3    H130886   5.394   0.857   0.284  0.7625 -1.2509 -0.7821
10311TIP3    H230887   5.432   0.711   0.291  2.2889 -0.7200  3.4308
10312TIP3   OH230888   5.940   4.792   2.283 -0.2104  0.1203 -0.1605
10312TIP3    H130889   5.856   4.749   2.302  0.6959 -1.3549  0.5878
10312TIP3    H230890   6.002   4.750   2.342  1.3421  0.2258 -1.7004
10313TIP3   OH230891   6.606   5.395   3.714  0.2135 -0.0509 -0.3821
10313TIP3    H130892   6.681   5.381   3.772 -0.6796  1.4804  1.1757
10313TIP3    H230893   6.645   5.405   3.627  1.8443  0.7883  0.4156
10314TIP3   OH230894   6.960   6.038   5.056 -0.5131  0.3475 -0.2310
10314TIP3    H130895   7.049   6.017   5.028 -0.6897 -1.9234  0.8131
10314TIP3    H230896   6.972   6.099   5.128  0.1379  1.2127 -1.0551
10315TIP3   OH230897   1.423   3.867   3.262 -0.0730 -0.8721 -0.1033
10315TIP3    H130898   1.406   3.807   3.335  0.0530  1.0630  1.5526
10315TIP3    H230899   1.516   3.885   3.267 -0.4555  0.9800  0.6289
10316TIP3   OH230900   7.191   5.814   4.737 -0.0360 -0.1382 -0.1887
10316TIP3    H130901   7.149   5.892   4.774 -1.8262  0.0177 -2.4271
10316TIP3    H230902   7.226   5.843   4.653 -0.1447 -1.5708 -0.7384
10317TIP3   OH230903   4.857   1.461   2.335  0.6245 -0.0064 -0.1235
10317TIP3    H130904   4.846   1.390   2.271 -0.5618  0.1098 -0.0523
10317TIP3    H230905   4.862   1.416   2.419  0.3545 -0.0396 -0.1245
10318TIP3   OH230906   4.291   0.941   0.141 -0.1805  0.2251  0.3538
10318TIP3    H130907   4.340   0.937   0.059 -1.0366 -0.4954 -0.1358
10318TIP3    H230908   4.255   0.853   0.151 -0.7609  0.5437  1.0814
10319TIP3   OH230909   4.336   4.764   3.827 -0.1419 -0.4524 -0.1175
10319TIP3    H130910   4.290   4.705   3.887 -1.5443 -1.4909 -2.1355
10319TIP3    H230911   4.421   4.723   3.811  0.5909  0.2793  1.8116
10320TIP3   OH230912   0.461   0.076   5.380 -0.2017  0.0381 -0.3462
10320TIP3    H130913   0.554   0.060   5.397 -1.0333 -2.9248  1.8837
10320TIP3    H230914   0.436   0.009   5.317 -0.6452  1.3669 -1.5950
10321TIP3   OH230915   5.255   6.736   4.806  0.4309 -1.2624  0.1323
10321TIP3    H130916   5.346   6.723   4.832  0.9060  2.3203  0.5395
10321TIP3    H230917   5.216   6.786   4.879 -1.3913 -1.2631 -0.8010
10322TIP3   OH230918   3.614   5.795   6.414  0.5179 -0.6318 -0.3584
10322TIP3    H130919   3.567   5.739   6.353  2.0671  0.5373 -2.7301
10322TIP3    H230920   3.634   5.874   6.364  1.0882  0.7538  1.9425
10323TIP3   OH230921   6.736   4.613   4.761 -0.3168  0.9311  0.2844
10323TIP3    H130922   6.744   4.564   4.679 -0.9645  2.1051 -0.5072
10323TIP3    H230923   6.641   4.624   4.771 -0.2594  0.3754  1.4532
10324TIP3   OH230924   7.099   4.694   6.366  0.1868 -0.0930 -0.0659
10324TIP3    H130925   7.105   4.608   6.325  2.4662  0.2590 -0.5218
10324TIP3    H230926   7.171   4.744   6.328 -0.4834  1.7043  0.9581
10325TIP3   OH230927   3.460   4.644   6.107 -0.6897  0.2966 -0.0947
10325TIP3    H130928   3.420   4.557   6.103  1.7397 -0.9654  1.1853
10325TIP3    H230929   3.438   4.677   6.194  2.9495 -1.4844  1.6318
10326TIP3   OH230930   6.945   5.194   3.235 -0.1501 -0.2654 -0.8929
10326TIP3    H130931   6.897   5.273   3.210 -0.1052  1.0638  2.8477
10326TIP3    H230932   6.892   5.155   3.305  1.9689 -1.1979  0.2512
10327TIP3   OH230933   1.564   1.906   0.748 -0.4729  0.2515  0.3313
10327TIP3    H130934   1.538   1.988   0.790 -1.5428  0.0650  0.0516
10327TIP3    H230935   1.481   1.862   0.727  0.0637 -0.2520 -0.7833
10328TIP3   OH230936   6.895   4.949   5.005  0.3639 -0.0766  0.2031
10328TIP3    H130937   6.809   4.936   4.966  0.6438 -1.3462 -0.0322
10328TIP3    H230938   6.925   5.032   4.970 -0.7893  0.4069  0.3339
10329TIP3   OH230939   6.654   4.855   6.171 -0.7511 -0.0750 -0.2457
10329TIP3    H130940   6.655   4.866   6.076 -0.9141  0.8695 -0.1371
10329TIP3    H230941   6.676   4.763   6.184 -1.6583 -0.4402 -1.2390
10330TIP3   OH230942   5.717   4.829   0.750  0.5398 -0.2991 -0.1146
10330TIP3    H130943   5.767   4.855   0.827  2.7967  0.8304 -1.9092
10330TIP3    H230944   5.646   4.892   0.744  0.8928  0.1575  0.5049
10331TIP3   OH230945   5.794   6.887   6.276  0.2520 -0.3588 -0.5051
10331TIP3    H130946   5.847   6.967   6.270 -1.1613  0.5890 -0.8292
10331TIP3    H230947   5.840   6.823   6.222  1.2938  0.3036 -0.4142
10332TIP3   OH230948   5.376   4.846   5.668 -0.0517  0.3151 -0.1975
10332TIP3    H130949   5.460   4.838   5.621 -0.1784  0.2113 -0.4091
10332TIP3    H230950   5.370   4.939   5.691 -0.1338  0.4259 -0.6630
10333TIP3   OH230951   0.101   4.341   6.441 -0.5303  0.0156  0.0150
10333TIP3    H130952   0.015   4.324   6.479 -0.3122 -2.1098 -0.4213
10333TIP3    H230953   0.127   4.258   6.401  0.0966  1.6198 -3.0526
10334TIP3   OH230954   5.438   1.370   1.720  0.0239  0.4988  0.3104
10334TIP3    H130955   5.519   1.324   1.696 -0.0230  0.1457  0.8244
10334TIP3    H230956   5.369   1.306   1.705 -0.2889  1.1631 -1.2141
10335TIP3   OH230957   4.274   2.977   0.755  0.5724  0.1091  0.1049
10335TIP3    H130958   4.297   2.938   0.840  1.1849 -1.8041 -0.8987
10335TIP3    H230959   4.187   2.940   0.736  1.0360 -0.5617 -0.7299
10336TIP3   OH230960   7.272   4.416   6.295  0.3797  0.4877 -0.4585
10336TIP3    H130961   7.311   4.398   6.209  0.0668  2.7796 -1.1150
10336TIP3    H230962   7.346   4.445   6.349  0.5327 -0.7096 -0.0057
10337TIP3   OH230963   5.267   3.211   6.360 -0.0421 -0.0391 -0.5043
10337TIP3    H130964   5.192   3.270   6.359 -0.1670 -0.1674  0.7295
10337TIP3    H230965   5.230   3.126   6.336 -0.2059 -0.0144 -0.3380
10338TIP3   OH230966   6.987   4.224   4.720 -0.5698  0.1018  0.6962
10338TIP3    H130967   6.976   4.141   4.765 -1.3731 -0.2261 -0.0965
10338TIP3    H230968   7.041   4.203   4.643 -0.2185  0.4313  0.8511
10339TIP3   OH230969   6.650   3.009   2.062  0.1075  0.8074 -0.0691
10339TIP3    H130970   6.641   2.928   2.111 -1.6154  0.6707 -0.5901
10339TIP3    H230971   6.729   2.996   2.009 -0.5336 -0.7943 -0.6465
10340TIP3   OH230972   1.554   6.900   0.514  0.2813 -0.1092  0.4644
10340TIP3    H130973   1.501   6.853   0.450  0.4929 -0.0977  0.2787
10340TIP3    H230974   1.491   6.946   0.569  0.0773 -0.5351  0.5878
10341TIP3   OH230975   1.258   2.619   3.885  0.3051  0.2083 -0.6509
10341TIP3    H130976   1.350   2.598   3.875  0.5504 -0.2578  2.1891
10341TIP3    H230977   1.249   2.708   3.851  1.4080 -0.4346 -2.6734
10342TIP3   OH230978   3.672   0.479   0.260 -0.1163 -0.4044  0.5211
10342TIP3    H130979   3.699   0.494   0.170  1.6399 -0.7735  0.9654
10342TIP3    H230980   3.735   0.417   0.294  0.5182  1.3238  2.6396
10343TIP3   OH230981   5.490   1.998   0.503  0.0297  0.2081 -0.0467
10343TIP3    H130982   5.398   2.014   0.524  0.2299  0.7201  0.4559
10343TIP3    H230983   5.489   1.971   0.411 -0.5481  0.9075 -0.2493
10344TIP3   OH230984   7.013   7.375   5.461  0.0631 -0.0004  0.1694
10344TIP3    H130985   6.953   7.449   5.459 -0.7690 -0.6946 -1.3346
10344TIP3    H230986   7.100   7.414   5.458 -0.3874  0.8829 -3.2371
10345TIP3   OH230987   0.493   0.156   4.607  0.6812 -0.0110  0.0877
10345TIP3    H130988   0.408   0.122   4.637 -0.6771  2.7787 -0.4730
10345TIP3    H230989   0.496   0.133   4.514  0.5506 -0.1147  0.1080
10346TIP3   OH230990   6.954   6.783   6.400 -0.3465 -0.4881 -0.1203
10346TIP3    H130991   6.895   6.784   6.325  0.7556 -1.9046 -1.0379
10346TIP3    H230992   6.898   6.799   6.476 -1.2752  2.3638 -1.3616
10347TIP3   OH230993   5.518   2.826   0.118 -0.2257  0.3206  0.0630
10347TIP3    H130994   5.546   2.744   0.159 -1.5116  1.1295  2.7204
10347TIP3    H230995   5.486   2.801   0.032 -1.2218 -2.0948  1.0947
10348TIP3   OH230996   6.853   3.687   5.550 -0.4412 -0.3354 -0.4964
10348TIP3    H130997   6.931   3.646   5.512 -0.2912  1.4586 -2.2139
10348TIP3    H230998   6.886   3.738   5.623 -0.3344 -1.4131  0.2278
10349TIP3   OH230999   6.954   3.533   4.126 -0.1426  0.6006 -0.0397
10349TIP3    H131000   6.990   3.451   4.160 -1.1241  0.0491 -0.3063
10349TIP3    H231001   6.975   3.598   4.193  0.9208  0.2070  0.0287
10350TIP3   OH231002   7.433   4.463   5.805  0.2038 -0.2738  0.4750
10350TIP3    H131003   7.361   4.431   5.859  1.4900 -0.6902  1.9862
10350TIP3    H231004   7.473   4.383   5.769  1.2117 -0.1624  1.3503
10351TIP3   OH231005   6.438   5.179   5.149  0.0678 -0.2591  0.1047
10351TIP3    H131006   6.435   5.087   5.176 -1.9225 -0.3766 -0.4234
10351TIP3    H231007   6.402   5.227   5.223  0.8440  0.0646  0.2688
10352TIP3   OH231008   6.895   3.554   6.140  0.3482  0.2024  0.2453
10352TIP3    H131009   6.927   3.552   6.050 -1.8119 -1.4281 -0.5288
10352TIP3    H231010   6.951   3.492   6.188 -0.5337 -1.3285 -0.6964
10353TIP3   OH231011   7.295   4.730   4.314  0.3488  0.2498 -0.6279
10353TIP3    H131012   7.259   4.772   4.236 -2.5906  0.1848  0.6366
10353TIP3    H231013   7.330   4.803   4.366  3.1125  0.2169 -2.3158
10354TIP3   OH231014   6.266   4.605   4.216  0.2852 -0.1199  0.1064
10354TIP3    H131015   6.195   4.661   4.184 -0.7164 -0.2143  2.0830
10354TIP3    H231016   6.237   4.516   4.198 -0.2223 -0.1681  1.1280
10355TIP3   OH231017   5.580   3.790   3.959  0.2987 -0.7244 -0.1943
10355TIP3    H131018   5.494   3.819   3.990  0.5139  0.6876 -0.8844
10355TIP3    H231019   5.608   3.725   4.024 -0.2319  0.5567  1.3465
10356TIP3   OH231020   7.198   4.900   4.108  0.2084 -0.4121  0.0313
10356TIP3    H131021   7.196   4.982   4.059  1.0701  0.5446  1.5480
10356TIP3    H231022   7.119   4.853   4.081 -0.4811  1.0799 -0.5788
10357TIP3   OH231023   0.712   4.255   4.846  0.0731 -0.3163 -0.2635
10357TIP3    H131024   0.763   4.176   4.830 -0.8433 -1.4837  2.2433
10357TIP3    H231025   0.762   4.325   4.805  1.9207 -1.9225 -0.8145
10358TIP3   OH231026   5.327   1.272   1.439 -0.1889 -0.2033  0.0422
10358TIP3    H131027   5.403   1.270   1.381 -0.0879  0.3664  0.1526
10358TIP3    H231028   5.317   1.364   1.463 -0.8582 -0.2889  0.1043
10359TIP3   OH231029   6.765   4.173   5.275 -0.2693  0.1050 -0.1833
10359TIP3    H131030   6.786   4.134   5.190 -2.6847  0.8351 -1.1269
10359TIP3    H231031   6.677   4.141   5.295 -0.5671  1.6610  1.0492
10360TIP3   OH231032   5.204   1.555   2.298  0.0171  0.3365  0.2874
10360TIP3    H131033   5.108   1.552   2.296  0.0892 -1.3206 -1.8582
10360TIP3    H231034   5.229   1.585   2.211  1.4770 -0.2235  0.4970
10361TIP3   OH231035   6.558   3.155   6.392 -0.1384 -0.5879 -0.3161
10361TIP3    H131036   6.552   3.123   6.302  0.6451 -2.3375  0.2295
10361TIP3    H231037   6.480   3.209   6.404 -0.8395 -1.2833 -1.6787
10362TIP3   OH231038   5.698   1.490   0.859  0.4164  0.5372  0.5411
10362TIP3    H131039   5.650   1.552   0.914  0.9541  1.4722 -0.0270
10362TIP3    H231040   5.634   1.422   0.838 -0.6851  1.7716 -0.2291
10363TIP3   OH231041   5.562   3.274   6.359 -0.3553  0.2528 -0.0062
10363TIP3    H131042   5.562   3.321   6.275 -0.8972  1.7257  0.7889
10363TIP3    H231043   5.469   3.264   6.380 -0.2144  1.0408  1.0226
10364TIP3   OH231044   4.190   7.322   4.875 -0.1654 -0.2573 -0.1134
10364TIP3    H131045   4.230   7.392   4.926  0.6732 -0.4991 -0.4129
10364TIP3    H231046   4.256   7.301   4.808 -0.9375 -0.4487 -0.8230
10365TIP3   OH231047   6.424   3.440   1.556 -0.0876 -0.7698  0.0331
10365TIP3    H131048   6.516   3.437   1.581  0.3942 -0.9663 -1.7079
10365TIP3    H231049   6.415   3.522   1.508 -0.9292 -0.5339  0.5871
10366TIP3   OH231050   6.677   5.506   5.330  0.6201 -0.4623 -0.3054
10366TIP3    H131051   6.739   5.548   5.389 -1.1253  0.5670  0.8544
10366TIP3    H231052   6.600   5.563   5.332 -0.1665 -1.4168 -2.1227
10367TIP3   OH231053   4.727   5.773   5.930  0.1422  0.2244 -0.3629
10367TIP3    H131054   4.800   5.740   5.981 -1.6035  0.0777  2.1423
10367TIP3    H231055   4.767   5.822   5.859  2.6606 -0.5324  0.4898
10368TIP3   OH231056   6.039   3.393   6.351  0.4083  0.3022 -0.1687
10368TIP3    H131057   6.012   3.472   6.305 -0.9841  0.5141  0.9797
10368TIP3    H231058   6.066   3.333   6.281  1.5811  1.8070 -1.0399
10369TIP3   OH231059   7.447   5.130   5.294 -0.4489  0.2826  0.4171
10369TIP3    H131060   7.438   5.220   5.262 -0.0718  0.1727  0.0060
10369TIP3    H231061   7.357   5.099   5.303 -0.5733  0.5755  0.2090
10370TIP3   OH231062   0.372   6.423   5.295 -0.0413  0.1565  0.0732
10370TIP3    H131063   0.440   6.483   5.327  0.6464 -0.7269  0.2884
10370TIP3    H231064   0.301   6.481   5.266  0.7642  1.0945 -0.0726
10371TIP3   OH231065   4.582   6.056   6.074  0.5067 -0.2848 -0.0749
10371TIP3    H131066   4.520   6.002   6.123  0.7383 -1.1026 -0.6739
10371TIP3    H231067   4.568   6.032   5.983  1.1246  0.1300 -0.2809
10372TIP3   OH231068   4.084   3.094   0.991  0.0433  0.0518  0.9004
10372TIP3    H131069   4.039   3.019   0.952  2.0281 -0.3074 -0.7896
10372TIP3    H231070   4.035   3.171   0.960  2.2447 -0.1313 -3.4652
10373TIP3   OH231071   3.598   1.372   0.302 -0.4606  0.1731 -0.2658
10373TIP3    H131072   3.617   1.295   0.355 -0.8586 -0.3600 -0.8773
10373TIP3    H231073   3.505   1.388   0.316 -0.1480  1.1828  0.6772
10374TIP3   OH231074   1.565   2.071   0.092 -0.1010 -0.2165  0.0585
10374TIP3    H131075   1.474   2.069   0.063 -0.3049  1.3593  0.5348
10374TIP3    H231076   1.573   1.995   0.150 -0.6681 -1.2827 -1.2517
10375TIP3   OH231077   7.026   6.977   5.543 -0.0089  0.1624 -0.3756
10375TIP3    H131078   6.937   7.004   5.567  0.9519 -1.0942  5.4800
10375TIP3    H231079   7.013   6.899   5.488 -2.5491 -0.6278  1.2423
10376TIP3   OH231080   6.738   6.717   6.249 -0.3377 -0.1928  0.2693
10376TIP3    H131081   6.693   6.782   6.194  0.2058  0.8641  1.0569
10376TIP3    H231082   6.667   6.669   6.291 -0.7930  1.7357  1.8159
10377TIP3   OH231083   3.141   0.110   0.549 -0.4248  0.4899  0.1258
10377TIP3    H131084   3.157   0.089   0.457 -0.6991  1.5841 -0.1874
10377TIP3    H231085   3.049   0.086   0.563 -1.1879  2.8180 -0.6496
10378TIP3   OH231086   2.513   0.207   6.336  0.0545  0.5298  0.1147
10378TIP3    H131087   2.486   0.297   6.355  1.0663  0.7769  0.4218
10378TIP3    H231088   2.550   0.211   6.248  0.0184  0.3946  0.0930
10379TIP3   OH231089   6.055   4.703   6.312 -0.2763 -0.4174  0.4511
10379TIP3    H131090   5.960   4.710   6.321 -0.3041  0.0743 -0.1843
10379TIP3    H231091   6.069   4.618   6.271 -0.4191 -0.6196  0.8154
10380TIP3   OH231092   6.463   2.367   5.269  0.0219  0.1345 -0.0537
10380TIP3    H131093   6.521   2.382   5.344  0.0586  0.5809 -0.1656
10380TIP3    H231094   6.454   2.272   5.264  0.7204  0.0653 -0.0199
10381TIP3   OH231095   4.838   1.660   0.853 -0.5667 -0.2187  0.0483
10381TIP3    H131096   4.902   1.620   0.795 -1.0077 -0.6574 -0.1390
10381TIP3    H231097   4.866   1.751   0.861 -0.6717 -0.0848 -1.0877
10382TIP3   OH231098   7.713   4.544   5.572 -0.0040 -0.3095 -0.4604
10382TIP3    H131099   7.737   4.451   5.566 -1.2174 -0.5091 -2.8032
10382TIP3    H231100   7.769   4.587   5.508 -0.1945  0.4306 -0.1300
10383TIP3   OH231101   5.246   5.221   3.764  0.2126 -0.1250 -0.0730
10383TIP3    H131102   5.237   5.312   3.738  0.5299 -0.4346 -1.2786
10383TIP3    H231103   5.281   5.225   3.853 -0.7954  0.9334  0.2849
10384TIP3   OH231104   5.783   5.123   5.350  0.4632  0.2576  0.1470
10384TIP3    H131105   5.779   5.185   5.278 -4.9931  0.5202  0.4565
10384TIP3    H231106   5.787   5.037   5.308 -0.9994  0.4845 -0.4964
10385TIP3   OH231107   6.106   7.316   5.475 -0.4106 -0.3355  0.1642
10385TIP3    H131108   6.012   7.333   5.481 -0.2324  0.7558  0.1039
10385TIP3    H231109   6.137   7.376   5.407  0.3757 -0.4365  0.4247
10386TIP3   OH231110   5.383   5.124   5.714 -0.4601  0.4016  0.1987
10386TIP3    H131111   5.448   5.194   5.712  1.4111 -1.2861 -1.2303
10386TIP3    H231112   5.317   5.153   5.776  1.1040  2.6833  0.8371
10387TIP3   OH231113   0.131   4.408   4.312  1.0596 -0.6979  0.1148
10387TIP3    H131114   0.208   4.385   4.260  1.8233  0.9946  0.4578
10387TIP3    H231115   0.077   4.460   4.253  0.7893 -0.7800  0.2896
10388TIP3   OH231116   6.973   2.386   3.507 -0.0512  0.0583  0.2342
10388TIP3    H131117   6.916   2.310   3.513 -0.4270  0.3965  1.0585
10388TIP3    H231118   6.994   2.408   3.598  1.7327 -0.3128 -0.0699
10389TIP3   OH231119   7.127   5.190   3.969 -0.7619  0.2460  0.2137
10389TIP3    H131120   7.033   5.173   3.962 -0.5970 -0.8206  0.4309
10389TIP3    H231121   7.143   5.263   3.910 -1.6649  0.1834 -0.1152
10390TIP3   OH231122   6.084   5.640   5.743  0.1794  0.0359 -0.2256
10390TIP3    H131123   6.115   5.713   5.796  1.3063 -0.2954 -0.4040
10390TIP3    H231124   6.140   5.567   5.769 -1.6114 -1.0270  0.6945
10391TIP3   OH231125   6.062   4.992   3.879  0.6057  0.0925 -0.4553
10391TIP3    H131126   6.130   5.023   3.820  2.4336 -0.3047  1.3611
10391TIP3    H231127   6.057   4.898   3.862  0.1010  0.2148 -0.9895
10392TIP3   OH231128   6.323   6.010   3.966  0.2209 -0.0711 -0.1734
10392TIP3    H131129   6.286   5.980   3.883 -0.3132  0.1586 -0.0235
10392TIP3    H231130   6.403   6.057   3.941  0.8694 -1.2995 -0.4330
10393TIP3   OH231131   4.073   0.641   1.729 -0.1153 -0.4517  0.0349
10393TIP3    H131132   4.075   0.727   1.685  1.3292 -0.5178 -0.0403
10393TIP3    H231133   4.018   0.587   1.672  0.2514 -0.0156 -0.7484
10394TIP3   OH231134   4.150   1.104   0.794  0.4461 -0.0214  0.2801
10394TIP3    H131135   4.079   1.101   0.731  1.0768 -2.0121 -0.3656
10394TIP3    H231136   4.229   1.087   0.742  1.1428 -0.0867  1.3388
10395TIP3   OH231137   4.535   5.498   4.981  1.0486  0.1474 -0.2683
10395TIP3    H131138   4.552   5.592   4.989  0.7761  0.0565  1.4367
10395TIP3    H231139   4.618   5.456   5.001  1.3117  0.0186 -1.5516
10396TIP3   OH231140   6.624   5.226   6.200  0.1594 -0.2036 -0.3933
10396TIP3    H131141   6.602   5.156   6.261  0.1281 -1.1549 -1.4717
10396TIP3    H231142   6.709   5.201   6.164  0.2038  0.3730 -0.6967
10397TIP3   OH231143   7.236   5.544   3.880 -0.4085  0.2232 -0.5606
10397TIP3    H131144   7.140   5.536   3.885 -0.3626 -0.4556 -0.7712
10397TIP3    H231145   7.253   5.634   3.908 -0.9922 -0.1225  0.9930
10398TIP3   OH231146   7.408   5.402   4.378  0.0862 -0.6221  0.3944
10398TIP3    H131147   7.330   5.423   4.327  0.7301  0.0992 -0.3006
10398TIP3    H231148   7.375   5.388   4.467 -0.5082  2.4722  0.7231
10399TIP3   OH231149   0.558   4.563   2.860  0.1657  0.3528 -0.0831
10399TIP3    H131150   0.544   4.651   2.824  2.0190  1.3890  1.5853
10399TIP3    H231151   0.628   4.526   2.806  0.7258  0.6620  0.4261
10400TIP3   OH231152   7.430   4.886   3.456  0.7348 -0.0116 -0.5893
10400TIP3    H131153   7.337   4.885   3.434  0.1010 -2.7438  1.8966
10400TIP3    H231154   7.466   4.811   3.409  1.4673  0.4229 -0.7207
10401TIP3   OH231155   6.570   1.738   0.301  0.1561 -0.7141 -1.1248
10401TIP3    H131156   6.653   1.710   0.338 -0.9122 -0.4136  1.6269
10401TIP3    H231157   6.510   1.665   0.318 -1.4915  1.2722  1.9561
10402TIP3   OH231158   6.792   4.976   4.461 -0.9096 -0.6577  0.0939
10402TIP3    H131159   6.699   4.988   4.442 -0.3874  1.6272 -1.2586
10402TIP3    H231160   6.794   4.942   4.551 -3.0781 -2.0860 -0.3497
10403TIP3   OH231161   0.517   5.872   4.931  0.0172  0.3076 -0.2775
10403TIP3    H131162   0.488   5.925   5.005 -0.1608 -0.1904  0.0063
10403TIP3    H231163   0.444   5.876   4.869  0.7168  1.8849 -1.0487
10404TIP3   OH231164   6.956   6.765   4.690  0.0681 -0.2408  0.0040
10404TIP3    H131165   7.049   6.769   4.667 -0.1123 -0.6932 -0.8036
10404TIP3    H231166   6.928   6.856   4.696  0.4383 -0.1107 -0.2549
10405TIP3   OH231167   0.371   6.516   3.570  0.4040  0.0509  0.1537
10405TIP3    H131168   0.305   6.586   3.568  0.9913  0.5858 -0.6910
10405TIP3    H231169   0.354   6.470   3.653 -1.6769 -0.4571 -0.5232
10406TIP3   OH231170   3.679   3.025   0.376 -0.3391 -0.2492 -0.0419
10406TIP3    H131171   3.687   3.011   0.282 -1.2077  4.1442 -0.9004
10406TIP3    H231172   3.735   3.101   0.394 -2.1921  0.5951  2.4907
10407TIP3   OH231173   1.006   7.174   4.315  0.0093  0.2737  0.5433
10407TIP3    H131174   1.053   7.240   4.365  1.9914 -0.3761 -0.4076
10407TIP3    H231175   1.059   7.095   4.324 -0.8019 -0.4241 -0.7137
10408TIP3   OH231176   1.830   5.094   3.759  0.1109  0.0252  0.0830
10408TIP3    H131177   1.887   5.038   3.705 -1.3294 -2.6906  1.3063
10408TIP3    H231178   1.831   5.054   3.845 -0.6160  2.1774  1.1203
10409TIP3   OH231179   6.964   4.427   5.717 -0.3557  0.0539 -0.1377
10409TIP3    H131180   6.998   4.342   5.743 -0.2844 -0.1176 -0.7796
10409TIP3    H231181   6.953   4.475   5.799  0.5401 -0.2216  0.1425
10410TIP3   OH231182   7.697   3.727   6.343  0.2319 -0.2349 -0.7115
10410TIP3    H131183   7.607   3.698   6.360 -1.0458  3.0691 -1.4399
10410TIP3    H231184   7.734   3.742   6.430 -0.2910 -0.5100 -0.4382
10411TIP3   OH231185   2.002   4.893   5.142 -0.2097  0.2391  0.2032
10411TIP3    H131186   2.087   4.889   5.187 -0.9364 -2.0975  1.4709
10411TIP3    H231187   1.992   4.805   5.103 -1.7925  0.6780 -0.4179
10412TIP3   OH231188   5.522   1.699   0.187 -0.3811  0.4209 -0.2403
10412TIP3    H131189   5.489   1.765   0.126  1.0957 -0.7780 -2.4117
10412TIP3    H231190   5.597   1.740   0.230  0.9375 -0.0453 -2.0656
10413TIP3   OH231191   0.164   6.475   5.594 -0.0846 -0.2685 -0.0663
10413TIP3    H131192   0.112   6.404   5.632  0.6714 -1.6324 -1.5304
10413TIP3    H231193   0.099   6.540   5.567 -0.8123 -0.5694  0.9191
10414TIP3   OH231194   6.139   4.973   5.392  0.4439  0.1225  0.1553
10414TIP3    H131195   6.213   4.941   5.341 -0.0466 -1.0970  0.1884
10414TIP3    H231196   6.168   5.057   5.427  1.2903  0.3182 -0.9951
10415TIP3   OH231197   1.747   0.014   2.652 -0.4564  0.2079 -0.2403
10415TIP3    H131198   1.698  -0.021   2.727 -0.0546 -0.9704 -0.5154
10415TIP3    H231199   1.827   0.049   2.690 -0.5882  0.2830 -0.0305
10416TIP3   OH231200   7.559   4.490   6.182  0.2135 -0.2490 -0.2138
10416TIP3    H131201   7.547   4.555   6.113 -0.0092  0.4024  0.4409
10416TIP3    H231202   7.600   4.416   6.137  1.3254  0.6858 -0.7664
10417TIP3   OH231203   5.533   1.238   0.283  0.6744 -0.1331  0.8971
10417TIP3    H131204   5.601   1.300   0.307 -0.4630  1.6697 -0.4464
10417TIP3    H231205   5.553   1.212   0.193 -0.9816  1.2542  0.0936
10418TIP3   OH231206   6.293   5.863   5.535 -0.1837 -0.3043  0.8326
10418TIP3    H131207   6.204   5.875   5.570 -0.3386 -1.0313  0.6972
10418TIP3    H231208   6.339   5.943   5.559 -1.2397  0.6282 -0.1965
10419TIP3   OH231209   6.167   4.503   4.670  0.0631 -0.0789  0.1426
10419TIP3    H131210   6.140   4.552   4.592  0.7154  1.0261  0.6091
10419TIP3    H231211   6.224   4.434   4.637 -0.7927 -0.4830 -0.5080
10420TIP3   OH231212   1.440   3.682   3.466 -0.1299  0.6522  0.3149
10420TIP3    H131213   1.354   3.683   3.510 -0.8108 -0.3093 -0.9533
10420TIP3    H231214   1.495   3.628   3.523 -0.1176  1.9285  1.5502
10421TIP3   OH231215   6.757   4.081   4.821 -0.1504  0.0468 -0.2117
10421TIP3    H131216   6.698   4.006   4.833 -1.4282  1.1050  0.3212
10421TIP3    H231217   6.700   4.151   4.790  0.8159  1.1395  0.4436
10422TIP3   OH231218   0.370   6.486   6.193  0.4213 -0.6068  0.5684
10422TIP3    H131219   0.288   6.454   6.231 -0.5300 -1.4404 -2.0829
10422TIP3    H231220   0.422   6.513   6.268 -2.4461  0.3706  2.2833
10423TIP3   OH231221   2.213   0.400   5.363  0.1533 -0.4316  0.2147
10423TIP3    H131222   2.136   0.413   5.307  0.4820 -0.3544 -0.2232
10423TIP3    H231223   2.248   0.488   5.377  0.5164 -0.5247 -0.0960
10424TIP3   OH231224   6.419   5.127   4.834  0.7643  0.2343 -0.1560
10424TIP3    H131225   6.458   5.052   4.788 -1.2588 -0.4458 -0.8331
10424TIP3    H231226   6.338   5.145   4.785 -0.0479  1.2456  1.5247
10425TIP3   OH231227   1.054   5.991   3.440 -0.0577  0.2763  0.2654
10425TIP3    H131228   1.012   6.053   3.380  0.8991  0.8989  0.2269
10425TIP3    H231229   1.031   6.023   3.528 -1.4228 -0.6122  0.2602
10426TIP3   OH231230   1.097   4.647   4.606  0.2217  0.5555  0.6282
10426TIP3    H131231   1.026   4.665   4.668 -0.4474 -0.5395  0.1904
10426TIP3    H231232   1.118   4.733   4.568 -2.1731  0.6138 -0.6395
10427TIP3   OH231233   7.670   6.394   6.273 -0.4286 -0.5733 -0.4767
10427TIP3    H131234   7.729   6.368   6.344 -0.7891 -2.8568 -0.9701
10427TIP3    H231235   7.661   6.489   6.283  3.8922 -0.0033 -0.8398
10428TIP3   OH231236   3.652   0.715   1.181 -0.2583 -0.0698 -0.1258
10428TIP3    H131237   3.707   0.782   1.221  0.1459 -1.1881  1.2169
10428TIP3    H231238   3.613   0.759   1.105  1.5115  1.0982 -0.3936
10429TIP3   OH231239   0.200   5.011   6.415 -0.1020 -0.1006 -0.3704
10429TIP3    H131240   0.105   4.994   6.420  0.0312 -1.2489 -1.4955
10429TIP3    H231241   0.208   5.106   6.422 -1.4529  0.1479 -1.9016
10430TIP3   OH231242   2.557   5.302   1.690  0.2293 -0.0701 -0.3393
10430TIP3    H131243   2.575   5.382   1.640  0.8192  1.4727  2.2443
10430TIP3    H231244   2.464   5.308   1.713  0.3490  0.0546  0.1252
10431TIP3   OH231245   1.731   6.196   2.230 -0.2016 -0.4700  0.3973
10431TIP3    H131246   1.813   6.160   2.199 -0.7965  1.0987 -3.2745
10431TIP3    H231247   1.756   6.274   2.280  0.5727  0.2754 -1.1139
10432TIP3   OH231248   6.700   4.464   5.859  0.0637  0.0576 -0.0515
10432TIP3    H131249   6.681   4.552   5.826  1.9098 -0.1147 -1.6823
10432TIP3    H231250   6.741   4.419   5.785  1.6089 -1.3149  1.5890
10433TIP3   OH231251   4.456   5.876   4.295  0.5870  0.0242 -0.0535
10433TIP3    H131252   4.498   5.956   4.325 -0.7559  0.3537  1.0002
10433TIP3    H231253   4.388   5.905   4.233 -1.3159 -0.0878  1.9092
10434TIP3   OH231254   1.848   5.914   5.140 -0.2693 -0.9520  0.5511
10434TIP3    H131255   1.869   5.822   5.125 -1.6634 -1.1641 -0.2254
10434TIP3    H231256   1.836   5.951   5.052  0.8114  0.1047  0.8359
10435TIP3   OH231257   2.790   6.346   3.996  0.5758  0.4596 -0.0880
10435TIP3    H131258   2.755   6.272   3.946  1.5849  0.5825 -0.9759
10435TIP3    H231259   2.848   6.305   4.061 -0.1442  0.3597  0.5051
10436TIP3   OH231260   7.422   6.049   2.011 -0.1132 -0.2793  0.1296
10436TIP3    H131261   7.394   6.138   1.991  0.7561 -0.0866 -0.2830
10436TIP3    H231262   7.518   6.052   2.005 -0.1158 -1.4194 -0.6365
10437TIP3   OH231263   4.073   1.794   0.052  0.3764 -0.4136  0.5800
10437TIP3    H131264   4.136   1.729   0.021  2.0516  1.0576  0.7566
10437TIP3    H231265   4.123   1.876   0.051 -1.5146  0.7572  0.8925
10438TIP3   OH231266   0.702   2.973   4.164  0.1619  0.2719 -0.4593
10438TIP3    H131267   0.655   2.892   4.183  0.8463 -0.4527 -1.7970
10438TIP3    H231268   0.707   2.976   4.068 -0.1331  2.0541 -0.4438
10439TIP3   OH231269   7.486   5.766   0.907  0.3022 -0.2064 -0.1398
10439TIP3    H131270   7.545   5.753   0.981  0.3783 -2.0737 -0.5262
10439TIP3    H231271   7.542   5.762   0.830 -0.2328 -1.4110 -0.4750
10440TIP3   OH231272   7.872   4.567   5.348 -0.0132 -0.3346 -0.2498
10440TIP3    H131273   7.917   4.493   5.307  1.4790 -0.1340  0.9646
10440TIP3    H231274   7.904   4.644   5.299  2.6363  0.0193  1.9276
10441TIP3   OH231275   1.240   6.333   3.710 -0.0251  0.2528  0.0544
10441TIP3    H131276   1.319   6.382   3.737 -0.4526  1.6132 -1.0902
10441TIP3    H231277   1.274   6.256   3.665  0.6501  0.7849 -0.3544
10442TIP3   OH231278   2.683   5.469   2.174  0.0080 -0.0285 -0.0491
10442TIP3    H131279   2.589   5.451   2.170 -0.0269 -0.7223  2.9192
10442TIP3    H231280   2.721   5.393   2.217  1.5956  1.3703  1.1012
10443TIP3   OH231281   6.881   6.287   3.796  0.0343  0.1293  0.3560
10443TIP3    H131282   6.970   6.266   3.767  0.4294  0.5632  1.2537
10443TIP3    H231283   6.837   6.318   3.717  0.3396 -1.1501 -0.3369
10444TIP3   OH231284   2.735   5.120   4.555  0.5772 -0.3052 -0.0207
10444TIP3    H131285   2.803   5.054   4.540 -1.0490 -2.1202  0.4064
10444TIP3    H231286   2.683   5.119   4.475 -0.9575 -1.4062  0.9469
10445TIP3   OH231287   1.886   5.893   1.252 -0.2474 -0.3968 -0.1368
10445TIP3    H131288   1.803   5.855   1.224 -0.2479  0.7794 -1.7681
10445TIP3    H231289   1.876   5.987   1.235  1.1597 -0.1568  0.3284
10446TIP3   OH231290   1.204   5.910   3.214 -0.3466 -0.2545 -0.2432
10446TIP3    H131291   1.183   5.971   3.143  0.7648  1.0221  0.4925
10446TIP3    H231292   1.165   5.950   3.292  1.8905  0.4739  0.5549
10447TIP3   OH231293   1.213   3.581   4.545  0.0014  0.4013 -0.2189
10447TIP3    H131294   1.177   3.670   4.549  0.0327  0.3836  0.6257
10447TIP3    H231295   1.302   3.590   4.578  0.1923  0.1462 -0.6614
10448TIP3   OH231296   5.726   4.196   3.906 -0.1668  0.8924 -0.1236
10448TIP3    H131297   5.722   4.220   3.813 -0.2989  0.7400 -0.1582
10448TIP3    H231298   5.785   4.121   3.909 -1.0953  0.1383 -0.2506
10449TIP3   OH231299   5.549   6.575   3.606 -0.4055  0.0081  0.5749
10449TIP3    H131300   5.591   6.584   3.520 -2.4199 -1.3255 -0.5986
10449TIP3    H231301   5.540   6.665   3.637  1.0638  0.4614 -0.2514
10450TIP3   OH231302   7.047   5.490   5.374 -0.2275  0.1747  0.3350
10450TIP3    H131303   6.973   5.547   5.395  0.0279  1.1955 -1.4053
10450TIP3    H231304   7.093   5.536   5.304  1.8984 -0.5887  1.1867
10451TIP3   OH231305   1.479   6.828   1.427 -0.1470  0.0964  0.2087
10451TIP3    H131306   1.418   6.804   1.497 -2.5796  2.8274 -0.8080
10451TIP3    H231307   1.453   6.773   1.353  0.4061 -0.6461  0.5673
10452TIP3   OH231308   7.286   3.903   0.758  0.3111 -0.3051  0.1278
10452TIP3    H131309   7.320   3.848   0.687 -0.9833 -0.0489 -0.7035
10452TIP3    H231310   7.322   3.990   0.741  0.6434 -0.4244  0.2289
10453TIP3   OH231311   1.633   5.233   3.541 -0.0185 -0.1095 -0.2039
10453TIP3    H131312   1.625   5.159   3.480  2.9437 -0.0095 -0.7897
10453TIP3    H231313   1.598   5.308   3.493 -3.6891 -1.1789  0.6407
10454TIP3   OH231314   0.797   4.735   5.223  0.3327 -0.1659 -0.0053
10454TIP3    H131315   0.725   4.797   5.212  0.0422 -0.3546  0.7935
10454TIP3    H231316   0.763   4.670   5.285  1.4873  0.2035  1.0181
10455TIP3   OH231317   6.623   1.911   1.674 -0.6799 -0.2787  0.0361
10455TIP3    H131318   6.597   1.876   1.760  1.6007 -0.2785  0.7485
10455TIP3    H231319   6.616   2.005   1.684  0.9123 -0.2133  0.6897
10456TIP3   OH231320   0.290   0.165   3.653  0.1630  0.3171 -0.5577
10456TIP3    H131321   0.301   0.095   3.588 -0.2848  0.7072 -1.0583
10456TIP3    H231322   0.356   0.147   3.720 -0.5343 -1.1096 -0.2280
10457TIP3   OH231323   7.557   6.802   4.801  0.2200 -0.0482 -0.2297
10457TIP3    H131324   7.521   6.715   4.819 -0.7704  0.4747  0.3601
10457TIP3    H231325   7.579   6.837   4.887  0.7783  0.2173 -0.4806
10458TIP3   OH231326   1.863   1.152   5.601  0.4359  0.2212  0.1665
10458TIP3    H131327   1.949   1.187   5.623  0.4175  1.4586 -1.6052
10458TIP3    H231328   1.802   1.219   5.632 -0.0352 -1.4934  3.0983
10459TIP3   OH231329   5.861   6.419   4.573 -0.4875 -0.1074  0.3330
10459TIP3    H131330   5.871   6.333   4.534  1.1962 -0.3401  1.2244
10459TIP3    H231331   5.827   6.401   4.661  1.2311  0.0207  1.0424
10460TIP3   OH231332   7.179   6.343   5.595  0.0987  0.5440  0.1682
10460TIP3    H131333   7.156   6.429   5.628  0.2941  0.5915  0.1798
10460TIP3    H231334   7.272   6.349   5.572 -0.3221  0.8826 -1.5400
10461TIP3   OH231335   3.283   0.262   1.896  0.8811 -0.2849 -0.5823
10461TIP3    H131336   3.346   0.262   1.968  1.9542  1.0418 -1.4863
10461TIP3    H231337   3.337   0.252   1.817  0.0587  1.6935 -1.4351
10462TIP3   OH231338   0.963   5.899   6.026  0.5879 -0.4010 -0.0782
10462TIP3    H131339   0.986   5.910   5.934  0.0063 -2.1219 -0.4502
10462TIP3    H231340   0.895   5.964   6.042  1.3524  0.5408 -0.5969
10463TIP3   OH231341   6.173   7.056   5.173 -0.1849 -0.2241  0.1632
10463TIP3    H131342   6.125   7.032   5.095 -0.6714 -1.1775  0.7473
10463TIP3    H231343   6.254   7.095   5.140 -1.0173  0.7130 -0.8085
10464TIP3   OH231344   4.483   6.960   1.063  0.1746 -0.2237 -0.0201
10464TIP3    H131345   4.401   7.007   1.079 -0.0263 -0.6644  0.2344
10464TIP3    H231346   4.543   7.028   1.031  0.0459  0.3148  0.8652
10465TIP3   OH231347   2.157   4.862   2.399  0.7160 -0.4601 -0.4524
10465TIP3    H131348   2.079   4.829   2.444  1.6488 -0.5725  1.1399
10465TIP3    H231349   2.149   4.829   2.310 -0.5473 -1.3509 -0.0308
10466TIP3   OH231350   1.705   4.756   5.072  0.4817 -0.6258  0.4118
10466TIP3    H131351   1.773   4.703   5.115 -0.6312 -1.7187  0.8652
10466TIP3    H231352   1.700   4.836   5.125  1.0643 -0.7594  0.6742
10467TIP3   OH231353   7.107   5.285   6.261  0.2477 -0.1490  0.6520
10467TIP3    H131354   7.087   5.371   6.224  2.1545  0.9376  2.0111
10467TIP3    H231355   7.176   5.250   6.204 -0.3390 -0.6499  0.2550
10468TIP3   OH231356   1.641   4.872   4.817  0.0763  0.6404 -0.4827
10468TIP3    H131357   1.546   4.882   4.825  0.2539  1.1319  1.4742
10468TIP3    H231358   1.668   4.838   4.903  1.7241  1.0709 -0.8182
10469TIP3   OH231359   2.761   0.117   4.211 -0.2242 -0.0635 -0.2414
10469TIP3    H131360   2.855   0.132   4.213 -0.3235  0.4900  0.8890
10469TIP3    H231361   2.740   0.087   4.300 -0.9648 -1.1439 -0.7619
10470TIP3   OH231362   0.002   3.416   6.349  0.6561  0.5309 -0.0515
10470TIP3    H131363   0.087   3.372   6.350 -0.6813 -2.1880 -0.2562
10470TIP3    H231364  -0.031   3.406   6.438  0.5646  1.6724  0.0541
10471TIP3   OH231365   1.224   4.796   5.640 -0.4304  0.5863 -0.1755
10471TIP3    H131366   1.149   4.743   5.667 -0.8281 -0.2873 -2.8740
10471TIP3    H231367   1.299   4.759   5.688 -1.5688  1.0486  2.0205
10472TIP3   OH231368   0.898   6.858   4.351 -0.0963  0.0278  0.7120
10472TIP3    H131369   0.879   6.816   4.267 -0.4546  1.9150 -0.1670
10472TIP3    H231370   0.980   6.904   4.337 -0.2662  0.5227  1.3216
10473TIP3   OH231371   6.894   4.923   5.270 -0.4447  0.7005 -0.0540
10473TIP3    H131372   6.903   4.922   5.174  2.5057 -1.0511  0.1830
10473TIP3    H231373   6.977   4.958   5.301 -0.5783 -0.6857  1.9340
10474TIP3   OH231374   7.073   4.115   4.080 -0.7298 -0.0437  0.2900
10474TIP3    H131375   7.078   4.021   4.099  0.3852  0.1852  1.1895
10474TIP3    H231376   7.126   4.127   4.001 -0.6866 -0.1337  0.3059
10475TIP3   OH231377   5.531   0.470   0.290 -0.0979 -0.0907 -0.4868
10475TIP3    H131378   5.582   0.461   0.371  0.5947 -2.6501 -1.1758
10475TIP3    H231379   5.590   0.516   0.230  0.2361 -0.2045 -0.2505
10476TIP3   OH231380   7.870   7.377   5.791  0.7561  0.2102  0.6905
10476TIP3    H131381   7.784   7.336   5.782  0.2922  0.5915  2.9567
10476TIP3    H231382   7.911   7.367   5.705 -1.1797 -0.8089 -0.1449
10477TIP3   OH231383   3.799   4.905   5.201 -0.2379  0.2360  0.1805
10477TIP3    H131384   3.822   4.991   5.167 -1.6479  1.4390  2.1556
10477TIP3    H231385   3.796   4.917   5.296  0.8648 -2.3290  0.5745
10478TIP3   OH231386   7.214   1.744   0.916 -0.2231  0.0751  0.3469
10478TIP3    H131387   7.206   1.765   0.823 -0.0381  1.0926  0.5540
10478TIP3    H231388   7.307   1.726   0.929 -0.3488 -0.6767  0.2105
10479TIP3   OH231389   5.806   1.680   1.098  0.0387 -0.8576  0.2734
10479TIP3    H131390   5.817   1.593   1.138 -0.1583 -0.4407  1.2552
10479TIP3    H231391   5.712   1.686   1.082  0.0190 -0.7347  0.4305
10480TIP3   OH231392   5.409   2.690   1.108  0.0104  0.1740 -0.2182
10480TIP3    H131393   5.375   2.665   1.022 -0.9431  0.1493  0.1565
10480TIP3    H231394   5.353   2.763   1.135  1.6054  1.5279 -0.5090
10481TIP3   OH231395   3.453   7.265   5.694 -0.8600 -0.3835 -0.0140
10481TIP3    H131396   3.534   7.309   5.667  0.1291 -1.7405  0.6537
10481TIP3    H231397   3.423   7.314   5.770  0.5320 -1.1639  1.0693
10482TIP3   OH231398   1.566   5.360   5.471 -0.4657 -0.9346 -0.3626
10482TIP3    H131399   1.557   5.424   5.542  0.5947  0.2055 -1.2128
10482TIP3    H231400   1.497   5.384   5.409  1.5141  1.0663 -1.8882
10483TIP3   OH231401   1.548   5.789   6.395 -0.2673  0.3282  0.2362
10483TIP3    H131402   1.642   5.800   6.407 -0.1805 -0.4690  0.3272
10483TIP3    H231403   1.513   5.779   6.483 -0.1665 -1.3914  0.0978
10484TIP3   OH231404   2.800   5.353   5.453 -0.2047 -0.3343  0.2285
10484TIP3    H131405   2.706   5.340   5.459 -0.3337 -0.3176 -1.3946
10484TIP3    H231406   2.819   5.427   5.510 -1.2565  0.0267  0.1047
10485TIP3   OH231407   0.109   1.256   1.103 -0.0922  0.2145  0.0973
10485TIP3    H131408   0.148   1.302   1.177 -0.2918  0.5602 -0.0116
10485TIP3    H231409   0.180   1.204   1.066 -0.2199 -0.7047  1.1111
10486TIP3   OH231410   2.520   4.589   6.160 -0.1774  0.0873  0.0396
10486TIP3    H131411   2.561   4.580   6.074 -0.7413 -1.9369 -0.0432
10486TIP3    H231412   2.428   4.604   6.141 -0.1446  0.6553  0.3003
10487TIP3   OH231413   6.236   3.378   1.734  0.0610  0.1315 -0.6293
10487TIP3    H131414   6.299   3.369   1.663  0.5528 -0.0942 -0.1704
10487TIP3    H231415   6.288   3.364   1.813 -0.6905 -0.6360 -0.2773
10488TIP3   OH231416   0.464   7.141   5.654  0.4210 -0.7151 -0.1008
10488TIP3    H131417   0.498   7.206   5.716  0.6246  0.4557 -1.4248
10488TIP3    H231418   0.409   7.084   5.707 -1.7250  1.9688  0.6799
10489TIP3   OH231419   1.460   5.044   5.133 -0.0029 -0.1038  0.3472
10489TIP3    H131420   1.555   5.048   5.133  0.0120  0.0084 -1.4678
10489TIP3    H231421   1.439   4.958   5.170  0.8630 -0.8941 -0.9452
10490TIP3   OH231422   2.137   2.491   5.338  0.3419  0.7180  0.2470
10490TIP3    H131423   2.067   2.437   5.375  0.4871  0.0825 -0.3720
10490TIP3    H231424   2.207   2.489   5.404  0.1487  0.5516  0.4471
10491TIP3   OH231425   1.275   5.076   5.631 -0.6337  0.5852  0.3103
10491TIP3    H131426   1.270   4.981   5.640  0.3177  0.5389  0.4851
10491TIP3    H231427   1.285   5.107   5.721  2.4224  0.5934  0.0306
10492TIP3   OH231428   4.439   1.845   0.596  0.0185 -0.0992  0.2479
10492TIP3    H131429   4.454   1.760   0.556 -1.5748 -0.7104  0.9094
10492TIP3    H231430   4.440   1.907   0.523 -0.8037 -0.9331 -0.4706
10493TIP3   OH231431   4.283   6.410   1.479  0.3545 -0.5216  0.1187
10493TIP3    H131432   4.225   6.485   1.468  0.8596 -0.1571 -0.0199
10493TIP3    H231433   4.364   6.447   1.513  0.9095 -0.8978 -0.7868
10494TIP3   OH231434   6.024   2.399   0.175 -0.1312  0.1461 -1.3725
10494TIP3    H131435   6.103   2.378   0.124  1.5814 -0.8496  1.5390
10494TIP3    H231436   6.031   2.492   0.192 -0.4203  0.3724 -2.4352
10495TIP3   OH231437   3.432   0.811   6.280 -0.1496 -0.4564 -0.7040
10495TIP3    H131438   3.416   0.866   6.203  0.8230 -0.2092 -0.7401
10495TIP3    H231439   3.438   0.873   6.353  0.1884 -0.5734 -0.6293
10496TIP3   OH231440   4.185   0.631   5.527  0.4439 -0.2467 -0.1017
10496TIP3    H131441   4.247   0.687   5.481 -1.1858  0.7977 -1.0737
10496TIP3    H231442   4.103   0.680   5.526  0.0129 -0.7990  2.7519
10497TIP3   OH231443   3.673   7.252   2.011  0.0855  0.2561 -0.6384
10497TIP3    H131444   3.713   7.169   2.036 -1.1989 -0.9000 -2.2577
10497TIP3    H231445   3.579   7.232   2.007 -0.3061  1.9991 -0.2631
10498TIP3   OH231446   6.719   0.657   0.233  0.5201 -0.8823 -0.1647
10498TIP3    H131447   6.755   0.742   0.259 -0.4136  0.1804 -2.2621
10498TIP3    H231448   6.793   0.597   0.239  1.2666  0.1229  1.0251
10499TIP3   OH231449   2.775   3.448   5.718 -0.2135  0.0952  0.4289
10499TIP3    H131450   2.786   3.455   5.623 -0.1278 -3.3752  0.1207
10499TIP3    H231451   2.698   3.501   5.737  0.5919  1.9896 -1.3353
10500TIP3   OH231452   2.152   5.468   5.512  0.6989  0.2633  0.2635
10500TIP3    H131453   2.081   5.482   5.450 -0.5995 -1.4347  1.3248
10500TIP3    H231454   2.212   5.409   5.466  0.9119  0.8643 -0.2367
10501TIP3   OH231455   5.763   0.116   1.688  0.5229  0.4096 -0.1439
10501TIP3    H131456   5.829   0.064   1.642  0.3350 -0.1026  0.1707
10501TIP3    H231457   5.785   0.207   1.665 -0.1297  0.1170 -2.0108
10502TIP3   OH231458   6.487   1.775   0.049 -0.3119 -0.3424  0.4843
10502TIP3    H131459   6.508   1.801   0.138 -0.2173  2.9448 -0.4439
10502TIP3    H231460   6.490   1.856  -0.001 -0.4227 -2.1225 -2.5136
10503TIP3   OH231461   7.021   2.094   1.729 -0.7703  0.0601 -0.3510
10503TIP3    H131462   7.076   2.054   1.661 -1.5669  1.3431 -1.7915
10503TIP3    H231463   7.054   2.184   1.737  0.3918 -0.5379  2.1837
10504TIP3   OH231464   0.460   5.974   5.174  0.0527  0.0577 -0.1085
10504TIP3    H131465   0.390   6.019   5.221  0.4326 -0.0153  0.5370
10504TIP3    H231466   0.534   5.975   5.235  0.4157 -0.4218 -0.5384
10505TIP3   OH231467   3.799   1.557   0.968  0.1914 -0.8521  0.1098
10505TIP3    H131468   3.805   1.594   0.880 -0.6767 -1.0522 -0.0425
10505TIP3    H231469   3.861   1.485   0.968 -1.1986 -2.0926 -0.9827
10506TIP3   OH231470   7.766   1.937   1.405  0.5858 -0.3087  0.4539
10506TIP3    H131471   7.726   1.940   1.318 -2.3300 -2.1391  1.6706
10506TIP3    H231472   7.753   2.026   1.440  0.2727 -0.0453 -0.3254
10507TIP3   OH231473   1.992   5.236   4.019 -0.4717  0.2661  0.2453
10507TIP3    H131474   2.042   5.201   3.945 -0.7255  1.3457 -0.4473
10507TIP3    H231475   1.910   5.186   4.018  0.0026 -0.5324  0.5261
10508TIP3   OH231476   1.086   4.829   5.406 -0.3608  0.0258 -0.0784
10508TIP3    H131477   1.115   4.810   5.495 -0.2554 -1.0132 -0.3311
10508TIP3    H231478   1.073   4.743   5.366 -1.6393  0.4827 -0.6692
10509TIP3   OH231479   0.375   6.562   4.918  0.0212  0.4314 -0.2902
10509TIP3    H131480   0.338   6.614   4.847  2.5457  1.7292 -0.7360
10509TIP3    H231481   0.466   6.591   4.924  0.2672 -0.6912  2.5193
10510TIP3   OH231482   5.830   0.285   1.170 -0.2137 -0.1945 -0.3234
10510TIP3    H131483   5.742   0.322   1.160 -0.0133  0.4289  0.1586
10510TIP3    H231484   5.876   0.309   1.089  0.6170  2.6109  0.9127
10511TIP3   OH231485   1.185   2.585   5.206  0.6868  0.6249 -0.2749
10511TIP3    H131486   1.106   2.636   5.187  1.1217  1.3617 -0.0982
10511TIP3    H231487   1.255   2.633   5.163  1.3435  1.0431  1.2465
10512TIP3   OH231488   4.930   6.832   0.036 -0.7186  0.2638 -0.4894
10512TIP3    H131489   4.925   6.923   0.065  1.5639 -0.4580  2.3785
10512TIP3    H231490   5.002   6.832  -0.027  1.2321 -0.0254  1.6704
10513TIP3   OH231491   7.068   1.946   1.084  0.1570 -0.7223 -0.0667
10513TIP3    H131492   7.101   1.870   1.036 -1.7495 -0.2282 -2.2741
10513TIP3    H231493   7.082   2.020   1.025 -1.9900 -0.0568  0.2102
10514TIP3   OH231494   4.625   3.812   5.080  0.8757  0.3142 -0.0961
10514TIP3    H131495   4.623   3.765   4.996 -2.2697  0.5779 -0.2373
10514TIP3    H231496   4.590   3.749   5.143  1.2056  0.8563  0.6318
10515TIP3   OH231497   7.016   1.761   2.650 -0.6117  0.1261  0.2443
10515TIP3    H131498   6.966   1.756   2.568 -1.5940 -0.8991  0.8921
10515TIP3    H231499   7.028   1.855   2.664 -1.6758  0.3661 -0.3355
10516TIP3   OH231500   1.682   6.848   4.811 -0.4061  0.4482 -0.3058
10516TIP3    H131501   1.688   6.929   4.863 -1.0317 -0.1862  0.7768
10516TIP3    H231502   1.588   6.834   4.799 -0.3335 -0.5943  0.2820
10517TIP3   OH231503   1.177   5.640   3.201  0.2471  0.5434  0.0810
10517TIP3    H131504   1.217   5.627   3.115 -1.4873  1.2586 -0.8714
10517TIP3    H231505   1.187   5.733   3.219  0.3067  0.4587  0.4959
10518TIP3   OH231506   7.145   2.837   0.557  0.0223 -0.1915  0.1999
10518TIP3    H131507   7.107   2.925   0.551  0.5732 -0.0697 -1.6295
10518TIP3    H231508   7.138   2.801   0.469  0.6633 -1.6394  0.7160
10519TIP3   OH231509   7.701   1.778   0.066  0.2125  0.3242  0.1105
10519TIP3    H131510   7.688   1.737  -0.019 -0.7598  1.3276 -0.2390
10519TIP3    H231511   7.623   1.754   0.117 -1.6840  3.7975 -0.9533
10520TIP3   OH231512   5.311   2.797   2.822  0.0597  0.1540 -0.0930
10520TIP3    H131513   5.252   2.872   2.829  1.0890  0.8806  1.1824
10520TIP3    H231514   5.285   2.739   2.894  1.9986  1.3166  1.6191
10521TIP3   OH231515   5.024   0.168   0.686 -0.1004  0.2292  0.4749
10521TIP3    H131516   5.081   0.243   0.707 -0.3430  0.2424  1.0758
10521TIP3    H231517   5.070   0.124   0.615  0.1038  0.8865  0.1884
10522TIP3   OH231518   7.729   4.520   5.860  0.0397  0.0679 -0.1217
10522TIP3    H131519   7.721   4.505   5.766 -2.2784 -1.1433  0.2156
10522TIP3    H231520   7.663   4.586   5.880 -0.5985 -0.8378  0.8674
10523TIP3   OH231521   1.351   4.365   5.648  0.0308  0.0197 -0.0818
10523TIP3    H131522   1.264   4.350   5.611 -0.8953 -2.5502  2.9606
10523TIP3    H231523   1.334   4.400   5.736  2.1347  1.5527 -0.2344
10524TIP3   OH231524   1.114   5.534   5.967 -0.4406 -0.3221  0.2500
10524TIP3    H131525   1.205   5.561   5.956  0.1388 -1.9980  0.6601
10524TIP3    H231526   1.115   5.439   5.950 -2.0290 -0.4397  0.6842
10525TIP3   OH231527   0.936   6.238   4.702  0.2044  0.1534  0.0676
10525TIP3    H131528   0.965   6.206   4.616  0.1758  2.5091 -0.8541
10525TIP3    H231529   0.989   6.190   4.765  1.7647 -0.0318 -1.3587
10526TIP3   OH231530   6.844   0.623   0.891 -0.3220  0.0308  0.1509
10526TIP3    H131531   6.939   0.633   0.878 -0.2859  0.4149  0.6652
10526TIP3    H231532   6.829   0.659   0.979 -0.6992 -1.5194  0.7397
10527TIP3   OH231533   3.026   4.833   4.724  0.4074 -0.3801  0.0498
10527TIP3    H131534   3.087   4.906   4.722  1.0153 -0.8310  1.9307
10527TIP3    H231535   2.971   4.849   4.800 -0.9596 -0.6965 -0.8458
10528TIP3   OH231536   6.360   2.760   0.467 -0.0060  0.6627  0.3371
10528TIP3    H131537   6.395   2.810   0.392 -0.3521  1.2078  0.5358
10528TIP3    H231538   6.297   2.819   0.507 -0.0372  0.2540  0.8898
10529TIP3   OH231539   1.726   6.577   5.923  0.0355  0.4975  0.0145
10529TIP3    H131540   1.746   6.658   5.969  0.1368  0.5713 -0.1613
10529TIP3    H231541   1.666   6.603   5.853 -0.3926  0.3325  0.3194
10530TIP3   OH231542   4.386   1.134   6.229  0.1698  0.3563 -0.0007
10530TIP3    H131543   4.440   1.128   6.308 -1.7625 -0.8322  1.2668
10530TIP3    H231544   4.381   1.044   6.197 -0.0915  0.6444 -0.7878
10531TIP3   OH231545   6.602   0.380   1.241  0.2515 -0.0367 -0.3234
10531TIP3    H131546   6.661   0.305   1.240  0.0688 -0.1998  0.4047
10531TIP3    H231547   6.614   0.418   1.328  0.5272  0.9294 -0.7838
10532TIP3   OH231548   1.271   6.639   6.435  0.0594 -0.4296 -0.0351
10532TIP3    H131549   1.333   6.586   6.384  1.0701  1.6746 -1.0539
10532TIP3    H231550   1.191   6.640   6.382 -0.5132 -2.2332  0.7561
10533TIP3   OH231551   1.004   0.257   0.326 -0.4010 -0.5419  0.2659
10533TIP3    H131552   1.089   0.299   0.336 -1.6961  1.7202  2.2344
10533TIP3    H231553   0.991   0.251   0.231  1.2262  0.5543 -0.0447
10534TIP3   OH231554   7.400   2.073   4.161  0.2839 -0.0308 -0.3570
10534TIP3    H131555   7.320   2.127   4.162  0.9315  1.1036 -3.0465
10534TIP3    H231556   7.469   2.133   4.133  1.5376 -1.6600 -0.8537
10535TIP3   OH231557   6.611   2.343   1.727  0.2868 -0.2192  0.4187
10535TIP3    H131558   6.575   2.342   1.816 -0.6187  0.3921  0.0646
10535TIP3    H231559   6.551   2.287   1.677  0.7314 -0.4688  0.1646
10536TIP3   OH231560   5.059   0.116   4.809 -0.0121 -0.0478 -0.4980
10536TIP3    H131561   5.006   0.162   4.874  0.0094  1.1347 -1.2876
10536TIP3    H231562   5.037   0.159   4.726 -0.1461 -1.6251 -1.2946
10537TIP3   OH231563   1.462   6.468   6.328 -0.8395 -0.4402 -0.3370
10537TIP3    H131564   1.557   6.463   6.318 -0.6921 -0.3647  0.8643
10537TIP3    H231565   1.427   6.428   6.249  0.1808  0.4534 -1.2700
10538TIP3   OH231566   5.167   2.631   0.113  0.3073 -0.3412  0.1771
10538TIP3    H131567   5.209   2.547   0.132 -0.2520 -0.1842  2.2028
10538TIP3    H231568   5.221   2.669   0.043  0.7669 -2.2145 -0.5367
10539TIP3   OH231569   3.348   1.085   5.653  0.4307  0.4415 -0.3676
10539TIP3    H131570   3.439   1.085   5.684  0.7633 -0.0911 -1.3157
10539TIP3    H231571   3.354   1.054   5.562 -0.7210  0.2083 -0.3682
10540TIP3   OH231572   0.911   4.913   4.973 -0.3460  0.6022  0.4245
10540TIP3    H131573   0.963   4.967   5.033 -1.7231  0.8054  1.4686
10540TIP3    H231574   0.854   4.861   5.031  1.0636 -2.1034 -0.5387
10541TIP3   OH231575   0.780   6.130   5.081 -0.1758  0.2736  0.4449
10541TIP3    H131576   0.710   6.065   5.084  0.4965 -0.4450  0.5576
10541TIP3    H231577   0.739   6.210   5.113 -0.9460 -0.1416  0.5125
10542TIP3   OH231578   2.910   5.118   5.403  0.0161  0.6778 -0.4532
10542TIP3    H131579   2.858   5.194   5.429 -0.7990  0.0463 -0.2417
10542TIP3    H231580   3.000   5.152   5.397 -0.2392  1.5096  0.2823
10543TIP3   OH231581   2.224   6.921   6.132  0.4878 -0.0435 -0.1214
10543TIP3    H131582   2.172   6.993   6.168  0.0292 -0.0988 -0.6690
10543TIP3    H231583   2.195   6.844   6.181 -0.9647 -0.3203 -1.3739
10544TIP3   OH231584   7.571   4.513   1.325  0.2715  0.3556  0.0844
10544TIP3    H131585   7.504   4.543   1.387  1.1359  1.4016  0.5212
10544TIP3    H231586   7.648   4.497   1.380  0.5895 -0.1917 -0.5158
10545TIP3   OH231587   1.592   4.975   6.241 -0.2319  0.3855  0.3840
10545TIP3    H131588   1.565   4.941   6.326  1.6320 -0.2807  0.7262
10545TIP3    H231589   1.545   5.058   6.232 -1.5905 -0.2724  1.3888
10546TIP3   OH231590   3.825   6.409   0.412 -0.2823 -0.2438 -0.2300
10546TIP3    H131591   3.787   6.493   0.437  1.0237  0.1971  0.3002
10546TIP3    H231592   3.760   6.344   0.440 -1.7645  0.6197 -1.5488
10547TIP3   OH231593   0.437   6.940   4.282 -0.5120 -0.2552 -0.0348
10547TIP3    H131594   0.381   6.908   4.353  1.0339  1.6648  2.1008
10547TIP3    H231595   0.506   6.873   4.274 -1.2081 -0.9365 -0.3807
10548TIP3   OH231596   3.914   0.802   5.753  0.3461 -0.1305  0.4404
10548TIP3    H131597   3.950   0.757   5.830  2.0645  0.2414 -0.1261
10548TIP3    H231598   3.887   0.731   5.695  0.2929 -0.4235  0.8179
10549TIP3   OH231599   2.522   6.867   6.069 -0.3345 -0.2183  0.2570
10549TIP3    H131600   2.534   6.774   6.051  0.3537  0.0483 -0.6606
10549TIP3    H231601   2.436   6.872   6.111 -0.8549 -1.1346 -0.6974
10550TIP3   OH231602   2.054   3.171   5.610 -0.0577  0.3410 -0.5548
10550TIP3    H131603   2.125   3.189   5.549  1.0597 -4.1469 -0.7287
10550TIP3    H231604   2.066   3.235   5.681  2.6583  1.2077 -1.7467
10551TIP3   OH231605   7.095   2.748   0.306  0.0158  0.1362  0.0742
10551TIP3    H131606   7.003   2.775   0.306 -0.1717 -0.5018  0.0374
10551TIP3    H231607   7.107   2.701   0.224  0.5502  0.7961 -0.2287
10552TIP3   OH231608   0.078   5.131   5.551 -0.1475  0.3119 -0.5361
10552TIP3    H131609   0.025   5.057   5.520 -0.1764  0.8185 -1.6962
10552TIP3    H231610   0.082   5.118   5.646 -0.3599 -1.0443 -0.6950
10553TIP3   OH231611   1.121   5.846   4.692  0.0147 -0.4243 -0.2105
10553TIP3    H131612   1.030   5.839   4.719 -0.3326  1.4459 -0.7792
10553TIP3    H231613   1.152   5.928   4.733  0.6965  0.2398 -1.9937
10554TIP3   OH231614   1.446   5.795   5.198 -0.0221 -0.2805 -1.0185
10554TIP3    H131615   1.382   5.841   5.252  0.9066  0.9715 -0.9441
10554TIP3    H231616   1.399   5.771   5.119 -1.0582 -0.9890 -0.1998
10555TIP3   OH231617   2.964   6.715   0.647  0.2100 -0.2913 -1.1740
10555TIP3    H131618   2.956   6.768   0.568 -1.0324  2.8287  0.9561
10555TIP3    H231619   2.875   6.711   0.682  0.9425 -0.5752  0.7199
10556TIP3   OH231620   5.378   0.279   1.902 -0.2826  0.2686  0.0733
10556TIP3    H131621   5.311   0.235   1.954 -0.2843  1.0267  0.7321
10556TIP3    H231622   5.345   0.277   1.812  0.8755 -3.2997 -0.3592
10557TIP3   OH231623   4.188   7.342   0.842 -0.1105  0.3343 -0.0066
10557TIP3    H131624   4.252   7.405   0.811 -0.5115  0.4998 -0.5048
10557TIP3    H231625   4.145   7.386   0.916  1.4138 -0.3824  1.3331
10558TIP3   OH231626   2.612   4.408   3.616  0.2311 -0.4694 -0.3897
10558TIP3    H131627   2.602   4.458   3.536  0.1321 -2.0386 -1.3788
10558TIP3    H231628   2.528   4.365   3.629  0.4764 -0.7990  0.1480
10559TIP3   OH231629   2.202   7.278   1.204 -0.1514  0.4719  0.0489
10559TIP3    H131630   2.252   7.332   1.265  1.6990  0.1156 -1.1145
10559TIP3    H231631   2.269   7.230   1.154 -1.6924 -1.1770 -0.4903
10560TIP3   OH231632   4.055   7.377   1.084  0.0710 -0.0153  0.2987
10560TIP3    H131633   3.986   7.438   1.058  0.8699  0.7678 -0.0110
10560TIP3    H231634   4.062   7.389   1.179  0.6909  0.8806  0.1462
10561TIP3   OH231635   5.340   1.630   0.667  0.0463 -0.1591 -0.0572
10561TIP3    H131636   5.292   1.653   0.588  1.0970  0.6570 -0.4616
10561TIP3    H231637   5.432   1.643   0.645  0.3161  0.6853  1.4990
10562TIP3   OH231638   6.140   3.866   0.305  0.4431  0.1749  0.0782
10562TIP3    H131639   6.095   3.876   0.221  0.6935  0.5345 -0.0108
10562TIP3    H231640   6.212   3.929   0.302 -0.9553  1.8949  1.5075
10563TIP3   OH231641   7.564   1.697   1.351  0.1646 -0.0582 -0.5188
10563TIP3    H131642   7.625   1.769   1.336 -0.4408  0.8787  1.3091
10563TIP3    H231643   7.547   1.700   1.445 -0.4183 -2.1606 -0.5387
10564TIP3   OH231644   1.744   6.326   5.537  0.2984 -0.0469  0.3090
10564TIP3    H131645   1.800   6.253   5.508  0.5012 -0.0753  0.7656
10564TIP3    H231646   1.668   6.283   5.578 -0.5604 -0.0203 -1.2279
10565TIP3   OH231647   1.044   5.185   5.467 -0.0024  0.4940 -0.3637
10565TIP3    H131648   0.970   5.189   5.405 -0.1620 -0.1948 -0.2279
10565TIP3    H231649   1.023   5.111   5.524 -0.1511  1.4826  0.9038
10566TIP3   OH231650   1.296   4.430   5.118  0.4052 -0.0716  0.0742
10566TIP3    H131651   1.314   4.360   5.180  1.2980 -0.1161 -0.2365
10566TIP3    H231652   1.253   4.498   5.171 -1.2074 -1.1853  0.2009
10567TIP3   OH231653   5.781   1.252   4.714 -0.1817 -0.0359 -0.0899
10567TIP3    H131654   5.853   1.252   4.777  1.4768  2.1729 -1.8621
10567TIP3    H231655   5.816   1.204   4.638 -1.3467 -0.7894 -0.1512
10568TIP3   OH231656   1.429   6.199   5.756 -0.1753 -0.5708  0.7058
10568TIP3    H131657   1.366   6.192   5.684  0.1872 -2.1890  0.5291
10568TIP3    H231658   1.422   6.290   5.785 -2.9983 -0.8312  1.0420
10569TIP3   OH231659   0.829   0.713   1.304  0.5137 -0.2838  0.1896
10569TIP3    H131660   0.881   0.784   1.264 -2.0664  2.9808  2.3558
10569TIP3    H231661   0.879   0.689   1.382  1.3141 -0.7916 -0.4604
10570TIP3   OH231662   7.143   1.197   0.074 -0.8180 -0.5917  0.1436
10570TIP3    H131663   7.062   1.150   0.093 -0.8836  0.6878  3.3715
10570TIP3    H231664   7.212   1.134   0.093 -0.9783 -0.4523  1.2043
10571TIP3   OH231665   5.603   2.085   6.277  0.2070  0.5009 -0.1367
10571TIP3    H131666   5.610   2.172   6.315  1.1469  0.6074 -0.5457
10571TIP3    H231667   5.608   2.025   6.352  1.2454  0.7393 -0.0036
10572TIP3   OH231668   4.042   1.758   4.817 -0.1077 -0.4642  0.3879
10572TIP3    H131669   4.055   1.742   4.910  0.9644  0.0031  0.3351
10572TIP3    H231670   4.081   1.844   4.802 -3.3601  1.0125  0.1457
10573TIP3   OH231671   5.737   0.221   5.682  0.6097  0.0390  0.1214
10573TIP3    H131672   5.689   0.139   5.678  0.3740  0.1958 -0.3367
10573TIP3    H231673   5.827   0.197   5.662  0.9281 -0.4198  2.0699
10574TIP3   OH231674   1.224   3.220   0.215 -0.4573 -0.7875  0.5986
10574TIP3    H131675   1.281   3.186   0.284 -0.2118 -2.1310 -0.2366
10574TIP3    H231676   1.267   3.300   0.185  0.3686 -1.1561  0.7853
10575TIP3   OH231677   1.826   6.786   6.104  0.4296  0.7410 -0.4451
10575TIP3    H131678   1.898   6.744   6.152  0.6918  1.0174 -0.5986
10575TIP3    H231679   1.854   6.877   6.095  0.3764  0.6879 -1.1257
10576TIP3   OH231680   6.897   1.242   0.777 -0.0212 -0.5173 -0.1406
10576TIP3    H131681   6.962   1.310   0.791  0.1059 -0.5301 -0.6748
10576TIP3    H231682   6.827   1.262   0.840  1.4664 -1.7697  1.9786
10577TIP3   OH231683   2.531   5.382   5.629 -0.2497  0.1899 -0.2383
10577TIP3    H131684   2.534   5.287   5.637  1.3017  0.3265  0.9940
10577TIP3    H231685   2.518   5.414   5.718  2.2096  1.2170 -0.2140
10578TIP3   OH231686   4.063   0.224   5.766  0.2707  0.0298  0.2849
10578TIP3    H131687   3.993   0.221   5.700  0.7108  0.6766 -0.2109
10578TIP3    H231688   4.144   0.227   5.714  0.5754  1.8852  0.8439
10579TIP3   OH231689   5.035   0.204   5.874 -0.2020 -0.2240 -0.0371
10579TIP3    H131690   4.959   0.253   5.845  0.8262  0.6238 -1.3356
10579TIP3    H231691   5.074   0.169   5.794  0.9425 -0.4173  0.5831
10580TIP3   OH231692   0.116   2.698   0.075  0.5115 -0.3437 -0.1114
10580TIP3    H131693   0.151   2.668  -0.009 -1.0716  0.3353 -1.0434
10580TIP3    H231694   0.187   2.747   0.116  0.9654  0.1946 -1.5265
10581TIP3   OH231695   1.923   4.602   5.082 -0.0640  0.0018  0.1309
10581TIP3    H131696   1.922   4.507   5.069 -1.6812  0.1923 -1.3961
10581TIP3    H231697   1.983   4.634   5.015  0.5174  0.0601  0.6762
10582TIP3   OH231698   7.802   5.291   1.496 -0.0694  0.0432 -0.0100
10582TIP3    H131699   7.736   5.227   1.521 -0.4253 -0.4135 -2.0092
10582TIP3    H231700   7.826   5.334   1.578 -0.0904 -2.3721  1.3126
10583TIP3   OH231701   6.250   2.324   1.163 -0.5825  0.0793 -0.4174
10583TIP3    H131702   6.267   2.324   1.069  1.4242 -0.9207 -0.0801
10583TIP3    H231703   6.331   2.357   1.202 -0.5965 -1.5673  1.0678
10584TIP3   OH231704   7.173   2.482   0.629  0.6533  0.5294 -0.4950
10584TIP3    H131705   7.237   2.445   0.689 -0.3963  0.3225  0.5149
10584TIP3    H231706   7.137   2.558   0.675  0.0241  0.5263 -0.9596
10585TIP3   OH231707   7.830   2.471   1.749  0.2407  0.4341 -0.0408
10585TIP3    H131708   7.769   2.503   1.683  0.3426  0.7458  0.0171
10585TIP3    H231709   7.784   2.399   1.792 -0.5256  1.3976  0.7711
10586TIP3   OH231710   0.474   6.473   5.952  0.0114 -0.3233  0.3330
10586TIP3    H131711   0.395   6.474   5.897 -0.0550 -2.1708  0.3687
10586TIP3    H231712   0.439   6.471   6.042  0.1079  0.1220  0.3804
10587TIP3   OH231713   5.138   7.213   5.866 -0.0444 -0.2640  0.1012
10587TIP3    H131714   5.060   7.169   5.833  0.3539  0.3369 -1.6791
10587TIP3    H231715   5.210   7.153   5.846  0.4743  1.0490 -2.1576
10588TIP3   OH231716   5.538   0.446   6.164 -0.0144 -0.2517  0.8082
10588TIP3    H131717   5.597   0.519   6.147  1.4884 -1.4211  0.8460
10588TIP3    H231718   5.570   0.375   6.108 -1.2244 -0.9904  1.0249
10589TIP3   OH231719   7.684   0.640   0.822 -0.5669 -0.3615 -0.1128
10589TIP3    H131720   7.669   0.677   0.735  0.0763  1.0646  0.3717
10589TIP3    H231721   7.647   0.705   0.882  4.4926  1.7644  0.9899
10590TIP3   OH231722   6.007   1.654   6.277 -0.1761  0.2911 -0.3404
10590TIP3    H131723   5.958   1.706   6.214 -1.5940 -1.5012 -0.7545
10590TIP3    H231724   5.941   1.599   6.320  1.1917 -0.7422  0.5145
10591TIP3   OH231725   4.920   5.931   3.554 -0.5533 -0.0885  0.0682
10591TIP3    H131726   4.832   5.894   3.567 -0.6996  0.2706  0.1031
10591TIP3    H231727   4.978   5.870   3.599 -0.7502 -0.5190 -0.2633
10592TIP3   OH231728   5.503   0.162   5.291 -0.5498  0.0475  0.2997
10592TIP3    H131729   5.584   0.205   5.317 -0.7807  0.5331  0.2307
10592TIP3    H231730   5.524   0.119   5.208 -0.1350 -0.5343  0.7036
10593TIP3   OH231731   5.273   6.070   5.618  0.0647 -0.1833 -0.2706
10593TIP3    H131732   5.296   6.004   5.552  0.1443  0.4728 -0.9165
10593TIP3    H231733   5.178   6.068   5.622  0.0752 -0.4472 -0.1745
10594TIP3   OH231734   7.094   3.202   0.224  0.0178  0.2431  0.2119
10594TIP3    H131735   7.073   3.154   0.304 -0.1886 -0.4105 -0.2370
10594TIP3    H231736   7.187   3.226   0.234  1.3054 -3.7694 -1.3753
10595TIP3   OH231737   6.646   0.082   6.216  0.4918 -0.0608  0.0076
10595TIP3    H131738   6.687   0.032   6.145  0.9519 -1.6214  1.3417
10595TIP3    H231739   6.553   0.086   6.192 -0.0662 -3.9417  1.1712
10596TIP3   OH231740   3.397   4.739   5.345 -0.5849  0.0680 -0.0660
10596TIP3    H131741   3.433   4.796   5.277  1.2563  1.5736  2.1057
10596TIP3    H231742   3.305   4.762   5.350 -0.8273 -0.3494 -2.3246
10597TIP3   OH231743   4.455   7.140   4.971  0.1524  0.1111 -0.5517
10597TIP3    H131744   4.445   7.065   4.912 -1.3278  1.1102 -1.6311
10597TIP3    H231745   4.425   7.215   4.919  1.0207  1.3555  0.7126
10598TIP3   OH231746   0.385   4.768   0.782  0.0624  0.7395 -0.4803
10598TIP3    H131747   0.476   4.787   0.803 -0.4772  1.8841  0.8572
10598TIP3    H231748   0.374   4.803   0.693  0.5560  1.8313 -0.1212
10599TIP3   OH231749   2.476   6.981   3.151 -0.2314  0.0030 -0.1219
10599TIP3    H131750   2.511   6.896   3.124 -1.3118 -0.6710  0.5639
10599TIP3    H231751   2.468   7.030   3.069  1.3107 -0.1914 -0.4152
10600TIP3   OH231752   3.863   7.252   2.240 -0.1778 -0.4352  0.0574
10600TIP3    H131753   3.826   7.340   2.248  0.2914  0.0345 -2.4776
10600TIP3    H231754   3.792   7.194   2.268 -0.4806  0.7370  1.7924
10601TIP3   OH231755   6.643   0.706   5.549 -0.9510  0.2236 -0.0311
10601TIP3    H131756   6.585   0.687   5.622 -0.6248  1.4883  0.5581
10601TIP3    H231757   6.632   0.799   5.532  1.4032  0.6344  0.5360
10602TIP3   OH231758   0.346   3.000   0.765  0.1521 -0.5057 -0.4000
10602TIP3    H131759   0.314   3.084   0.732  2.5519  1.1852  1.4175
10602TIP3    H231760   0.308   2.994   0.853  1.7591 -0.2447  0.3237
10603TIP3   OH231761   4.838   6.957   2.173  0.4101  0.0978 -0.6909
10603TIP3    H131762   4.764   6.912   2.132 -0.6208 -1.1158  2.3481
10603TIP3    H231763   4.838   7.045   2.134 -0.6687 -0.9071 -3.0187
10604TIP3   OH231764   6.941   4.400   0.923 -0.4671 -0.4093  0.0256
10604TIP3    H131765   7.009   4.343   0.959  0.3520  0.4748 -0.1002
10604TIP3    H231766   6.878   4.411   0.994  0.0037 -0.4751  0.4566
10605TIP3   OH231767   3.786   6.653   6.148 -0.0176 -0.8132 -0.6527
10605TIP3    H131768   3.807   6.680   6.058  1.4807 -0.7578 -0.2987
10605TIP3    H231769   3.837   6.712   6.203 -1.2469 -0.5885  0.2464
10606TIP3   OH231770   5.028  -0.003   5.221  0.0821  0.0700  0.1360
10606TIP3    H131771   4.998  -0.050   5.144  0.5775 -0.5828  0.3379
10606TIP3    H231772   4.993   0.085   5.211  0.4372  0.0812 -0.9986
10607TIP3   OH231773   0.730   0.911   1.803 -0.1197 -0.2110 -0.4499
10607TIP3    H131774   0.660   0.916   1.738 -1.0540 -0.7115  0.5182
10607TIP3    H231775   0.697   0.961   1.878 -0.3381 -2.2019  0.8210
10608TIP3   OH231776   0.694   1.428   0.211 -0.0967  0.3967 -0.2804
10608TIP3    H131777   0.653   1.474   0.138 -0.1078  0.5923 -0.1514
10608TIP3    H231778   0.788   1.437   0.195 -0.0944 -1.5909 -1.5433
10609TIP3   OH231779   5.256   2.778   5.052  0.0588  0.2744  0.0315
10609TIP3    H131780   5.227   2.733   4.973 -0.5874  1.9421 -0.6888
10609TIP3    H231781   5.293   2.708   5.106 -2.1354 -1.3664 -0.4937
10610TIP3   OH231782   7.507   2.470   0.686  0.3693 -0.2242 -0.6095
10610TIP3    H131783   7.529   2.560   0.709 -0.8927  0.1239 -0.7551
10610TIP3    H231784   7.575   2.444   0.624  2.3652 -0.3194  1.5304
10611TIP3   OH231785   0.643   7.446   4.957 -0.5003 -0.7079 -0.6338
10611TIP3    H131786   0.716   7.439   4.896  0.1360 -1.2593  0.1940
10611TIP3    H231787   0.662   7.383   5.026 -0.9098  0.3358  0.4529
10612TIP3   OH231788   0.766   3.134   0.760  0.0632  0.0932  0.5317
10612TIP3    H131789   0.715   3.169   0.833 -1.8030 -0.4852 -0.4602
10612TIP3    H231790   0.852   3.174   0.769 -0.9661  2.1347  1.4684
10613TIP3   OH231791   7.330   2.914   0.295  0.2247 -0.1408  0.4257
10613TIP3    H131792   7.395   2.847   0.316  0.9114 -0.1407 -1.6156
10613TIP3    H231793   7.250   2.866   0.278 -0.1768 -0.1856  2.2959
10614TIP3   OH231794   7.028   1.957   5.563 -0.3711  0.0524  0.2238
10614TIP3    H131795   7.061   1.923   5.647  0.3686  0.1746 -0.0067
10614TIP3    H231796   7.102   2.007   5.528 -0.2871 -0.9531 -1.0430
10615TIP3   OH231797   6.968   4.960   0.142 -0.2284 -0.5659  1.2115
10615TIP3    H131798   7.032   5.029   0.127 -1.2195 -0.0085 -0.5302
10615TIP3    H231799   6.991   4.891   0.080 -0.1481 -1.1806  1.9162
10616TIP3   OH231800   4.771   1.916   4.411 -0.4289 -0.4284 -0.3927
10616TIP3    H131801   4.835   1.983   4.389 -1.6233  0.5820 -0.8278
10616TIP3    H231802   4.821   1.834   4.410  1.2706  0.5499  1.2066
10617TIP3   OH231803   2.340   5.940   3.121  0.2173 -0.6497 -0.2217
10617TIP3    H131804   2.269   5.878   3.135  1.2023 -1.7654 -0.1205
10617TIP3    H231805   2.307   6.023   3.158 -0.7726 -1.3039  0.3908
10618TIP3   OH231806   4.651   0.041   6.251 -0.7396  0.0414 -0.8405
10618TIP3    H131807   4.738   0.021   6.217 -1.3307 -0.3434 -2.1470
10618TIP3    H231808   4.636   0.132   6.227 -0.8488 -0.0014 -0.9322
10619TIP3   OH231809   7.565   4.830   5.384  0.1923  0.0334  0.5870
10619TIP3    H131810   7.500   4.895   5.408  1.2556  1.2629  0.1771
10619TIP3    H231811   7.549   4.814   5.291  0.8259  0.7490  0.3514
10620TIP3   OH231812   2.012   3.833   5.866 -0.4632  0.0398 -0.3948
10620TIP3    H131813   2.045   3.796   5.784 -0.0014 -1.9123  0.6410
10620TIP3    H231814   1.948   3.899   5.838  1.0869  0.7757 -2.3534
10621TIP3   OH231815   3.086   5.842   5.753 -0.0210  0.2318  0.6417
10621TIP3    H131816   3.117   5.759   5.715 -0.9462  1.2014 -2.3284
10621TIP3    H231817   3.117   5.909   5.692 -1.9373  1.8180  1.3849
10622TIP3   OH231818   3.354   7.369   5.461 -0.2906  0.4325  0.6398
10622TIP3    H131819   3.337   7.300   5.396 -1.5728  1.1296  0.2215
10622TIP3    H231820   3.366   7.322   5.543  0.1905 -0.3846  0.1146
10623TIP3   OH231821   1.483   4.902   5.999  0.0078  0.1807 -0.1036
10623TIP3    H131822   1.550   4.863   5.943 -0.0406 -1.7577  1.1291
10623TIP3    H231823   1.522   4.903   6.086 -1.6486 -1.2423  0.6869
10624TIP3   OH231824   3.225   5.726   6.201 -0.3549  0.4558 -0.5307
10624TIP3    H131825   3.147   5.700   6.251 -0.6709  3.3526  0.5720
10624TIP3    H231826   3.293   5.736   6.268  0.3495  0.1994 -1.2121
10625TIP3   OH231827   1.645   4.066   6.377  0.2059 -0.2456  0.5456
10625TIP3    H131828   1.675   4.071   6.286  1.8967  1.4398  1.1391
10625TIP3    H231829   1.551   4.049   6.371  0.2097  0.3222 -1.5288
10626TIP3   OH231830   6.077   1.861   0.704  0.1896 -0.1578 -0.3943
10626TIP3    H131831   6.030   1.789   0.744  1.2968  0.3142  1.8785
10626TIP3    H231832   6.161   1.823   0.677  0.7709  0.2593  0.8001
10627TIP3   OH231833   1.549   3.181   0.050 -0.6497 -0.0960  0.4851
10627TIP3    H131834   1.565   3.137  -0.033 -0.6540  2.4263 -0.8855
10627TIP3    H231835   1.483   3.127   0.094  0.5719 -2.3538 -0.4009
10628TIP3   OH231836   5.056   0.845   6.221 -0.1064  0.6174 -0.8759
10628TIP3    H131837   5.072   0.755   6.193 -0.6130  0.5063 -0.8050
10628TIP3    H231838   4.980   0.839   6.279  1.6036  0.6462  1.4729
10629TIP3   OH231839   2.891   6.626   3.568  0.1618  0.6771 -0.0127
10629TIP3    H131840   2.802   6.659   3.552 -0.4130 -1.1482 -0.6860
10629TIP3    H231841   2.889   6.596   3.659  0.4594  1.7470  0.3559
10630TIP3   OH231842   0.786   6.984   6.165 -0.2619 -0.1529 -0.0921
10630TIP3    H131843   0.814   7.055   6.108 -0.3844  0.4268  0.5625
10630TIP3    H231844   0.822   6.905   6.124 -0.8420  0.1892 -1.2734
10631TIP3   OH231845   1.018   3.430   5.693  0.0989  0.0557  0.0708
10631TIP3    H131846   1.026   3.338   5.666 -0.6422 -0.2895  1.0025
10631TIP3    H231847   0.924   3.448   5.691  0.1301  0.3972  1.1553
10632TIP3   OH231848   7.537   1.793   2.442 -0.2916  0.3181 -1.0270
10632TIP3    H131849   7.512   1.743   2.520 -0.5816  1.7604 -0.1608
10632TIP3    H231850   7.456   1.800   2.391  0.1518 -1.5744 -2.0205
10633TIP3   OH231851   3.402   7.157   0.594  0.2193 -0.3726  0.2452
10633TIP3    H131852   3.357   7.120   0.519  0.3789 -1.0975  0.5088
10633TIP3    H231853   3.478   7.101   0.608  0.6120  0.2033  0.4791
10634TIP3   OH231854   6.883   1.161   0.320  0.3132  0.0328  0.0302
10634TIP3    H131855   6.791   1.187   0.318  0.1754 -0.4256  0.4893
10634TIP3    H231856   6.883   1.071   0.286  0.5369 -0.1237  0.4382
10635TIP3   OH231857   1.692   5.773   4.785  0.3103 -0.3687  0.1812
10635TIP3    H131858   1.765   5.712   4.778  2.4708  2.0679  0.9225
10635TIP3    H231859   1.635   5.750   4.712  3.2018 -0.5522 -2.1002
10636TIP3   OH231860   2.504   6.191   5.470 -0.1919 -0.2401  0.6635
10636TIP3    H131861   2.539   6.203   5.559 -1.3674 -0.7930  1.2121
10636TIP3    H231862   2.538   6.107   5.442 -0.8587 -0.6582  1.0953
10637TIP3   OH231863   0.896   6.745   3.812  0.0134 -0.5501 -0.0897
10637TIP3    H131864   0.949   6.812   3.768  0.6011 -0.2971  0.9708
10637TIP3    H231865   0.911   6.665   3.762 -0.1108 -0.0476 -0.9307
10638TIP3   OH231866   2.546   4.660   5.616 -0.0962 -0.4991 -0.1584
10638TIP3    H131867   2.640   4.645   5.632 -0.1337  0.3637  0.9341
10638TIP3    H231868   2.531   4.624   5.529  1.2568 -0.6708 -0.3375
10639TIP3   OH231869   2.042   6.229   5.579  0.3253  0.3146 -0.5343
10639TIP3    H131870   2.111   6.180   5.534 -0.7907  0.4961 -2.5419
10639TIP3    H231871   2.084   6.311   5.606  1.8184 -1.0965  1.5351
10640TIP3   OH231872   7.149   1.271   5.225  0.5100  0.2424  0.0824
10640TIP3    H131873   7.079   1.310   5.278 -0.4050  0.5057 -1.3031
10640TIP3    H231874   7.230   1.303   5.265 -0.0942 -1.3334  2.6777
10641TIP3   OH231875   7.068   4.072   0.199  0.5017  0.4669  1.0445
10641TIP3    H131876   7.078   4.115   0.284  1.2598  0.6360  0.8760
10641TIP3    H231877   7.027   3.988   0.219 -0.1053  0.8726  1.4827
10642TIP3   OH231878   6.927   2.368   0.034 -0.2992 -0.0953  0.4892
10642TIP3    H131879   7.019   2.391   0.044  0.0645 -1.0766 -0.4321
10642TIP3    H231880   6.898   2.417  -0.043 -0.1800 -0.7922 -0.0075
10643TIP3   OH231881   2.430   5.775   6.437  0.0408 -0.0428  0.0553
10643TIP3    H131882   2.422   5.683   6.462  0.3805 -0.0124  0.2820
10643TIP3    H231883   2.479   5.773   6.354  0.3584 -0.0465  0.2418
10644TIP3   OH231884   1.295   5.933   5.797 -0.4968  0.6879  0.2338
10644TIP3    H131885   1.345   5.990   5.855  1.2126 -0.3710 -0.1520
10644TIP3    H231886   1.292   5.848   5.842 -0.7139  0.3585 -0.3889
10645TIP3   OH231887   0.430   2.055   0.290  0.2662  0.0625 -0.3153
10645TIP3    H131888   0.469   1.968   0.297  1.9657  0.6460 -2.3206
10645TIP3    H231889   0.439   2.092   0.378 -1.2730 -2.0739  0.8120
10646TIP3   OH231890   6.481   0.088   4.387  0.7768  0.0310 -0.1522
10646TIP3    H131891   6.461  -0.000   4.419  0.4522 -0.0318 -0.5282
10646TIP3    H231892   6.544   0.073   4.316  3.0229  0.2874  1.7226
10647TIP3   OH231893   2.984   6.829   4.836 -1.0963  0.2811  0.2754
10647TIP3    H131894   2.901   6.842   4.790 -1.0657  0.3631  0.2431
10647TIP3    H231895   2.964   6.764   4.904 -0.7981 -0.9562 -0.7987
10648TIP3   OH231896   1.105   1.917   0.141  0.1249  0.4902 -0.7785
10648TIP3    H131897   1.113   1.970   0.220 -1.1292  1.1211 -1.0749
10648TIP3    H231898   1.034   1.957   0.091 -1.1864 -1.7412 -0.7653
10649TIP3   OH231899   3.216   5.060   4.654  0.1760 -0.2327 -0.5569
10649TIP3    H131900   3.265   5.088   4.731  1.4438 -0.2442 -1.3387
10649TIP3    H231901   3.181   5.141   4.617 -2.3989 -0.4356  1.2902
10650TIP3   OH231902   0.347   5.463   4.669 -0.1589  0.4042 -0.4226
10650TIP3    H131903   0.391   5.493   4.748 -1.8555 -0.7172  0.9829
10650TIP3    H231904   0.265   5.512   4.668 -1.8100 -2.2392  0.5380
10651TIP3   OH231905   2.970   5.916   5.468 -0.3834  0.6735  0.1197
10651TIP3    H131906   3.061   5.906   5.438 -0.8425  0.1814 -1.1735
10651TIP3    H231907   2.932   5.978   5.406 -1.1859  0.1365  0.0665
10652TIP3   OH231908   1.356   6.463   4.766 -0.5350 -0.2298  0.3310
10652TIP3    H131909   1.350   6.380   4.814 -1.0753 -1.0395 -1.1104
10652TIP3    H231910   1.265   6.490   4.753 -0.3703  0.4191  0.4718
10653TIP3   OH231911   4.124   0.363   6.194  0.3949  0.2501  0.5281
10653TIP3    H131912   4.163   0.301   6.255  1.3911 -0.1970 -0.5490
10653TIP3    H231913   4.199   0.403   6.150 -0.2837  1.3332  0.3403
10654TIP3   OH231914   0.622   3.239   0.044 -0.1775 -0.2702  0.4362
10654TIP3    H131915   0.546   3.232   0.102 -0.0623 -0.9823  0.5143
10654TIP3    H231916   0.625   3.154  -0.001 -0.6067  0.4770 -1.0404
10655TIP3   OH231917   4.240   5.740   5.059  0.2660  0.0685 -0.2794
10655TIP3    H131918   4.335   5.752   5.049  0.5481  1.2600  3.2053
10655TIP3    H231919   4.226   5.646   5.045  1.8813 -0.0493 -1.2320
10656TIP3   OH231920   7.709   1.150   5.076  0.1573 -0.1264 -0.5250
10656TIP3    H131921   7.638   1.139   5.139 -0.1493 -0.1612 -0.8759
10656TIP3    H231922   7.688   1.231   5.030  0.9982  0.5234  0.2065
10657TIP3   OH231923   4.334   6.356   3.571  0.4362 -0.2287  0.5011
10657TIP3    H131924   4.260   6.346   3.631  1.7880  1.0192  2.4358
10657TIP3    H231925   4.314   6.434   3.520  1.3010  1.2788  2.4055
10658TIP3   OH231926   1.597   5.528   5.672  0.1187  0.6778 -0.0974
10658TIP3    H131927   1.691   5.537   5.688  0.2613 -0.0480 -0.4995
10658TIP3    H231928   1.568   5.615   5.646  0.9003  0.6471 -1.0874
10659TIP3   OH231929   6.510   0.660   5.293 -0.6782 -0.3523  0.3441
10659TIP3    H131930   6.520   0.565   5.283 -0.1060 -0.3207  0.6081
10659TIP3    H231931   6.534   0.677   5.384  0.4112  0.2038 -0.0350
10660TIP3   OH231932   4.288   0.191   5.557  0.3107 -0.1045  0.1951
10660TIP3    H131933   4.250   0.128   5.496  1.7702  1.1963 -2.1603
10660TIP3    H231934   4.321   0.262   5.501  2.3993  0.7807  2.4256
10661TIP3   OH231935   2.410   6.446   6.230 -0.0001  0.0427 -0.1809
10661TIP3    H131936   2.412   6.432   6.325 -0.2161 -1.5722 -0.3907
10661TIP3    H231937   2.317   6.442   6.207  0.1084 -0.3372 -0.5640
10662TIP3   OH231938   7.328   4.959   0.901 -0.6096  0.1977 -0.6661
10662TIP3    H131939   7.366   5.043   0.872 -0.4237  0.9404  1.6694
10662TIP3    H231940   7.384   4.893   0.859  0.2195  1.2501 -1.2617
10663TIP3   OH231941   3.766   5.162   5.743  0.7790  0.2133  0.2981
10663TIP3    H131942   3.854   5.138   5.715  0.9086 -2.2213  2.6379
10663TIP3    H231943   3.710   5.138   5.668  1.5116 -3.1268  0.7292
10664TIP3   OH231944   1.888   6.895   1.547  0.3129  0.4402  0.1384
10664TIP3    H131945   1.877   6.941   1.465  1.1303  0.4444  0.0265
10664TIP3    H231946   1.814   6.923   1.601 -0.2123  0.4522 -0.5826
10665TIP3   OH231947   3.969   6.685   5.957  0.5347  0.1579  0.6979
10665TIP3    H131948   4.039   6.658   5.898 -0.6383 -0.9670 -0.2240
10665TIP3    H231949   3.936   6.767   5.919 -0.3793 -0.6910 -0.3801
10666TIP3   OH231950   0.878   2.933   0.048  0.2017 -0.1103 -0.0937
10666TIP3    H131951   0.877   2.879  -0.031  2.2143  0.1992 -0.3672
10666TIP3    H231952   0.907   2.874   0.118  0.4259  0.1173  0.0082
10667TIP3   OH231953   4.058   7.183   3.355 -0.0339 -0.0958 -0.5603
10667TIP3    H131954   3.970   7.215   3.334 -0.1614 -0.7265 -0.9770
10667TIP3    H231955   4.108   7.194   3.274 -0.0874 -0.9985 -0.7175
10668TIP3   OH231956   7.736   2.211   0.751 -0.1731  0.2181 -0.3484
10668TIP3    H131957   7.803   2.214   0.820  0.4881  3.4179 -1.0341
10668TIP3    H231958   7.785   2.191   0.671 -0.2999  0.8483 -0.5823
10669TIP3   OH231959   3.229   5.856   5.389  0.3262  0.7524 -0.1735
10669TIP3    H131960   3.249   5.912   5.464  0.8053  0.4966 -0.1108
10669TIP3    H231961   3.313   5.844   5.345  0.3298 -0.3453  0.1034
10670TIP3   OH231962   4.611   0.692   6.421 -1.3085 -0.4017  0.5085
10670TIP3    H131963   4.639   0.706   6.331 -1.0952 -0.2973  0.5916
10670TIP3    H231964   4.516   0.680   6.415 -1.2966 -0.3752  0.2731
10671TIP3   OH231965   4.466   0.147   5.182  0.4842 -0.2547 -0.0962
10671TIP3    H131966   4.535   0.149   5.248  1.3360 -0.7909 -0.9410
10671TIP3    H231967   4.440   0.238   5.171  2.0946  0.1434 -0.8064
10672TIP3   OH231968   2.306   6.178   5.262  0.7556  0.0076 -0.2205
10672TIP3    H131969   2.343   6.101   5.219  1.2695 -0.3941  0.9039
10672TIP3    H231970   2.372   6.202   5.328 -0.8547 -0.5475  1.6395
10673TIP3   OH231971   7.439   0.072   5.223 -0.0269  0.8083  0.0729
10673TIP3    H131972   7.461   0.145   5.166  1.4203 -0.3344 -0.8774
10673TIP3    H231973   7.485   0.090   5.305 -0.5974  1.5103  0.2466
10674TIP3   OH231974   2.766   6.424   6.260  0.0944  0.3704 -0.5134
10674TIP3    H131975   2.767   6.407   6.166 -1.0758  0.7315 -0.6062
10674TIP3    H231976   2.744   6.517   6.267  0.4953  0.4198  0.1074
10675TIP3   OH231977   7.806   2.991   1.000  0.0638  0.3829  0.1803
10675TIP3    H131978   7.884   3.044   0.983 -0.2636  0.8870  0.2784
10675TIP3    H231979   7.733   3.044   0.970 -0.1896 -0.4071 -0.6434
10676TIP3   OH231980   1.468   5.161   4.120 -0.0789  0.1789 -0.1677
10676TIP3    H131981   1.373   5.158   4.106 -0.0758  0.2387 -0.2028
10676TIP3    H231982   1.479   5.149   4.214 -0.0438 -1.3294 -0.3507
10677TIP3   OH231983   2.042   6.282   5.859  0.9669 -0.0576 -0.2466
10677TIP3    H131984   2.033   6.200   5.908  0.5717  0.5083  0.6520
10677TIP3    H231985   2.015   6.261   5.770 -0.9615 -0.4595  0.4133
10678TIP3   OH231986   1.694   6.399   5.093  0.5952  0.3316 -0.1066
10678TIP3    H131987   1.727   6.390   5.183 -1.6853 -0.4655  0.7018
10678TIP3    H231988   1.704   6.492   5.073  0.3271  0.6868  1.3172
10679TIP3   OH231989   0.898   1.553   1.645  0.0773  0.3503 -0.1655
10679TIP3    H131990   0.964   1.504   1.595 -0.7677 -0.6936 -0.2707
10679TIP3    H231991   0.850   1.485   1.693 -0.5543  1.1585  0.3443
10680TIP3   OH231992   0.959   6.077   5.420  0.3202 -0.6187  0.0150
10680TIP3    H131993   0.914   6.104   5.500  1.0988 -0.4286  0.3895
10680TIP3    H231994   0.970   5.982   5.430  0.2444 -0.6250  0.0447
10681TIP3   OH231995   4.730   6.533   0.739  0.0627  0.6592 -0.8046
10681TIP3    H131996   4.778   6.480   0.675 -0.1348  1.4844 -1.6398
10681TIP3    H231997   4.640   6.534   0.708 -0.3060 -0.0182  0.2004
10682TIP3   OH231998   3.843   2.685   1.714 -0.4881  0.0903 -0.0068
10682TIP3    H131999   3.895   2.715   1.640  0.1846 -1.2820 -0.1045
10682TIP3    H232000   3.814   2.597   1.690 -1.0462 -0.0026  0.9533
10683TIP3   OH232001   2.463   2.367   1.599 -0.5473 -0.1787 -0.2919
10683TIP3    H132002   2.484   2.301   1.532 -1.7051  0.4192 -1.2767
10683TIP3    H232003   2.510   2.445   1.571  1.4286 -0.7830  1.2879
10684TIP3   OH232004   6.673   2.261   4.846  0.7106  0.1750  0.3318
10684TIP3    H132005   6.625   2.310   4.913 -0.4102  1.7681 -1.5737
10684TIP3    H232006   6.752   2.313   4.831  1.3007 -0.5465  0.8848
10685TIP3   OH232007   0.741   1.750   5.584  0.0616  0.2934  0.2326
10685TIP3    H132008   0.652   1.716   5.592 -0.4933  1.4617 -0.8156
10685TIP3    H232009   0.787   1.683   5.533 -0.1913 -0.3511  0.8393
10686TIP3   OH232010   6.543   1.082   5.998 -0.1091 -0.0759  0.1712
10686TIP3    H132011   6.517   1.094   6.089  2.1432  1.8261  0.5998
10686TIP3    H232012   6.513   1.161   5.953  0.0274 -0.3689 -0.4471
10687TIP3   OH232013   3.639   2.601   6.434 -0.3997 -0.9203  0.1867
10687TIP3    H132014   3.697   2.640   6.499  1.9248 -2.4968 -0.9081
10687TIP3    H232015   3.586   2.675   6.403 -0.3799  0.1665  2.5978
10688TIP3   OH232016   1.618   6.263   4.847 -0.9736 -0.2689 -0.5060
10688TIP3    H132017   1.568   6.189   4.882 -0.7742 -0.4234 -0.5398
10688TIP3    H232018   1.648   6.310   4.924 -0.9409 -0.3336 -0.4782
10689TIP3   OH232019   6.496   2.916   0.276 -0.7193 -0.2000 -0.1752
10689TIP3    H132020   6.500   2.914   0.180  2.7711  2.0072 -0.1344
10689TIP3    H232021   6.465   3.004   0.297  0.3056 -0.0534  0.7443
10690TIP3   OH232022   7.602   6.827   3.104 -0.0379 -0.6461  0.4119
10690TIP3    H132023   7.697   6.840   3.106  0.1194 -1.5670 -0.5680
10690TIP3    H232024   7.572   6.885   3.034 -0.2730  0.1077  1.1402
10691TIP3   OH232025   6.945   0.174   6.217 -0.2592  0.1525  0.4768
10691TIP3    H132026   6.850   0.164   6.209 -0.5006  1.3864  1.5115
10691TIP3    H232027   6.974   0.092   6.257 -1.1479  0.5001  1.8755
10692TIP3   OH232028   4.974   0.559   5.146  0.4080  0.2559  0.6056
10692TIP3    H132029   5.018   0.539   5.064 -0.6912 -1.3300  0.3746
10692TIP3    H232030   5.007   0.645   5.171  3.9859 -1.0336  0.6771
10693TIP3   OH232031   5.456   0.010   3.781  0.4940 -0.0915  0.5844
10693TIP3    H132032   5.388  -0.048   3.747  0.5581  0.2515 -0.1288
10693TIP3    H232033   5.416   0.097   3.781  2.3423  0.9159 -4.0870
10694TIP3   OH232034   3.671   6.867   4.254  0.6408  0.5125 -0.1724
10694TIP3    H132035   3.584   6.837   4.228 -0.0093  0.2081  2.2947
10694TIP3    H232036   3.676   6.957   4.222  0.0821 -0.0007 -1.7780
10695TIP3   OH232037   3.188   4.977   5.322 -0.1822  0.1127 -0.0309
10695TIP3    H132038   3.236   4.967   5.241 -2.0266  1.0819 -1.2884
10695TIP3    H232039   3.170   5.071   5.328 -1.6498 -0.1883  0.5403
10696TIP3   OH232040   3.347   6.728   4.488 -0.1302 -0.7616 -0.0106
10696TIP3    H132041   3.321   6.654   4.543  1.8567 -1.4562  0.0341
10696TIP3    H232042   3.264   6.762   4.453 -1.3063 -1.2229  2.2110
10697TIP3   OH232043   1.965   7.289   5.668 -0.2007 -0.0366 -0.1138
10697TIP3    H132044   2.028   7.220   5.688 -0.6762 -0.6446 -0.6717
10697TIP3    H232045   2.008   7.342   5.601  0.9435  1.3493  1.7000
10698TIP3   OH232046   2.733   7.305   5.510  0.1781  0.1887  0.2421
10698TIP3    H132047   2.672   7.232   5.514 -1.0349  1.2158  0.9747
10698TIP3    H232048   2.678   7.381   5.487  1.4430  0.8330 -0.7381
10699TIP3   OH232049   5.580   2.332   0.769 -0.3661  0.0859  0.2341
10699TIP3    H132050   5.639   2.258   0.786  0.3238 -0.2081 -3.1593
10699TIP3    H232051   5.493   2.294   0.775 -0.1449 -0.2548  1.6846
10700TIP3   OH232052   7.546   1.396   1.129 -0.0901 -0.4662  0.6947
10700TIP3    H132053   7.584   1.482   1.142 -0.9646 -0.0101  0.3030
10700TIP3    H232054   7.593   1.339   1.190  0.2260  0.3630  1.2282
10701TIP3   OH232055   1.048   6.390   5.613 -0.1425 -0.4123 -0.0482
10701TIP3    H132056   1.065   6.461   5.551 -1.1766 -1.0021 -1.0393
10701TIP3    H232057   1.129   6.339   5.614  0.3127  0.3011  0.0316
10702TIP3   OH232058   4.487   7.039   3.452  0.4325  0.0110  1.0400
10702TIP3    H132059   4.428   6.963   3.455 -1.0011  1.1080  1.3388
10702TIP3    H232060   4.459   7.093   3.526  1.4776  0.8014  0.8602
10703TIP3   OH232061   2.852   6.003   5.705  0.5510  0.7096 -0.3086
10703TIP3    H132062   2.890   5.964   5.783 -1.7164  1.3834  1.2057
10703TIP3    H232063   2.896   5.961   5.632  0.3780 -2.3857  1.3073
10704TIP3   OH232064   7.868   1.422   0.198  0.3311  0.8322 -0.5495
10704TIP3    H132065   7.853   1.516   0.214  0.8119  0.9439 -0.7334
10704TIP3    H232066   7.956   1.419   0.159  0.6023  0.2389  0.1005
10705TIP3   OH232067   0.746   3.203   0.489  0.3585 -0.5050 -0.2182
10705TIP3    H132068   0.755   3.177   0.581 -1.1514  2.1256  0.7198
10705TIP3    H232069   0.836   3.214   0.459  0.8838  3.4990  2.4673
10706TIP3   OH232070   2.049   7.150   6.198 -0.1082 -0.2306  0.0841
10706TIP3    H132071   1.979   7.091   6.225 -0.9996  0.9531  0.3720
10706TIP3    H232072   2.033   7.167   6.106 -1.5667  1.8452  0.6718
10707TIP3   OH232073   1.402   6.424   5.367  0.3136  0.0018 -0.2767
10707TIP3    H132074   1.348   6.351   5.398 -1.8048  1.4477 -0.4501
10707TIP3    H232075   1.431   6.397   5.280 -0.4701 -0.6533 -0.3461
10708TIP3   OH232076   0.129   2.593   1.877  0.0697  0.2185 -0.3629
10708TIP3    H132077   0.070   2.547   1.816 -0.4718  0.8361 -0.3090
10708TIP3    H232078   0.077   2.602   1.957  0.6368 -0.2325  0.0602
10709TIP3   OH232079   6.624   0.411   0.889  0.0670  0.6863  0.4151
10709TIP3    H132080   6.707   0.367   0.907 -1.7854 -3.2009 -0.1354
10709TIP3    H232081   6.650   0.497   0.854  3.8945 -1.3972 -2.2171
10710TIP3   OH232082   7.290   3.854   1.368  0.2834 -0.1809  0.0416
10710TIP3    H132083   7.200   3.828   1.389  0.6073 -1.8199 -0.4905
10710TIP3    H232084   7.344   3.786   1.408  1.2241  0.2031 -0.5558
10711TIP3   OH232085   4.370   7.137   6.402  0.8107  0.8122 -0.3778
10711TIP3    H132086   4.279   7.143   6.373  0.8138  2.6894 -0.0163
10711TIP3    H232087   4.394   7.045   6.386 -0.5513  0.7583 -2.2030
10712TIP3   OH232088   0.694   2.219   1.232  0.1005 -0.6281  0.6408
10712TIP3    H132089   0.766   2.157   1.227  1.1224  0.5952 -0.0341
10712TIP3    H232090   0.723   2.295   1.180 -1.5576 -0.0264  0.5473
10713TIP3   OH232091   5.199   1.292   6.273 -0.1162 -0.4778 -0.8390
10713TIP3    H132092   5.181   1.218   6.216  0.9554 -1.2042 -0.2495
10713TIP3    H232093   5.292   1.285   6.295 -0.4871 -0.2132  0.9682
10714TIP3   OH232094   0.095   2.636   0.431 -0.4123  0.1018  0.0471
10714TIP3    H132095   0.177   2.681   0.450 -1.0070  1.1833  0.0550
10714TIP3    H232096   0.121   2.564   0.373  0.6341  0.0228  0.6015
10715TIP3   OH232097   7.484   2.601   2.873  0.5716  0.0028 -0.1017
10715TIP3    H132098   7.514   2.691   2.889  0.0461  0.1268  0.2275
10715TIP3    H232099   7.436   2.606   2.790 -2.2061  0.7093  1.4899
10716TIP3   OH232100   3.909   0.721   3.080 -0.5215  0.6458 -0.0066
10716TIP3    H132101   3.823   0.723   3.037 -0.2760  0.8580 -0.4928
10716TIP3    H232102   3.934   0.628   3.079 -1.3764  0.3831  1.4129
10717TIP3   OH232103   1.318   5.244   5.349 -0.5235  0.8654 -0.5346
10717TIP3    H132104   1.357   5.178   5.291  1.4574  2.3641 -0.9455
10717TIP3    H232105   1.319   5.325   5.298 -3.4575  1.1448 -0.2338
10718TIP3   OH232106   2.438  -0.013   5.099 -0.3106  0.2471  0.3024
10718TIP3    H132107   2.531  -0.005   5.120 -0.0816 -1.3924 -0.0016
10718TIP3    H232108   2.409   0.076   5.081  2.0206  0.4119 -3.0233
10719TIP3   OH232109   3.186   1.213   5.968  0.0673 -0.4743 -0.5407
10719TIP3    H132110   3.229   1.294   5.940  0.6526 -0.8548 -0.7563
10719TIP3    H232111   3.243   1.178   6.036  0.1841 -1.0593 -0.9331
10720TIP3   OH232112   4.473   1.580   4.080 -0.0449 -0.4450 -0.1463
10720TIP3    H132113   4.471   1.529   4.161  1.6224  0.4759  0.5036
10720TIP3    H232114   4.486   1.671   4.110  0.5585 -0.1019 -1.4389
10721TIP3   OH232115   7.236   0.454   5.944 -0.3853 -0.0525  0.1845
10721TIP3    H132116   7.151   0.479   5.909 -0.5376  0.7065  1.0942
10721TIP3    H232117   7.226   0.362   5.968 -0.6322 -0.2543 -0.6814
10722TIP3   OH232118   6.354   4.036   0.245 -0.2557 -0.2523 -0.3773
10722TIP3    H132119   6.447   4.021   0.228 -0.4291 -0.3958 -1.2174
10722TIP3    H232120   6.319   4.064   0.161 -0.6663  1.3734  0.3079
10723TIP3   OH232121   1.226   2.816   1.291 -0.8815 -0.2892  0.3260
10723TIP3    H132122   1.312   2.831   1.251 -0.9118 -0.0072  0.3650
10723TIP3    H232123   1.222   2.722   1.305 -0.7409 -0.3507 -0.0466
10724TIP3   OH232124   2.997   6.890   6.293 -0.6565 -0.5845 -0.2752
10724TIP3    H132125   2.950   6.944   6.357 -2.2597 -2.5460  0.2796
10724TIP3    H232126   2.936   6.882   6.219 -0.5325 -1.7868 -0.2606
10725TIP3   OH232127   5.875   7.143   5.979  0.0948  0.2354 -0.4069
10725TIP3    H132128   5.863   7.119   6.071  0.8342 -2.2042 -0.9204
10725TIP3    H232129   5.889   7.060   5.934  3.8343  1.7017 -2.1207
10726TIP3   OH232130   4.892   5.922   5.736 -0.2591  0.4215 -0.1652
10726TIP3    H132131   4.903   6.017   5.728 -1.1280  0.4685 -0.8775
10726TIP3    H232132   4.870   5.893   5.647 -3.6998  0.0524  0.7420
10727TIP3   OH232133   1.084   3.529   0.163 -0.5545 -0.2795  0.8682
10727TIP3    H132134   1.163   3.550   0.114 -1.3845  0.9569  0.0131
10727TIP3    H232135   1.091   3.436   0.182  1.1088 -0.1773  0.8280
10728TIP3   OH232136   3.137   6.504   5.357  0.1883  0.0011  0.1427
10728TIP3    H132137   3.119   6.574   5.294  0.0569  1.0036  1.2835
10728TIP3    H232138   3.218   6.531   5.400  0.4623 -0.8545  0.1850
10729TIP3   OH232139   6.706   0.941   5.051  0.0141  0.4650  0.2690
10729TIP3    H132140   6.657   1.023   5.050 -3.0066 -1.2572  0.6559
10729TIP3    H232141   6.700   0.910   5.142  1.5550  0.0162  0.2474
10730TIP3   OH232142   1.862   6.116   4.167  0.2346 -0.2372 -0.3277
10730TIP3    H132143   1.939   6.136   4.221  0.1289  0.5904 -0.4738
10730TIP3    H232144   1.792   6.099   4.231  0.0929  0.8053 -0.2035
10731TIP3   OH232145   6.372   0.822   5.859  0.0257 -0.1601 -0.3555
10731TIP3    H132146   6.458   0.830   5.817  0.1489 -0.8228 -0.2376
10731TIP3    H232147   6.355   0.909   5.895  1.1244 -0.2896  0.5080
10732TIP3   OH232148   4.918   0.501   5.942 -0.0484  0.1813  0.2512
10732TIP3    H132149   4.895   0.429   5.883 -1.0657 -0.0787  0.9632
10732TIP3    H232150   4.834   0.532   5.976  0.3985  1.5194  0.1668
10733TIP3   OH232151   3.718   6.074   3.720  0.8597 -0.3800  0.1417
10733TIP3    H132152   3.725   5.979   3.725  1.7383 -0.3727 -0.7619
10733TIP3    H232153   3.658   6.091   3.647 -0.9189 -0.2604  1.5999
10734TIP3   OH232154   1.329   5.378   3.492  0.2150  0.5549 -0.1341
10734TIP3    H132155   1.396   5.416   3.436  0.5083  1.5753  0.8905
10734TIP3    H232156   1.348   5.284   3.492 -0.3690  0.4128 -2.4759
10735TIP3   OH232157   1.715   6.104   3.938 -0.4370 -0.0376 -0.2099
10735TIP3    H132158   1.781   6.128   4.003 -0.7401 -0.4555  0.2599
10735TIP3    H232159   1.763   6.056   3.870 -0.0423  0.8153 -0.5291
10736TIP3   OH232160   2.972   5.264   4.831 -0.0936 -0.3183 -0.0810
10736TIP3    H132161   3.019   5.260   4.747  1.5532 -4.0682  0.9068
10736TIP3    H232162   3.041   5.272   4.897 -1.2054  0.1024  1.0455
10737TIP3   OH232163   7.710   2.536   1.290 -0.0420  0.1161  0.5860
10737TIP3    H132164   7.667   2.620   1.310 -2.4818 -1.2468  1.1824
10737TIP3    H232165   7.712   2.532   1.195 -2.3483 -0.3393  0.5411
10738TIP3   OH232166   6.496   5.517   6.112  0.1206  0.4427  0.0613
10738TIP3    H132167   6.486   5.608   6.140  0.2563  0.4047  0.2319
10738TIP3    H232168   6.479   5.465   6.190  2.4720  0.4074  0.5971
10739TIP3   OH232169   1.134   1.278   1.838 -0.5578 -0.6974  0.3237
10739TIP3    H132170   1.089   1.231   1.909 -1.4640  0.1901  0.3618
10739TIP3    H232171   1.189   1.212   1.796 -1.4471 -1.6728  0.6630
10740TIP3   OH232172   6.695   5.221   4.941 -0.4582 -1.0039  0.9074
10740TIP3    H132173   6.732   5.259   5.020 -0.5248 -1.7864  1.3185
10740TIP3    H232174   6.770   5.182   4.896 -0.1848  0.6895 -0.1386
10741TIP3   OH232175   1.037   4.627   5.185 -0.6713 -0.2888 -0.1639
10741TIP3    H132176   1.002   4.568   5.117 -1.4388  1.5216 -1.3661
10741TIP3    H232177   0.961   4.674   5.217  0.1783  1.3095 -0.4613
10742TIP3   OH232178   3.002   7.079   4.948  0.2875  0.3287 -1.2808
10742TIP3    H132179   2.991   7.011   4.882 -0.3340  0.7259 -1.5923
10742TIP3    H232180   2.936   7.144   4.926  0.1630  0.5216 -0.3412
10743TIP3   OH232181   4.725   6.824   6.257  0.4241 -0.1189 -0.0111
10743TIP3    H132182   4.730   6.919   6.245 -0.9036  0.2828  2.3335
10743TIP3    H232183   4.800   6.803   6.311 -0.7087  0.0126  1.6546
10744TIP3   OH232184   2.660   5.047   6.011  0.3978  0.0004 -0.4263
10744TIP3    H132185   2.585   4.991   5.991 -0.3092  0.4978  0.7900
10744TIP3    H232186   2.693   5.014   6.095  0.7761  0.5702 -0.3455
10745TIP3   OH232187   1.404   7.246   6.453 -0.2465 -0.5567 -0.1572
10745TIP3    H132188   1.493   7.227   6.424 -0.1192 -0.7376  0.3403
10745TIP3    H232189   1.363   7.289   6.379 -0.2872 -2.0673 -1.0329
10746TIP3   OH232190   0.818   2.420   0.495  0.2795  0.1891  0.1450
10746TIP3    H132191   0.864   2.498   0.524  0.9467 -0.9402  2.2294
10746TIP3    H232192   0.775   2.387   0.574 -1.1993 -0.7578 -1.0137
10747TIP3   OH232193   1.879   4.588   0.294 -0.4168 -0.1468  0.2629
10747TIP3    H132194   1.970   4.602   0.270 -0.9577  2.8638 -0.1876
10747TIP3    H232195   1.867   4.640   0.374 -1.7873 -0.3918  0.2312
10748TIP3   OH232196   6.456   0.537   5.636 -0.3764 -0.7196 -0.1826
10748TIP3    H132197   6.498   0.462   5.594 -1.9121 -0.6957 -1.8079
10748TIP3    H232198   6.469   0.523   5.730  1.2872 -1.8534 -0.5673
10749TIP3   OH232199   1.833   7.001   5.219  0.0631  0.4929 -0.6141
10749TIP3    H132200   1.757   6.967   5.171  1.9320 -0.4775 -3.0674
10749TIP3    H232201   1.823   6.967   5.308 -1.1375 -1.7040 -1.5382
10750TIP3   OH232202   1.343   3.415   1.366  0.7720 -0.5288 -0.5543
10750TIP3    H132203   1.320   3.506   1.351 -0.9189 -0.7629  0.4753
10750TIP3    H232204   1.313   3.397   1.455  0.0783 -2.3912 -1.1354
10751TIP3   OH232205   4.217   7.347   6.054 -0.2389 -0.1419 -0.4597
10751TIP3    H132206   4.262   7.263   6.044  1.9017  0.6890  1.7972
10751TIP3    H232207   4.243   7.398   5.978 -0.0326 -0.8395 -0.8594
10752TIP3   OH232208   1.104   6.928   6.240  0.2454  0.1383 -0.6373
10752TIP3    H132209   1.197   6.930   6.220  0.4107 -1.5707 -0.1154
10752TIP3    H232210   1.072   7.015   6.215  2.1915  1.1612  0.2891
10753TIP3   OH232211   2.243   7.156   5.331  0.0742 -0.1394  0.2604
10753TIP3    H132212   2.184   7.215   5.378 -0.8669 -0.8204 -0.0655
10753TIP3    H232213   2.259   7.201   5.248 -3.2163 -1.7737 -1.3540
10754TIP3   OH232214   2.118   3.909   0.071 -0.2462 -0.2301  0.5475
10754TIP3    H132215   2.132   3.997   0.037 -1.3490  0.1441  1.0584
10754TIP3    H232216   2.158   3.852   0.005 -1.4752  0.5400 -0.9099
10755TIP3   OH232217   6.585   1.962   5.105 -0.1569 -0.0508 -0.0190
10755TIP3    H132218   6.628   1.887   5.062  0.1356  0.4933 -0.6921
10755TIP3    H232219   6.657   2.013   5.141 -0.3075  0.2840 -0.1922
10756TIP3   OH232220   2.218   7.301   5.076  0.0532 -0.0284 -0.3970
10756TIP3    H132221   2.137   7.262   5.109 -0.6139  2.1641  0.6630
10756TIP3    H232222   2.216   7.282   4.982 -2.2136  0.8167 -0.5644
10757TIP3   OH232223   7.296   4.294   0.208  0.7178 -0.0827  0.2539
10757TIP3    H132224   7.285   4.343   0.127  2.4182  0.6715  0.4521
10757TIP3    H232225   7.222   4.320   0.263  0.6841  0.9628 -0.2798
10758TIP3   OH232226   3.269   6.879   5.149  0.4321 -0.1664  0.1821
10758TIP3    H132227   3.259   6.962   5.101  1.1091 -0.6082 -0.7300
10758TIP3    H232228   3.277   6.906   5.240 -1.7128  0.6407  0.1670
10759TIP3   OH232229   2.569   5.157   4.313 -0.5002  0.2386  0.5469
10759TIP3    H132230   2.474   5.142   4.311 -0.8406  2.3331  0.3940
10759TIP3    H232231   2.592   5.180   4.223  0.4563 -1.8423  0.2212
10760TIP3   OH232232   2.178   7.100   4.431 -0.4443  0.8561 -0.0254
10760TIP3    H132233   2.206   7.010   4.444  0.7352  1.3362  0.8437
10760TIP3    H232234   2.115   7.096   4.359  1.7775 -0.2710 -1.9665
10761TIP3   OH232235   6.491   2.558   2.537  0.0711  0.3992  0.2924
10761TIP3    H132236   6.461   2.497   2.605  0.9479 -0.2660  0.0951
10761TIP3    H232237   6.570   2.597   2.574 -0.0020  0.7636  0.0591
10762TIP3   OH232238   0.695   4.824   6.220  0.1260 -0.1765 -0.5750
10762TIP3    H132239   0.640   4.891   6.260  0.2719 -0.1434 -0.4275
10762TIP3    H232240   0.650   4.742   6.238  2.1157 -0.5624  3.0285
10763TIP3   OH232241   1.645   4.829   3.890  0.0741 -0.5877  0.1014
10763TIP3    H132242   1.588   4.887   3.840 -0.3303 -0.8020  0.3033
10763TIP3    H232243   1.670   4.760   3.829 -1.0618 -1.2845  0.3962
10764TIP3   OH232244   4.855   1.152   5.828  0.0443  0.4941  0.1553
10764TIP3    H132245   4.897   1.075   5.867 -0.4858 -0.1197 -0.4777
10764TIP3    H232246   4.795   1.183   5.896 -0.8395 -0.5461 -0.1243
10765TIP3   OH232247   6.706   5.116   5.354  0.3592 -0.1484 -0.0095
10765TIP3    H132248   6.758   5.037   5.340  0.1285 -0.4358  0.7000
10765TIP3    H232249   6.720   5.169   5.276  0.2584 -1.0365 -0.6315
10766TIP3   OH232250   1.942   7.043   4.885 -0.2682 -0.3314 -0.1298
10766TIP3    H132251   1.903   7.039   4.973 -0.6625  0.2997 -0.2704
10766TIP3    H232252   1.936   7.136   4.861  1.5902 -0.1867 -0.0456
10767TIP3   OH232253   6.013   5.074   0.562 -0.2521 -0.3195  0.0807
10767TIP3    H132254   5.918   5.081   0.563 -0.3013 -0.7122  2.4809
10767TIP3    H232255   6.035   5.059   0.470 -2.3310  1.6675 -0.7952
10768TIP3   OH232256   1.886   5.753   5.557 -0.6055  0.6559  0.5114
10768TIP3    H132257   1.840   5.696   5.618  1.5371 -1.0656  0.5842
10768TIP3    H232258   1.819   5.783   5.496 -2.0983 -0.4982  1.5503
10769TIP3   OH232259   6.238   0.653   4.471  0.1811  0.2684 -0.5440
10769TIP3    H132260   6.220   0.684   4.383 -0.0307  0.6175 -0.3763
10769TIP3    H232261   6.324   0.689   4.492  0.0639  0.4937 -0.4600
10770TIP3   OH232262   6.103   1.017   5.424 -0.0229 -0.3639 -0.3658
10770TIP3    H132263   6.125   1.078   5.354 -1.5133  0.0049 -0.5372
10770TIP3    H232264   6.181   1.016   5.480  0.4442  0.8461 -0.9655
10771TIP3   OH232265   7.109   2.062   0.001 -0.1155  0.2117  0.5658
10771TIP3    H132266   7.182   1.999  -0.004 -1.2129 -1.2069  1.9097
10771TIP3    H232267   7.104   2.083   0.095 -1.3764  0.3624  0.4602
10772TIP3   OH232268   3.484   4.816   0.775 -0.0626 -0.7925  0.2452
10772TIP3    H132269   3.425   4.866   0.719  0.3676 -0.1183  0.3950
10772TIP3    H232270   3.472   4.853   0.862  1.8887  0.5520 -0.0382
10773TIP3   OH232271   5.247   1.053   6.088 -0.1136  0.0091  0.0327
10773TIP3    H132272   5.199   0.996   6.149  0.0980 -0.5673 -0.3407
10773TIP3    H232273   5.243   1.007   6.005 -0.0453  0.6062 -0.2991
10774TIP3   OH232274   0.213   2.203   0.697 -0.1988  0.0499  0.0590
10774TIP3    H132275   0.166   2.162   0.624  1.0302 -0.2571 -0.5854
10774TIP3    H232276   0.158   2.277   0.723 -1.2077 -0.5177 -0.4286
10775TIP3   OH232277   5.083   7.457   5.815 -0.6900  0.7218  0.4714
10775TIP3    H132278   5.107   7.373   5.853 -0.5399  0.3709 -0.3771
10775TIP3    H232279   5.006   7.438   5.762 -0.8600  1.1844  0.5522
10776TIP3   OH232280   4.797   7.184   5.564  0.3955  0.0779  0.1836
10776TIP3    H132281   4.704   7.165   5.555  0.1500  0.5531  1.6302
10776TIP3    H232282   4.829   7.192   5.474 -1.3048  1.6095 -0.3045
10777TIP3   OH232283   3.671   7.117   4.752 -0.3334 -0.3399  0.5629
10777TIP3    H132284   3.679   7.027   4.784 -1.8725  0.1224  2.3194
10777TIP3    H232285   3.762   7.145   4.738  0.3098 -1.2549  2.6447
10778TIP3   OH232286   2.447   2.685   0.137  0.2971  0.1278 -0.1663
10778TIP3    H132287   2.500   2.614   0.101 -1.3330 -0.1215 -2.1598
10778TIP3    H232288   2.508   2.758   0.147  1.7387 -1.2032  0.8325
10779TIP3   OH232289   6.427   1.529   4.883  0.3694  0.6905  0.4223
10779TIP3    H132290   6.334   1.536   4.864  0.2074 -1.7186  0.2549
10779TIP3    H232291   6.435   1.554   4.975 -0.4484  0.7992  0.4650
10780TIP3   OH232292   5.459   6.177   5.372 -0.8151 -0.5116 -0.1249
10780TIP3    H132293   5.455   6.082   5.376 -0.5752 -0.5861 -1.4631
10780TIP3    H232294   5.508   6.203   5.450 -0.0562 -1.5381 -0.2627
10781TIP3   OH232295   4.960   6.485   5.793 -0.1676 -0.2067  0.7252
10781TIP3    H132296   4.919   6.560   5.836  0.1961  1.7893 -2.2644
10781TIP3    H232297   5.039   6.469   5.844  0.2287  2.0414  0.8559
10782TIP3   OH232298   4.718   5.501   5.700  0.2021  0.0496  0.0652
10782TIP3    H132299   4.721   5.494   5.796  0.1111  0.1037  0.0721
10782TIP3    H232300   4.633   5.540   5.682 -1.3154 -3.1974 -0.2306
10783TIP3   OH232301   5.370   0.115   6.299  0.2077  0.3819 -0.4681
10783TIP3    H132302   5.284   0.117   6.257 -0.5278 -1.9353  0.8765
10783TIP3    H232303   5.352   0.101   6.392  2.0810 -2.5709 -0.4655
10784TIP3   OH232304   4.606   1.787   1.640  0.7914 -0.1825 -0.3281
10784TIP3    H132305   4.664   1.711   1.641  0.3910 -0.4836  0.1109
10784TIP3    H232306   4.519   1.750   1.626  0.4649  0.1098  0.9180
10785TIP3   OH232307   4.896   2.847   1.178 -0.0131  0.0952  0.0749
10785TIP3    H132308   4.945   2.832   1.259  2.2560  1.1317 -1.0900
10785TIP3    H232309   4.806   2.862   1.208  0.7224  0.1187  2.3741
10786TIP3   OH232310   4.105   6.969   6.116  0.3328  0.1378  0.3207
10786TIP3    H132311   4.127   6.945   6.026  2.7961  0.7609  0.7454
10786TIP3    H232312   4.099   6.885   6.162 -0.0980 -0.1352 -0.2239
10787TIP3   OH232313   3.784   6.606   4.365 -0.2899  0.3782 -0.0302
10787TIP3    H132314   3.799   6.620   4.459 -1.3497 -0.7481  0.3233
10787TIP3    H232315   3.715   6.669   4.343 -0.8523 -0.1404  0.2182
10788TIP3   OH232316   4.695   0.237   5.302 -0.0383 -0.1767  0.2780
10788TIP3    H132317   4.712   0.294   5.377 -0.3133  0.3999 -0.0972
10788TIP3    H232318   4.708   0.293   5.225 -0.1572 -0.6590 -0.0975
10789TIP3   OH232319   4.795   5.451   5.014 -0.3552  0.6934  0.1098
10789TIP3    H132320   4.866   5.513   5.033  0.5546 -0.5079  0.6820
10789TIP3    H232321   4.806   5.382   5.079 -0.8912 -0.4679 -1.0219
10790TIP3   OH232322   6.811   1.318   4.271  0.1704 -0.5953  0.4150
10790TIP3    H132323   6.756   1.290   4.345  0.6755 -1.3497  0.5110
10790TIP3    H232324   6.773   1.401   4.244 -1.1237 -1.1734  0.3851
10791TIP3   OH232325   4.253   2.338   0.336  0.1101 -0.1620  0.2853
10791TIP3    H132326   4.159   2.349   0.347  0.4885  2.1567  1.6062
10791TIP3    H232327   4.282   2.419   0.295  1.4147 -1.2589 -1.0176
10792TIP3   OH232328   3.290   6.030   5.585  0.2014 -0.2768  0.5965
10792TIP3    H132329   3.249   6.106   5.544  0.5289 -0.3822  0.0675
10792TIP3    H232330   3.358   6.068   5.641 -0.5791 -0.1068  1.4343
10793TIP3   OH232331   7.722   0.855   3.674 -0.4910  0.1768  0.4059
10793TIP3    H132332   7.627   0.864   3.680 -0.6696 -0.3693 -1.3300
10793TIP3    H232333   7.736   0.803   3.595  1.3233  1.6897 -0.3127
10794TIP3   OH232334   0.829   2.440   1.089  0.0366  0.3589  0.0332
10794TIP3    H132335   0.906   2.480   1.130 -0.4101  0.9389  0.3096
10794TIP3    H232336   0.788   2.511   1.041  0.5637 -0.3157 -1.4660
10795TIP3   OH232337   5.766   4.051   6.442  0.2880  0.0211 -0.0559
10795TIP3    H132338   5.797   3.974   6.490 -3.9606 -1.9023 -0.1725
10795TIP3    H232339   5.803   4.040   6.354  1.2195 -0.8989  0.4266
10796TIP3   OH232340   3.098   5.956   4.305  0.1748 -0.2501 -0.0491
10796TIP3    H132341   3.095   5.884   4.367  0.8811  0.7960  1.2192
10796TIP3    H232342   3.090   5.914   4.219  0.8810 -1.8495  0.6462
10797TIP3   OH232343   4.979   5.258   5.789  0.5498 -0.2202  0.2611
10797TIP3    H132344   4.894   5.287   5.824 -0.0879 -1.0561 -0.5683
10797TIP3    H232345   5.004   5.327   5.728  0.2925 -0.1376  0.2467
10798TIP3   OH232346   6.030   2.484   2.188  0.0038  0.0144 -0.3544
10798TIP3    H132347   6.034   2.464   2.281 -0.7692  0.7984 -0.1486
10798TIP3    H232348   5.961   2.427   2.154  1.0896 -1.1165 -0.6698
10799TIP3   OH232349   5.853   1.364   6.077  0.1060  0.0691 -0.4683
10799TIP3    H132350   5.839   1.270   6.087 -1.2364  0.0720 -2.0471
10799TIP3    H232351   5.783   1.392   6.018  0.0608  2.1943  0.5564
10800TIP3   OH232352   6.474   0.472   6.178  0.5846 -0.4121  0.4847
10800TIP3    H132353   6.549   0.496   6.231  0.5861  2.0943 -0.5820
10800TIP3    H232354   6.401   0.522   6.214  0.0397 -0.6507 -0.2636
10801TIP3   OH232355   2.421   6.758   5.777  0.0193  0.4333  0.6191
10801TIP3    H132356   2.462   6.679   5.741 -0.5633  0.3101  0.2227
10801TIP3    H232357   2.484   6.789   5.842  1.5708  1.2227 -1.1819
10802TIP3   OH232358   7.833   2.062   4.199 -0.3725 -0.2437  0.2749
10802TIP3    H132359   7.810   1.980   4.155  1.3092  0.6400 -2.3298
10802TIP3    H232360   7.891   2.035   4.270  0.3438 -1.3338 -0.6937
10803TIP3   OH232361   4.179   6.996   4.730  0.2177 -0.0561 -0.3616
10803TIP3    H132362   4.268   6.960   4.730  0.2211 -0.0481 -0.3457
10803TIP3    H232363   4.130   6.938   4.788  0.1276 -0.2740 -0.6525
10804TIP3   OH232364   5.662   6.088   4.531 -0.0065 -0.2200  0.0532
10804TIP3    H132365   5.592   6.070   4.468  1.4375  0.3150 -1.7718
10804TIP3    H232366   5.626   6.154   4.589 -1.4186 -0.7920 -0.1728
10805TIP3   OH232367   0.974   4.211   0.837  0.1308 -0.7259  0.6870
10805TIP3    H132368   0.949   4.125   0.802 -0.1586  0.2572 -1.6311
10805TIP3    H232369   0.912   4.226   0.908 -0.9432 -1.6979 -0.0080
10806TIP3   OH232370   4.246   1.641   0.457 -0.3256 -0.4443 -0.2115
10806TIP3    H132371   4.254   1.654   0.362  0.4624  0.6795 -0.0119
10806TIP3    H232372   4.322   1.588   0.480 -0.1522 -0.1671 -0.1287
10807TIP3   OH232373   6.862   5.512   5.724 -0.2192  0.3518 -0.5746
10807TIP3    H132374   6.823   5.511   5.811  0.4885 -2.3293 -0.2261
10807TIP3    H232375   6.833   5.430   5.684  0.8263  0.7576 -2.2246
10808TIP3   OH232376   5.073   6.927   5.481 -0.5252 -0.3930  0.2996
10808TIP3    H132377   5.011   6.986   5.523 -2.0347 -2.2100  0.6964
10808TIP3    H232378   5.119   6.982   5.417  0.5884  1.9973  3.0774
10809TIP3   OH232379   2.774   3.002   0.262  0.0619  0.0460  0.3369
10809TIP3    H132380   2.733   3.052   0.333  1.9918  2.1459  0.0188
10809TIP3    H232381   2.868   3.012   0.277  0.4745 -2.0249 -0.7817
10810TIP3   OH232382   2.655   6.916   5.136  0.1998 -0.0049 -0.3340
10810TIP3    H132383   2.643   6.835   5.087  2.3739 -2.0715  2.3942
10810TIP3    H232384   2.749   6.935   5.127  0.0803  1.1288  0.7037
10811TIP3   OH232385   3.766   5.992   5.807  0.2055 -0.6236 -0.0161
10811TIP3    H132386   3.769   6.060   5.874  0.4195 -0.7476  0.1012
10811TIP3    H232387   3.726   5.917   5.852  0.0242 -0.5947 -0.1285
10812TIP3   OH232388   4.417   7.280   4.718  0.3047 -0.0723  0.6409
10812TIP3    H132389   4.470   7.221   4.665 -1.2905  0.3152 -1.4410
10812TIP3    H232390   4.416   7.362   4.669  0.9328  1.1221  2.5691
10813TIP3   OH232391   3.562   6.440   5.531 -0.1219  0.1086 -0.0277
10813TIP3    H132392   3.495   6.502   5.501 -0.2576  0.2238  0.5039
10813TIP3    H232393   3.614   6.421   5.453  0.5544  1.6777  0.0216
10814TIP3   OH232394   0.926   0.277   5.702 -0.3856 -0.4003  0.8093
10814TIP3    H132395   0.995   0.311   5.760 -0.2799 -0.1553  0.5434
10814TIP3    H232396   0.958   0.296   5.613 -1.0880  0.2804  0.6952
10815TIP3   OH232397   4.510   0.775   1.056 -0.1811  0.5638 -0.6477
10815TIP3    H132398   4.477   0.758   1.145 -1.1315  1.4056 -0.8270
10815TIP3    H232399   4.601   0.745   1.058 -0.5147 -0.4281  0.2944
10816TIP3   OH232400   7.741   4.298   0.095  1.0252  0.0359  0.2735
10816TIP3    H132401   7.746   4.203   0.080 -2.2654 -0.2745  0.8290
10816TIP3    H232402   7.776   4.336   0.014  1.4682 -1.6337 -0.3632
10817TIP3   OH232403   6.710   0.084   4.241  0.4998  0.7854 -0.4354
10817TIP3    H132404   6.709   0.180   4.236  1.2028  0.8171 -0.0368
10817TIP3    H232405   6.789   0.059   4.193  1.1525  0.4913  0.7898
10818TIP3   OH232406   3.691   6.792   2.918  0.0853  0.2964 -0.3410
10818TIP3    H132407   3.713   6.885   2.921  0.6151  0.2036 -1.1788
10818TIP3    H232408   3.601   6.788   2.951 -0.2932  1.2203 -1.2150
10819TIP3   OH232409   2.003   2.865   0.266 -0.5834 -0.0969 -0.0093
10819TIP3    H132410   2.061   2.815   0.209 -0.2220  1.1851 -0.7839
10819TIP3    H232411   1.922   2.874   0.215 -0.9361 -0.5683  0.4556
10820TIP3   OH232412   2.869   5.090   5.845 -0.5688 -0.0071 -0.3862
10820TIP3    H132413   2.908   5.003   5.857  0.2450  0.2552 -1.1699
10820TIP3    H232414   2.779   5.079   5.877 -1.3436 -1.9033 -3.0019
10821TIP3   OH232415   4.378   6.234   5.899 -0.5032  0.2457  0.2502
10821TIP3    H132416   4.370   6.170   5.970  0.7753 -1.7342 -1.3218
10821TIP3    H232417   4.472   6.239   5.881 -0.7273  1.4725 -0.6501
10822TIP3   OH232418   3.107   6.453   5.737 -0.4616 -0.1996  0.2192
10822TIP3    H132419   3.192   6.418   5.710 -0.8733 -0.9172 -0.1452
10822TIP3    H232420   3.078   6.396   5.809 -0.8309 -0.2116  0.0627
10823TIP3   OH232421   3.321   6.487   4.569 -0.1922 -0.1986  0.0988
10823TIP3    H132422   3.382   6.440   4.512 -0.1398 -1.2255  0.9839
10823TIP3    H232423   3.247   6.427   4.579 -1.0913  0.8003 -0.4946
10824TIP3   OH232424   6.813   2.417   4.280  0.2044  0.0935 -0.3347
10824TIP3    H132425   6.898   2.382   4.252  0.7778  3.5337 -3.1869
10824TIP3    H232426   6.754   2.398   4.207 -0.6853  0.6362  0.2307
10825TIP3   OH232427   5.500   7.014   5.434  0.0230 -0.4425 -0.1348
10825TIP3    H132428   5.438   7.079   5.402  0.4799 -0.8254 -1.8050
10825TIP3    H232429   5.449   6.933   5.440  0.2793 -0.6770 -1.1687
10826TIP3   OH232430   7.238   1.111   3.612 -0.0611 -0.0359 -0.6780
10826TIP3    H132431   7.167   1.080   3.556 -0.6249  1.0664 -0.5946
10826TIP3    H232432   7.310   1.130   3.551 -0.3371  0.2276 -0.9237
10827TIP3   OH232433   6.875   3.180   5.226  0.2156  0.2898  0.1393
10827TIP3    H132434   6.846   3.134   5.147  0.0984  0.3073  0.1713
10827TIP3    H232435   6.887   3.110   5.290  0.7218  0.2338 -0.0153
10828TIP3   OH232436   7.835   0.967   3.294  0.6286 -0.4017 -0.3143
10828TIP3    H132437   7.765   1.025   3.265  0.5540 -1.2596 -1.9148
10828TIP3    H232438   7.914   1.020   3.289  0.2467  0.2471  0.4640
10829TIP3   OH232439   7.814   1.661   4.657  0.2686  0.1900 -0.2146
10829TIP3    H132440   7.852   1.735   4.704  2.7274 -1.5883  0.7165
10829TIP3    H232441   7.810   1.690   4.566  1.4367  1.4087  0.1004
10830TIP3   OH232442   7.487   0.460   6.275 -0.3553  0.3974 -0.3144
10830TIP3    H132443   7.392   0.472   6.278 -0.2803  1.1970 -1.1170
10830TIP3    H232444   7.502   0.401   6.201 -0.1733  0.8219 -0.6184
10831TIP3   OH232445   0.989   3.572   0.926 -0.1003  0.5507  0.0497
10831TIP3    H132446   0.997   3.532   1.013  1.0017  1.6521  0.4744
10831TIP3    H232447   1.009   3.665   0.940 -3.4334  1.4683 -0.7813
10832TIP3   OH232448   1.444   2.744   0.426 -0.2181  0.1905  0.4545
10832TIP3    H132449   1.491   2.820   0.391  2.0562 -0.8681  1.1311
10832TIP3    H232450   1.510   2.695   0.475 -2.1174 -1.1861  1.7032
10833TIP3   OH232451   4.680   0.853   6.186  0.4669  0.4956 -0.3831
10833TIP3    H132452   4.598   0.900   6.174 -0.9943 -1.4325  1.5920
10833TIP3    H232453   4.717   0.888   6.267 -0.0006 -0.7752  0.4101
10834TIP3   OH232454   6.264   6.737   6.152  0.0893 -0.0852  0.0872
10834TIP3    H132455   6.307   6.692   6.079 -1.0666 -1.8086  0.4458
10834TIP3    H232456   6.267   6.675   6.224 -1.9051  0.2083  0.4674
10835TIP3   OH232457   7.236   0.861   2.976 -0.3045  0.0897  0.3113
10835TIP3    H132458   7.153   0.842   2.931 -0.1157  2.7125 -1.2348
10835TIP3    H232459   7.220   0.944   3.020  0.8462 -0.4518  1.7667
10836TIP3   OH232460   4.466   6.160   4.415 -0.3050  0.0878 -0.0461
10836TIP3    H132461   4.371   6.152   4.424 -0.3416  0.4029 -0.1365
10836TIP3    H232462   4.495   6.192   4.500 -0.2103 -0.5847  0.1749
10837TIP3   OH232463   0.369   1.580   6.308  0.0074 -0.0064 -0.3593
10837TIP3    H132464   0.458   1.595   6.279 -0.1264  0.0384 -0.7414
10837TIP3    H232465   0.370   1.490   6.343  0.3080  0.1560  0.0584
10838TIP3   OH232466   4.085   5.774   3.349  0.2185  0.3680 -0.5831
10838TIP3    H132467   4.059   5.799   3.437  1.0000 -0.5585 -0.0832
10838TIP3    H232468   4.008   5.792   3.295 -0.5731  0.0481  0.4411
10839TIP3   OH232469   6.176   0.450   5.404 -0.5065 -0.0174 -0.0133
10839TIP3    H132470   6.198   0.543   5.418 -0.0764 -0.2350  0.7977
10839TIP3    H232471   6.101   0.435   5.461 -0.9142 -0.0293 -0.5561
10840TIP3   OH232472   1.200   1.539   1.467 -0.1123 -0.0127 -0.2529
10840TIP3    H132473   1.280   1.502   1.429 -0.6963 -1.5785 -0.0191
10840TIP3    H232474   1.231   1.593   1.540  0.8423  0.9071 -1.3419
10841TIP3   OH232475   6.068   0.191   2.482 -0.4292  0.3341 -0.5099
10841TIP3    H132476   5.974   0.199   2.497 -0.2863  0.7195  0.1758
10841TIP3    H232477   6.105   0.272   2.516  0.3762 -0.6831  1.0887
10842TIP3   OH232478   0.311   1.736   0.573  0.1334 -0.0980 -0.2548
10842TIP3    H132479   0.282   1.700   0.489 -2.9973  0.8210  0.3685
10842TIP3    H232480   0.349   1.821   0.551 -2.1303  0.8624 -0.6375
10843TIP3   OH232481   2.302   6.840   4.399  0.3117  0.1876 -0.3217
10843TIP3    H132482   2.380   6.896   4.406  0.0540  0.3861  1.0344
10843TIP3    H232483   2.322   6.764   4.453 -0.3404  0.1278 -0.1585
10844TIP3   OH232484   1.911   5.520   5.410  0.6026 -0.5942  0.8362
10844TIP3    H132485   1.821   5.492   5.424  0.2207 -0.3203 -0.9248
10844TIP3    H232486   1.912   5.612   5.437 -0.1727 -0.0078 -1.0533
10845TIP3   OH232487   4.133   5.606   4.151 -0.1201 -0.3314 -0.2424
10845TIP3    H132488   4.169   5.547   4.085  0.7144 -2.3836  1.9238
10845TIP3    H232489   4.205   5.618   4.213 -0.6577  2.0950 -0.0392
10846TIP3   OH232490   3.376   7.220   4.789 -0.2384 -0.4294  0.3120
10846TIP3    H132491   3.463   7.182   4.802 -0.0823  0.2726  1.4247
10846TIP3    H232492   3.318   7.144   4.781  0.4551 -0.9018 -0.2836
10847TIP3   OH232493   1.853   6.051   5.622 -0.8990 -0.4450  0.1484
10847TIP3    H132494   1.931   6.099   5.595 -1.7804 -0.0836 -1.8276
10847TIP3    H232495   1.874   5.959   5.604 -0.6839 -0.4138  0.2408
10848TIP3   OH232496   7.546   1.208   0.301 -0.4872 -0.0050 -0.1203
10848TIP3    H132497   7.469   1.167   0.342 -0.4545  0.3304  0.2726
10848TIP3    H232498   7.620   1.176   0.353 -0.5494  1.3649  0.8270
10849TIP3   OH232499   4.294   5.369   3.982  0.1789 -0.4723  0.6227
10849TIP3    H132500   4.239   5.338   4.054 -0.1552  0.0132  0.5799
10849TIP3    H232501   4.232   5.389   3.912  0.3226  1.0014  0.9105
10850TIP3   OH232502   4.521   1.878   1.094 -0.0454  0.0869  0.1719
10850TIP3    H132503   4.508   1.783   1.098 -1.2892  0.3247  2.3997
10850TIP3    H232504   4.601   1.893   1.144 -0.5741  0.3449  0.9396
10851TIP3   OH232505   4.026   6.564   4.899  0.6827 -0.7722  0.2879
10851TIP3    H132506   3.959   6.499   4.878 -0.5554 -0.0446  1.8568
10851TIP3    H232507   4.101   6.511   4.928  0.8722 -1.5953 -1.6203
10852TIP3   OH232508   4.435   1.070   4.310  0.0641  0.0692 -0.2944
10852TIP3    H132509   4.446   1.138   4.376  1.0750  0.9961 -1.3807
10852TIP3    H232510   4.413   1.118   4.230  0.5105 -0.8872 -1.0012
10853TIP3   OH232511   4.479   6.537   3.126  0.7127  0.0057 -0.6788
10853TIP3    H132512   4.470   6.626   3.159 -1.1138 -0.5903  0.5425
10853TIP3    H232513   4.429   6.537   3.044 -1.6211 -0.5653  0.7054
10854TIP3   OH232514   5.397   0.197   5.618 -0.4246 -0.1908 -0.1818
10854TIP3    H132515   5.362   0.148   5.543 -1.6704  0.7190 -0.2173
10854TIP3    H232516   5.481   0.154   5.637  0.3543  0.1042 -2.6589
10855TIP3   OH232517   7.116   1.580   3.997  0.2555 -0.1555  0.0520
10855TIP3    H132518   7.073   1.495   4.006  0.9924 -0.6275 -0.7975
10855TIP3    H232519   7.209   1.561   4.010  0.4223  0.5255 -0.1222
10856TIP3   OH232520   7.130   1.187   4.592 -0.0351 -0.3288  0.5301
10856TIP3    H132521   7.185   1.185   4.670  1.0777  1.4118 -0.1852
10856TIP3    H232522   7.187   1.161   4.520 -0.6000 -0.2527  0.0418
10857TIP3   OH232523   4.841   2.615   0.876 -0.0875 -0.0171  0.7794
10857TIP3    H132524   4.825   2.522   0.895 -0.5061 -0.0202  0.4307
10857TIP3    H232525   4.922   2.615   0.825 -1.0468 -0.3704 -0.7909
10858TIP3   OH232526   0.128   0.529   4.325 -0.2379 -0.3694 -0.2790
10858TIP3    H132527   0.050   0.479   4.302 -0.2093 -0.6588  0.2409
10858TIP3    H232528   0.108   0.619   4.299 -0.6587 -0.4803 -0.3461
10859TIP3   OH232529   1.787   3.101   0.384  0.2382 -0.2493  0.3929
10859TIP3    H132530   1.708   3.156   0.384  1.1270  1.0818 -2.0525
10859TIP3    H232531   1.849   3.148   0.440  0.6083  0.6755 -0.7847
10860TIP3   OH232532   3.610   5.879   4.680  0.3448  0.8361 -0.3215
10860TIP3    H132533   3.579   5.814   4.617  0.5068  0.7354 -0.2998
10860TIP3    H232534   3.607   5.834   4.765 -3.0583  2.0288  0.2589
10861TIP3   OH232535   3.129   5.599   5.569 -0.3558  0.8886 -0.2587
10861TIP3    H132536   3.154   5.641   5.487  0.1340  0.4903 -0.3205
10861TIP3    H232537   3.034   5.588   5.563 -0.5205  2.1191 -0.1729
10862TIP3   OH232538   7.629   1.157   5.584  0.0159 -0.0992 -0.2572
10862TIP3    H132539   7.571   1.123   5.517 -0.3578 -0.1254  0.0795
10862TIP3    H232540   7.635   1.087   5.649  0.0965  0.0621 -0.0899
10863TIP3   OH232541   3.756   6.417   6.271  1.0860  0.6399  0.3019
10863TIP3    H132542   3.767   6.499   6.222  0.4308  1.2951  1.2496
10863TIP3    H232543   3.677   6.431   6.323  0.9454 -0.6216  0.4294
10864TIP3   OH232544   5.605   6.623   5.964 -0.0786 -0.7693 -0.2077
10864TIP3    H132545   5.602   6.687   5.893  1.8764  0.1488  0.4974
10864TIP3    H232546   5.540   6.654   6.028 -0.1546 -0.2838 -0.5181
10865TIP3   OH232547   5.897   6.474   6.267 -0.1949 -0.9785  0.1320
10865TIP3    H132548   5.929   6.546   6.212  0.1354 -0.7001  0.6790
10865TIP3    H232549   5.832   6.429   6.213  2.7990 -3.0272 -1.9111
10866TIP3   OH232550   7.829   0.713   5.690 -0.0219  0.7512 -0.3848
10866TIP3    H132551   7.883   0.747   5.618 -0.1625  0.4999 -0.6077
10866TIP3    H232552   7.763   0.780   5.704  0.3643  1.0759 -0.0919
10867TIP3   OH232553   1.158   1.395   3.364 -0.4679  0.0766  0.1139
10867TIP3    H132554   1.170   1.425   3.274  1.6546 -1.8313 -0.2815
10867TIP3    H232555   1.099   1.320   3.357 -0.9113  0.3948  0.4090
10868TIP3   OH232556   4.487   6.272   5.413  0.1123 -0.5074  0.9111
10868TIP3    H132557   4.540   6.253   5.490 -0.2075 -0.9232  1.0292
10868TIP3    H232558   4.399   6.287   5.447  0.2344  0.6288  0.7607
10869TIP3   OH232559   6.150   0.918   6.080 -0.8537  0.1148 -0.1079
10869TIP3    H132560   6.193   0.857   6.020  1.7252  0.0708  1.6931
10869TIP3    H232561   6.126   0.992   6.026  2.0986  0.4047 -1.1179
10870TIP3   OH232562   4.006   7.346   2.679  0.2270  0.0507 -0.2407
10870TIP3    H132563   3.983   7.394   2.758  0.5448 -0.0807 -0.0685
10870TIP3    H232564   4.017   7.414   2.612  0.9644  0.2482  0.0709
10871TIP3   OH232565   5.208   1.097   4.254  0.4571  0.1583 -0.1943
10871TIP3    H132566   5.183   1.184   4.283 -0.0456  0.3253 -1.0960
10871TIP3    H232567   5.178   1.038   4.323  0.8476  0.7045  0.4394
10872TIP3   OH232568   4.172   6.419   5.467 -0.4581 -0.2908  0.3356
10872TIP3    H132569   4.156   6.384   5.555  0.7349 -1.5860  0.0572
10872TIP3    H232570   4.183   6.341   5.412  0.5008  0.5212 -0.6438
10873TIP3   OH232571   0.981   2.865   0.367  0.2947 -0.2915  0.3391
10873TIP3    H132572   1.063   2.852   0.415  0.9930  2.1272 -0.1232
10873TIP3    H232573   0.985   2.956   0.337 -2.8769  0.0652  0.8724
10874TIP3   OH232574   5.068   7.326   4.688  0.3267  0.2700  0.0354
10874TIP3    H132575   5.036   7.236   4.679  0.4158  0.3517 -1.1072
10874TIP3    H232576   5.115   7.326   4.772  0.5822 -0.8285 -0.0991
10875TIP3   OH232577   5.751   6.182   5.906  0.4661  0.2701 -0.6111
10875TIP3    H132578   5.830   6.195   5.854 -0.4234  2.2220 -1.5620
10875TIP3    H232579   5.720   6.095   5.883  0.1711  1.0400 -3.3068
10876TIP3   OH232580   5.432   7.190   6.341  0.1153  0.1650 -0.4435
10876TIP3    H132581   5.495   7.262   6.346  1.5039 -1.0860  0.4018
10876TIP3    H232582   5.380   7.198   6.421  0.4673  0.0538 -0.2033
10877TIP3   OH232583   6.978   2.125   4.941 -0.5005  0.3161 -0.0960
10877TIP3    H132584   7.031   2.201   4.963 -0.3620  0.0314  0.5478
10877TIP3    H232585   7.027   2.080   4.872 -0.4968  0.7067 -0.3507
10878TIP3   OH232586   6.534   0.225   4.624  0.2561  0.0206 -0.3265
10878TIP3    H132587   6.488   0.192   4.547 -1.6168 -0.0053  0.7645
10878TIP3    H232588   6.523   0.320   4.619  1.9913  0.1976 -1.2084
10879TIP3   OH232589   3.904   6.732   3.080 -0.0484  0.4885  0.0387
10879TIP3    H132590   3.836   6.758   3.018 -0.5106 -0.8525 -0.0286
10879TIP3    H232591   3.980   6.712   3.025 -0.5435 -0.9723 -0.1335
10880TIP3   OH232592   6.016   1.723   5.908  0.1090 -0.2313 -0.1214
10880TIP3    H132593   6.051   1.648   5.954  0.6191  0.5753  0.8174
10880TIP3    H232594   5.940   1.750   5.958 -0.1196 -0.1721 -0.4942
10881TIP3   OH232595   6.217   1.230   3.653  0.4358 -0.0700 -0.1527
10881TIP3    H132596   6.188   1.144   3.623  0.3068  0.2695 -1.0059
10881TIP3    H232597   6.139   1.285   3.648 -0.0909 -0.4838  2.6877
10882TIP3   OH232598   3.525   2.053   0.788 -0.0765  0.2023  0.0232
10882TIP3    H132599   3.567   2.074   0.871  0.0388  1.1068 -0.2613
10882TIP3    H232600   3.458   2.120   0.777  0.3918  0.5266 -0.9536
10883TIP3   OH232601   1.119   2.971   1.721 -0.1651 -0.5851  0.3844
10883TIP3    H132602   1.093   2.953   1.811 -0.9107  1.8015  0.7053
10883TIP3    H232603   1.042   2.949   1.669 -0.1115 -0.9573  0.4679
10884TIP3   OH232604   6.757   1.009   6.339  0.6163 -0.6634  0.0579
10884TIP3    H132605   6.668   1.021   6.307  1.7662  0.1512 -3.0265
10884TIP3    H232606   6.766   0.915   6.353  0.1908 -1.1258 -2.5642
10885TIP3   OH232607   4.254   6.658   4.636  0.3087 -0.4219  0.0557
10885TIP3    H132608   4.217   6.589   4.691 -1.4104  1.6361  1.5621
10885TIP3    H232609   4.329   6.691   4.686 -0.0799  0.1317  0.2842
10886TIP3   OH232610   7.064   0.457   4.362  0.3335  0.3675  0.1819
10886TIP3    H132611   7.139   0.513   4.379 -0.3263  0.8337  1.5829
10886TIP3    H232612   6.993   0.517   4.340  0.0881 -0.0191 -0.0991
10887TIP3   OH232613   6.685   0.344   5.570 -0.1372  0.2822 -0.8636
10887TIP3    H132614   6.772   0.336   5.609 -0.2630  0.5207 -0.5357
10887TIP3    H232615   6.694   0.413   5.505  0.3458 -0.8537 -2.0142
10888TIP3   OH232616   2.422   1.324   3.084  0.3711  0.5225  0.2451
10888TIP3    H132617   2.452   1.344   3.173 -1.3380  0.2016  0.9260
10888TIP3    H232618   2.424   1.408   3.039 -0.8134  1.1131  1.2471
10889TIP3   OH232619   4.145   4.358   5.065 -0.4033  0.2187 -1.0519
10889TIP3    H132620   4.225   4.387   5.021  1.4641 -1.5753  1.0116
10889TIP3    H232621   4.162   4.267   5.089 -1.5714  0.8960  2.7232
10890TIP3   OH232622   3.929   1.699   0.306  0.3616  0.5112 -0.2143
10890TIP3    H132623   3.988   1.734   0.373  0.7079 -1.5793  0.6079
10890TIP3    H232624   3.961   1.737   0.224  0.6334  2.2035  0.6535
10891TIP3   OH232625   7.458   0.897   5.066 -0.2877  0.0517 -0.4876
10891TIP3    H132626   7.408   0.974   5.092  0.3792  0.2854  0.1170
10891TIP3    H232627   7.392   0.833   5.040 -0.7854  1.9116 -4.1358
10892TIP3   OH232628   0.392   3.265   0.256  0.1740 -0.2377 -0.1305
10892TIP3    H132629   0.399   3.347   0.206  0.3465 -1.6041 -2.4071
10892TIP3    H232630   0.450   3.278   0.331  1.3545  1.1807 -1.2421
10893TIP3   OH232631   5.683   0.232   6.094 -0.1197 -0.5190 -0.1435
10893TIP3    H132632   5.665   0.238   6.000 -1.8160 -0.9609  0.1327
10893TIP3    H232633   5.647   0.147   6.120  0.2387 -0.3563  0.9270
10894TIP3   OH232634   2.309   3.644   0.623  0.2425  0.2136  0.3163
10894TIP3    H132635   2.325   3.557   0.659 -0.5959  0.4249  1.2095
10894TIP3    H232636   2.269   3.694   0.695 -2.1857  0.3938 -1.0769
10895TIP3   OH232637   2.708   7.003   3.615 -0.2802 -0.1963 -0.3003
10895TIP3    H132638   2.792   7.027   3.575  0.0555 -1.5176 -0.4117
10895TIP3    H232639   2.731   6.977   3.704 -0.8711  1.5477  0.3866
10896TIP3   OH232640   5.808   1.081   6.106  0.3895  0.0418 -0.6678
10896TIP3    H132641   5.830   0.990   6.124 -0.9829 -0.2571 -0.4950
10896TIP3    H232642   5.733   1.077   6.046  0.8403  1.0533 -1.3309
10897TIP3   OH232643   2.605   3.132   0.493 -0.1914  0.5281  0.0837
10897TIP3    H132644   2.543   3.153   0.563 -0.1078  0.9815  0.0226
10897TIP3    H232645   2.680   3.092   0.538 -0.9254 -0.9094  0.0635
10898TIP3   OH232646   4.976   6.715   6.376  0.4972  0.3664 -0.2632
10898TIP3    H132647   5.012   6.629   6.358 -0.4750  0.1465 -1.1856
10898TIP3    H232648   4.975   6.722   6.472 -0.7595 -1.2185 -0.1500
10899TIP3   OH232649   1.271   4.039   1.216 -0.1081 -0.3374 -0.1314
10899TIP3    H132650   1.274   4.107   1.148 -1.6529  0.6886  0.8198
10899TIP3    H232651   1.294   3.959   1.169  0.3031  0.5862 -1.5679
10900TIP3   OH232652   5.369   6.387   3.318  0.2251  0.3420 -0.1124
10900TIP3    H132653   5.285   6.365   3.278 -0.2827  2.9417 -0.5021
10900TIP3    H232654   5.365   6.348   3.405 -0.4857 -1.3860 -0.8801
10901TIP3   OH232655   4.002   7.359   5.748  0.0410  0.0523  0.1164
10901TIP3    H132656   4.038   7.385   5.664 -0.1228 -2.1309 -0.6431
10901TIP3    H232657   4.064   7.296   5.783 -1.0421 -0.7513  0.6011
10902TIP3   OH232658   6.919   0.122   5.021 -0.2322  0.0307  0.2618
10902TIP3    H132659   6.854   0.175   4.975  0.6725  0.2647 -0.7865
10902TIP3    H232660   6.886   0.115   5.110 -2.5829 -1.3351 -0.6789
10903TIP3   OH232661   1.361   4.756   0.281  0.1589 -0.0440 -0.3580
10903TIP3    H132662   1.435   4.813   0.304 -0.0364  0.4698 -0.9670
10903TIP3    H232663   1.284   4.805   0.308  0.1421 -2.4895  4.4030
10904TIP3   OH232664   0.143   0.594   4.932  0.8260 -0.1544  0.3330
10904TIP3    H132665   0.137   0.608   5.026 -2.4366 -0.1942  0.2068
10904TIP3    H232666   0.200   0.517   4.923  1.2760 -0.0772  2.2496
10905TIP3   OH232667   4.787   2.416   0.041  0.4200 -0.0821  0.5580
10905TIP3    H132668   4.768   2.486   0.103 -1.6557 -1.1962  1.2000
10905TIP3    H232669   4.759   2.336   0.085  1.2908 -1.1589 -0.7977
10906TIP3   OH232670   4.474   5.807   4.949  0.4053  1.2109 -0.4792
10906TIP3    H132671   4.526   5.752   4.890  2.0821  0.5066  1.5516
10906TIP3    H232672   4.470   5.892   4.907  0.9775  0.5291 -1.9216
10907TIP3   OH232673   6.325   0.986   5.068  0.8920  0.2892  0.0727
10907TIP3    H132674   6.377   1.061   5.038  0.7029  0.2177 -0.4405
10907TIP3    H232675   6.348   0.915   5.008  1.0557 -0.0621  0.5462
10908TIP3   OH232676   0.160   4.810   0.971 -0.2619  0.5195  0.2318
10908TIP3    H132677   0.231   4.826   0.910 -0.8805 -0.3612 -0.7424
10908TIP3    H232678   0.126   4.896   0.993  1.0960  0.9386  0.6902
10909TIP3   OH232679   4.923   5.587   5.516 -0.2332 -0.3914 -0.2455
10909TIP3    H132680   4.983   5.627   5.580 -1.1214  1.5664 -0.5824
10909TIP3    H232681   4.836   5.601   5.554 -0.6302 -1.0382 -0.9172
10910TIP3   OH232682   4.210   2.044   0.246  0.0136  0.2346  0.2283
10910TIP3    H132683   4.264   2.090   0.311 -1.4486  0.4245  1.3574
10910TIP3    H232684   4.121   2.051   0.281 -0.3935 -2.5238 -0.1512
10911TIP3   OH232685   5.011   6.954   2.713  0.2731 -0.3376  0.0661
10911TIP3    H132686   5.002   6.949   2.618  1.4337  0.3322 -0.0994
10911TIP3    H232687   5.054   7.039   2.728  0.0963 -0.4360  1.1856
10912TIP3   OH232688   4.459   2.134   0.423  0.0432 -0.0533 -0.0346
10912TIP3    H132689   4.498   2.132   0.511 -2.1244 -1.7504  0.9302
10912TIP3    H232690   4.402   2.211   0.424  2.3722  1.7173 -1.0294
10913TIP3   OH232691   5.611   6.568   5.056 -0.4192  0.0625 -0.6668
10913TIP3    H132692   5.576   6.657   5.060 -0.5430 -0.0735  1.3528
10913TIP3    H232693   5.538   6.512   5.082  0.8965 -0.2987  2.4837
10914TIP3   OH232694   5.085   0.585   6.168 -0.0217  0.5830  0.5387
10914TIP3    H132695   5.161   0.582   6.110 -0.2285 -1.6084  0.3396
10914TIP3    H232696   5.017   0.537   6.120 -1.0070  1.0597  1.4476
10915TIP3   OH232697   5.417   5.691   4.230  0.5029  0.0725 -0.0672
10915TIP3    H132698   5.357   5.721   4.162  0.8792 -1.6900 -1.2188
10915TIP3    H232699   5.362   5.642   4.290  0.5455 -0.3407 -0.3617
10916TIP3   OH232700   4.712   5.395   4.746  0.6257 -0.2175 -0.2405
10916TIP3    H132701   4.664   5.476   4.729  1.9929  0.5613 -0.4614
10916TIP3    H232702   4.762   5.414   4.825 -0.7906 -1.6417  1.0387
10917TIP3   OH232703   5.509   0.473   6.426  0.0387 -0.2411 -0.6253
10917TIP3    H132704   5.594   0.517   6.432 -0.3470  0.4528 -0.1371
10917TIP3    H232705   5.495   0.461   6.332  0.8621 -0.7374 -0.6944
10918TIP3   OH232706   4.498   6.414   5.170  0.0250  0.3668 -0.0349
10918TIP3    H132707   4.506   6.356   5.246 -0.8149 -1.1991 -1.1264
10918TIP3    H232708   4.586   6.452   5.160  0.8861 -1.5298  0.0610
10919TIP3   OH232709   1.037   0.259   6.213 -0.3784 -0.4821 -0.1373
10919TIP3    H132710   1.060   0.335   6.159  0.1292 -1.3063 -1.1007
10919TIP3    H232711   1.034   0.293   6.302  0.3547  0.5615 -0.4967
10920TIP3   OH232712   1.319   2.408   1.175 -0.5212  0.4995  0.2232
10920TIP3    H132713   1.288   2.360   1.252  0.1094 -1.3229 -0.6359
10920TIP3    H232714   1.383   2.470   1.209 -0.4296 -0.1209  1.2041
10921TIP3   OH232715   5.046   4.865   4.764 -0.7886 -0.8970  0.3348
10921TIP3    H132716   5.054   4.916   4.684 -0.5834 -2.2371 -0.5065
10921TIP3    H232717   5.135   4.864   4.801 -0.6958 -1.0560  0.1049
10922TIP3   OH232718   1.375   4.756   1.209 -0.1162  0.0084  0.0392
10922TIP3    H132719   1.346   4.843   1.183  0.8987  0.2366 -0.3339
10922TIP3    H232720   1.294   4.707   1.224 -0.6828  0.9463  0.0285
10923TIP3   OH232721   4.872   0.246   4.953  0.2370  0.0465 -0.4677
10923TIP3    H132722   4.835   0.303   5.021  1.9821  0.5828  0.0338
10923TIP3    H232723   4.796   0.198   4.920 -0.6730 -0.1961  1.8249
10924TIP3   OH232724   2.202   1.596   0.477 -0.3582  0.4235  0.7124
10924TIP3    H132725   2.276   1.606   0.417 -2.0221  0.4748 -1.3926
10924TIP3    H232726   2.159   1.681   0.477 -0.2788  0.4878  2.1836
10925TIP3   OH232727   1.614   0.516   5.366  0.3635 -0.0105  0.1932
10925TIP3    H132728   1.597   0.529   5.459  1.0614  2.3392  0.0396
10925TIP3    H232729   1.527   0.501   5.327  0.0513 -0.7873  1.1708
10926TIP3   OH232730   0.833   6.545   4.612  0.1528  0.1417 -0.4961
10926TIP3    H132731   0.880   6.623   4.585  0.7396  0.5087  1.5132
10926TIP3    H232732   0.901   6.479   4.628 -0.2221 -0.2706 -0.5772
10927TIP3   OH232733   4.200   6.480   3.862 -0.0960 -0.5787  0.9028
10927TIP3    H132734   4.109   6.496   3.836  0.0239 -0.7502  0.3796
10927TIP3    H232735   4.213   6.536   3.939 -0.3843  0.0748  0.4791
10928TIP3   OH232736   4.168   6.143   5.383  0.2465  0.4292  0.4266
10928TIP3    H132737   4.142   6.100   5.301 -0.4531  2.0151 -0.2098
10928TIP3    H232738   4.239   6.088   5.417  0.3483 -0.4225 -1.0921
10929TIP3   OH232739   5.870   6.693   4.551  0.1935  0.1370  0.1786
10929TIP3    H132740   5.909   6.607   4.539 -0.9625 -0.4855  0.8448
10929TIP3    H232741   5.933   6.754   4.511  0.4909 -1.1066 -1.2908
10930TIP3   OH232742   3.391   3.200   0.521  0.1795  0.3023 -0.2324
10930TIP3    H132743   3.397   3.163   0.433  0.3908  1.3640 -0.6678
10930TIP3    H232744   3.450   3.275   0.520  0.9250 -0.2517  1.1155
10931TIP3   OH232745   6.835   5.694   5.525  0.4147  0.1357 -0.6381
10931TIP3    H132746   6.785   5.769   5.556  1.0415  0.7327 -1.0448
10931TIP3    H232747   6.853   5.643   5.604  0.7886  0.9064 -0.2186
10932TIP3   OH232748   6.115   6.916   4.934 -0.4472 -0.2767  0.2791
10932TIP3    H132749   6.091   6.957   4.850 -0.4922 -0.8698  0.0004
10932TIP3    H232750   6.209   6.900   4.927  0.0233  1.8407  1.2843
10933TIP3   OH232751   5.173   6.531   5.139  0.0142 -0.6695 -0.0923
10933TIP3    H132752   5.088   6.533   5.183 -0.9694 -0.7139 -1.9514
10933TIP3    H232753   5.185   6.621   5.108  0.8587 -0.5588  0.5500
10934TIP3   OH232754   6.980   1.662   5.364 -0.1887 -0.3475  0.3033
10934TIP3    H132755   6.928   1.742   5.355  0.6465  0.0041 -1.4190
10934TIP3    H232756   7.064   1.692   5.398  0.5887 -0.3156 -1.6041
10935TIP3   OH232757   1.086   1.034   5.892 -0.4272  0.3207 -0.0031
10935TIP3    H132758   1.104   1.100   5.825  0.6943 -0.4028 -0.4286
10935TIP3    H232759   1.002   0.996   5.867 -0.5208  0.7883 -0.4089
10936TIP3   OH232760   3.144   5.523   5.256 -0.2030  0.5035 -0.3291
10936TIP3    H132761   3.068   5.550   5.206 -0.2176  0.4851 -0.3172
10936TIP3    H232762   3.205   5.596   5.250  0.4534 -0.1376 -1.7293
10937TIP3   OH232763   7.805   1.815   4.103  0.7600 -0.1098  0.1655
10937TIP3    H132764   7.804   1.763   4.023 -1.0973  0.7285 -0.3837
10937TIP3    H232765   7.819   1.751   4.173 -0.0994 -1.1785 -0.6207
10938TIP3   OH232766   5.198   0.524   4.990 -0.1354  0.3694  0.0877
10938TIP3    H132767   5.211   0.492   4.900  1.0576  1.1691 -0.0273
10938TIP3    H232768   5.232   0.454   5.045 -1.5903 -0.4659 -0.0583
10939TIP3   OH232769   7.677   0.442   3.997 -0.3308 -0.1758 -0.2366
10939TIP3    H132770   7.605   0.380   3.981  1.2038 -1.3196 -3.2646
10939TIP3    H232771   7.639   0.528   3.977 -0.8369 -0.7840 -2.0403
10940TIP3   OH232772   2.610   1.229   4.376 -0.3073 -0.1433  0.1176
10940TIP3    H132773   2.625   1.271   4.461 -1.0036  1.3288 -0.4717
10940TIP3    H232774   2.517   1.242   4.359  0.4290  2.4136 -2.3316
10941TIP3   OH232775   4.001   4.507   4.063  0.0936 -0.5347 -0.9465
10941TIP3    H132776   3.995   4.421   4.105 -0.3999 -0.5082 -0.9564
10941TIP3    H232777   3.995   4.489   3.970 -1.1554 -0.4009 -0.9048
10942TIP3   OH232778   4.849   5.015   4.304 -0.2289 -0.6822  0.0693
10942TIP3    H132779   4.802   5.073   4.364  0.4174 -0.3313  0.2406
10942TIP3    H232780   4.868   4.937   4.357  0.7739 -0.1704  0.4683
10943TIP3   OH232781   1.845   1.784   0.386 -0.6247  0.1996  0.3751
10943TIP3    H132782   1.939   1.802   0.388 -0.4741 -0.6494  1.9354
10943TIP3    H232783   1.817   1.795   0.477 -2.2008  1.2405 -0.2201
10944TIP3   OH232784   1.467   1.029   5.764  0.3082 -0.2114  0.5519
10944TIP3    H132785   1.471   0.978   5.844 -2.7052  0.3805  1.1376
10944TIP3    H232786   1.403   0.983   5.709  2.3230 -0.6087 -1.5514
10945TIP3   OH232787   3.691   6.012   6.228  0.1586 -0.0042 -0.2028
10945TIP3    H132788   3.669   6.064   6.306  0.6481  2.2757 -1.5482
10945TIP3    H232789   3.629   6.041   6.161  0.6723 -0.9082 -1.0777
10946TIP3   OH232790   7.135   6.572   5.290 -0.5868  0.1352  0.2343
10946TIP3    H132791   7.108   6.489   5.251 -0.6811  0.4540 -0.3824
10946TIP3    H232792   7.096   6.572   5.378 -0.3450 -0.5956  0.3419
10947TIP3   OH232793   5.428   5.116   6.258  0.3492  0.1311 -0.1602
10947TIP3    H132794   5.436   5.089   6.166 -1.6283 -0.2185 -0.2718
10947TIP3    H232795   5.427   5.034   6.307 -0.0876  0.2490  0.0305
10948TIP3   OH232796   6.703   6.078   5.399 -0.2832 -0.2877  0.0595
10948TIP3    H132797   6.713   5.990   5.434 -0.5670 -1.0451 -1.6688
10948TIP3    H232798   6.790   6.102   5.369 -0.2836 -0.1413  0.1764
10949TIP3   OH232799   2.832   6.376   5.318  0.1465  0.2207  0.7222
10949TIP3    H132800   2.814   6.354   5.410  0.3900  0.4955  0.8337
10949TIP3    H232801   2.909   6.432   5.321  0.5597 -0.3239  0.2938
10950TIP3   OH232802   6.953   5.873   4.218  0.2752  0.4421 -0.0345
10950TIP3    H132803   6.900   5.947   4.190  1.3021  1.4503  0.6313
10950TIP3    H232804   6.965   5.886   4.312  0.0482 -0.8327  0.1682
10951TIP3   OH232805   5.560   6.908   5.116 -0.2006  0.3183  0.7246
10951TIP3    H132806   5.649   6.901   5.150 -0.1761 -1.0173  0.4479
10951TIP3    H232807   5.504   6.905   5.193 -0.1194 -2.0241  0.7493
10952TIP3   OH232808   1.553   1.577   0.032 -0.3385  0.2738 -0.0622
10952TIP3    H132809   1.487   1.646   0.032 -1.0094 -0.3571  0.1878
10952TIP3    H232810   1.624   1.611   0.087 -0.9727  0.4787  0.6352
10953TIP3   OH232811   4.204   2.179   0.860 -0.0497 -0.3876 -0.0193
10953TIP3    H132812   4.112   2.200   0.844 -0.4020 -1.1152  0.9868
10953TIP3    H232813   4.220   2.099   0.809  0.0789 -0.1648 -0.3321
10954TIP3   OH232814   6.708   5.769   6.379 -0.1573 -0.4312 -0.2759
10954TIP3    H132815   6.749   5.837   6.433 -2.7932  1.0261 -0.0438
10954TIP3    H232816   6.632   5.740   6.430 -1.1160 -0.9996 -1.9906
10955TIP3   OH232817   0.757   2.525   1.586  0.2326  0.1281 -0.2564
10955TIP3    H132818   0.735   2.445   1.633 -1.8536  0.5484 -0.4785
10955TIP3    H232819   0.801   2.495   1.506 -2.4383 -0.9614 -1.3981
10956TIP3   OH232820   3.367   7.378   5.100  0.1534 -0.1619  0.1926
10956TIP3    H132821   3.391   7.451   5.157  0.8503 -0.2282 -0.0108
10956TIP3    H232822   3.451   7.341   5.071 -0.1906  0.2385 -1.3407
10957TIP3   OH232823   2.278   3.836   1.371  0.0648  0.5046 -0.2035
10957TIP3    H132824   2.190   3.830   1.407  0.0934  0.6940 -0.0999
10957TIP3    H232825   2.312   3.920   1.403 -0.1015  0.9288 -1.1055
10958TIP3   OH232826   0.042   1.029   5.769  0.1947  0.4303 -0.3501
10958TIP3    H132827   0.070   0.952   5.818  0.1337 -0.0143 -1.0026
10958TIP3    H232828   0.079   1.016   5.681 -0.9380  0.4898 -0.8419
10959TIP3   OH232829   2.093   0.743   5.805  0.2045  0.7688  0.2714
10959TIP3    H132830   2.107   0.762   5.897 -4.0791  1.3342  0.9146
10959TIP3    H232831   2.099   0.648   5.798  1.4441  0.7932  0.9319
10960TIP3   OH232832   4.386   0.782   5.364 -0.0177  0.2901 -0.4960
10960TIP3    H132833   4.387   0.862   5.416 -0.6162 -0.3282  0.4687
10960TIP3    H232834   4.473   0.745   5.377 -0.0321  0.3394 -0.2527
10961TIP3   OH232835   1.084   3.807   0.212 -0.7776 -0.0235  0.0797
10961TIP3    H132836   1.093   3.811   0.117 -0.1938 -0.4274  0.1191
10961TIP3    H232837   1.023   3.735   0.228  0.1911 -0.8427  0.0781
10962TIP3   OH232838   6.958   0.299   5.644 -0.0868  0.2962 -0.3351
10962TIP3    H132839   6.952   0.367   5.711  0.3367  0.2642 -0.2634
10962TIP3    H232840   6.947   0.217   5.692 -0.4678  0.3030 -0.4037
10963TIP3   OH232841   4.981   3.053   1.941  0.1234  0.5438  0.0196
10963TIP3    H132842   4.945   3.116   2.003  1.8279  0.9329  0.6430
10963TIP3    H232843   4.970   3.094   1.855  0.2007  1.1870  0.3162
10964TIP3   OH232844   4.791   7.096   6.264  0.1759 -0.2148  0.0045
10964TIP3    H132845   4.755   7.181   6.240  1.8157  0.7140  0.7031
10964TIP3    H232846   4.877   7.116   6.301  0.0752 -2.0756  1.3346
10965TIP3   OH232847   2.556   4.506   1.765 -0.2174 -0.0744  0.3242
10965TIP3    H132848   2.461   4.497   1.768 -0.3393 -0.0496 -2.7515
10965TIP3    H232849   2.573   4.598   1.785 -0.7177 -0.3615  2.2048
10966TIP3   OH232850   6.619   1.257   4.474 -0.7379  0.5692 -0.1582
10966TIP3    H132851   6.541   1.201   4.479 -0.9355  0.9821  1.7279
10966TIP3    H232852   6.608   1.319   4.546  1.9591 -0.1627  0.9538
10967TIP3   OH232853   3.912   7.332   3.727 -0.1494  0.4371 -0.3462
10967TIP3    H132854   4.003   7.353   3.748 -0.4142  1.9754 -0.6574
10967TIP3    H232855   3.876   7.296   3.808  1.1991 -1.8156 -0.7189
10968TIP3   OH232856   5.478   7.038   6.125  0.0427  0.2454  0.4475
10968TIP3    H132857   5.571   7.020   6.140  0.8977  3.0683 -0.9308
10968TIP3    H232858   5.448   7.078   6.206  0.3684  0.3988  0.4964
10969TIP3   OH232859   6.233   6.861   4.235 -0.7633 -0.0846  0.3564
10969TIP3    H132860   6.212   6.940   4.185  1.4605 -0.4349 -1.2177
10969TIP3    H232861   6.327   6.867   4.252 -0.9067 -1.4966  1.8548
10970TIP3   OH232862   4.516   2.843   0.209 -0.1290  0.2005 -0.2951
10970TIP3    H132863   4.564   2.819   0.289 -0.3397  1.5142  0.2420
10970TIP3    H232864   4.503   2.761   0.163 -1.0291 -0.7405  1.6009
10971TIP3   OH232865   2.966   6.186   4.173  0.2424 -0.6801  0.3511
10971TIP3    H132866   2.986   6.134   4.251  1.1752 -1.7968 -0.6094
10971TIP3    H232867   3.015   6.144   4.103 -1.0363 -0.0476 -0.9622
10972TIP3   OH232868   2.409   7.228   5.941  0.1913  0.5947 -0.3252
10972TIP3    H132869   2.356   7.230   5.861  0.2772 -3.3333 -0.5759
10972TIP3    H232870   2.499   7.234   5.910  0.1524  0.8964 -0.3809
10973TIP3   OH232871   0.101   0.364   4.650  0.2246  0.1285  0.0133
10973TIP3    H132872   0.030   0.332   4.705  1.1182 -0.7266  0.6815
10973TIP3    H232873   0.073   0.344   4.561 -0.1274 -0.6902  0.3088
10974TIP3   OH232874   3.606   6.844   4.755  0.2314 -0.3042 -0.0327
10974TIP3    H132875   3.583   6.753   4.734 -0.0276  0.1957 -1.9739
10974TIP3    H232876   3.557   6.863   4.835 -1.8757 -0.9856 -1.1445
10975TIP3   OH232877   3.035   3.539   0.566  0.2326 -0.1776 -0.0229
10975TIP3    H132878   3.052   3.571   0.655  0.5039  0.1820 -0.2031
10975TIP3    H232879   3.063   3.448   0.567 -0.9231 -0.5376  0.6105
10976TIP3   OH232880   4.727   1.673   3.435  0.2658 -0.0055  0.0037
10976TIP3    H132881   4.695   1.697   3.348 -1.0314  0.0110  0.4688
10976TIP3    H232882   4.647   1.652   3.484  0.8159  1.6867  1.7040
10977TIP3   OH232883   4.635   6.245   4.603 -0.8154  0.1190 -0.6336
10977TIP3    H132884   4.647   6.260   4.697 -0.3903 -1.4426 -0.4326
10977TIP3    H232885   4.723   6.253   4.566 -0.6252 -1.5568 -0.5655
10978TIP3   OH232886   4.624   6.039   5.328 -0.2362  0.3115  0.4430
10978TIP3    H132887   4.651   6.082   5.246  0.0409  0.6442  0.7062
10978TIP3    H232888   4.565   6.101   5.370 -0.0384  0.3277  0.7020
10979TIP3   OH232889   7.497   0.096   3.236 -0.4833 -0.2536  0.0400
10979TIP3    H132890   7.554   0.170   3.254  0.5414 -0.6707 -1.3918
10979TIP3    H232891   7.456   0.117   3.153  0.1736 -1.4853 -0.6130
10980TIP3   OH232892   0.921   0.208   4.047 -0.5132 -0.0251  0.3083
10980TIP3    H132893   0.895   0.300   4.060 -1.9969 -0.3920 -0.0594
10980TIP3    H232894   0.986   0.212   3.976 -0.1868  0.7923  0.6424
10981TIP3   OH232895   2.539   1.217   1.088 -0.3354 -0.2012  0.1463
10981TIP3    H132896   2.510   1.137   1.130  0.5156 -1.1852 -1.1025
10981TIP3    H232897   2.461   1.273   1.085 -0.5097 -0.2903  2.5652
10982TIP3   OH232898   2.850   2.373   1.349 -0.1396  0.1976 -0.0437
10982TIP3    H132899   2.756   2.381   1.332 -0.5298 -1.7408  1.0265
10982TIP3    H232900   2.860   2.404   1.440  0.3748  1.0479 -0.3834
10983TIP3   OH232901   3.422   6.928   2.701  0.6941  0.7785  0.0400
10983TIP3    H132902   3.429   7.021   2.720 -0.1742  1.0270 -0.7954
10983TIP3    H232903   3.330   6.916   2.676  0.4623 -0.5486  1.4630
10984TIP3   OH232904   4.614   2.641   0.382 -0.2664 -0.1316 -0.0080
10984TIP3    H132905   4.683   2.611   0.324 -0.1392  1.5799 -0.7776
10984TIP3    H232906   4.653   2.638   0.470  1.4427  2.6093 -0.6274
10985TIP3   OH232907   6.448   5.994   5.817 -0.1487  0.5225 -0.1403
10985TIP3    H132908   6.395   5.915   5.826  0.0809  0.3824 -0.0142
10985TIP3    H232909   6.530   5.973   5.862 -0.3591  1.0785  0.5206
10986TIP3   OH232910   6.915   1.388   5.413 -0.8140 -0.0978 -0.0496
10986TIP3    H132911   6.827   1.379   5.376 -0.1352 -0.4509 -1.6414
10986TIP3    H232912   6.950   1.466   5.371 -0.6456  0.4891  1.1803
10987TIP3   OH232913   7.573   0.682   4.143  0.2256  0.4393 -0.2306
10987TIP3    H132914   7.645   0.734   4.178  1.3115 -0.6163 -0.8659
10987TIP3    H232915   7.576   0.697   4.049 -1.5642  1.8516 -0.0829
10988TIP3   OH232916   3.849   3.300   0.484 -0.1654 -0.4777 -0.1926
10988TIP3    H132917   3.868   3.334   0.396  0.2564  1.8092  0.7521
10988TIP3    H232918   3.779   3.356   0.517 -0.7616 -1.7254  0.7004
10989TIP3   OH232919   2.316   0.535   4.599  0.5342 -0.0795  0.1330
10989TIP3    H132920   2.331   0.627   4.619  1.5665 -0.2660  0.2910
10989TIP3    H232921   2.372   0.518   4.523 -0.2849 -0.3728 -0.4101
10990TIP3   OH232922   6.457   5.420   5.713 -0.1583 -0.4735  0.5133
10990TIP3    H132923   6.441   5.506   5.674 -0.3152 -0.9862 -0.5404
10990TIP3    H232924   6.538   5.432   5.764 -0.2708  0.3364  0.5054
10991TIP3   OH232925   6.294   6.402   4.706  0.2740 -0.0919  0.2237
10991TIP3    H132926   6.377   6.358   4.686  0.4532  0.2915  0.1055
10991TIP3    H232927   6.243   6.395   4.625  1.0819  1.6498 -0.4687
10992TIP3   OH232928   7.094   0.238   5.995 -0.2321 -0.1719  0.5775
10992TIP3    H132929   7.059   0.193   5.918  0.4554  0.0286  0.1475
10992TIP3    H232930   7.047   0.199   6.069 -1.2606 -0.0052  0.0176
10993TIP3   OH232931   7.695   6.520   5.099  0.1627  0.3456  0.1643
10993TIP3    H132932   7.719   6.559   5.015  2.0670  0.5044  0.7614
10993TIP3    H232933   7.721   6.585   5.164  0.9161 -0.7907  1.0177
10994TIP3   OH232934   7.775   5.539   4.268 -0.3274 -0.2591 -1.0027
10994TIP3    H132935   7.743   5.528   4.178 -1.3111  1.2792 -0.8419
10994TIP3    H232936   7.718   5.605   4.307  1.7765  1.0689 -0.0743
10995TIP3   OH232937   0.373   0.210   3.052 -0.1289  0.3017  0.1555
10995TIP3    H132938   0.430   0.276   3.092 -0.0603  0.4130 -0.1254
10995TIP3    H232939   0.302   0.198   3.116 -1.0746  1.9110 -0.5281
10996TIP3   OH232940   5.713   5.986   5.531  0.1618 -0.3688  0.1383
10996TIP3    H132941   5.776   5.987   5.459 -0.2445 -1.5304 -0.2402
10996TIP3    H232942   5.690   6.078   5.545  1.5004  0.0116 -0.1020
10997TIP3   OH232943   7.765   5.289   5.475 -0.5597  0.2940  0.7681
10997TIP3    H132944   7.693   5.230   5.452 -0.8025  0.3472  1.4011
10997TIP3    H232945   7.834   5.231   5.507 -1.0182  0.3979  1.9605
10998TIP3   OH232946   6.698   5.953   5.989  0.2098 -0.5479 -0.0528
10998TIP3    H132947   6.730   6.029   6.038 -0.8966 -1.0706  1.5008
10998TIP3    H232948   6.778   5.907   5.962  0.8366 -0.4533  1.5785
10999TIP3   OH232949   5.996   6.463   5.026 -0.2714 -0.0439  0.2572
10999TIP3    H132950   6.000   6.559   5.025  0.5196 -0.0738 -0.2955
10999TIP3    H232951   5.923   6.442   5.084 -0.2825  0.8918  0.5858
11000TIP3   OH232952   6.601   7.361   4.964 -0.4964  0.0946  0.1489
11000TIP3    H132953   6.684   7.407   4.959  1.0856 -2.5074  1.4493
11000TIP3    H232954   6.599   7.305   4.886 -0.1377 -1.2432  1.0828
11001TIP3   OH232955   3.936   3.468   0.246 -0.6004  0.3745 -0.2034
11001TIP3    H132956   4.019   3.430   0.273 -1.2366 -1.3794 -0.6321
11001TIP3    H232957   3.925   3.439   0.155 -1.8165  0.3275 -0.0523
11002TIP3   OH232958   5.430   3.488   0.921 -0.1110 -0.2809  0.4742
11002TIP3    H132959   5.513   3.511   0.963  0.5957 -0.5727 -0.7362
11002TIP3    H232960   5.417   3.557   0.855 -0.8746 -0.1960  0.7101
11003TIP3   OH232961   0.315   2.035   5.211 -0.1464 -0.2309 -0.7217
11003TIP3    H132962   0.292   2.015   5.121  0.6669  2.7113 -1.6346
11003TIP3    H232963   0.284   2.124   5.225 -0.1660 -0.5945  1.8921
11004TIP3   OH232964   0.406   1.648   4.283 -0.2139  0.1739 -0.6099
11004TIP3    H132965   0.493   1.687   4.288  0.1046 -0.2747 -2.2602
11004TIP3    H232966   0.421   1.558   4.256 -1.0268 -0.8013  2.0239
11005TIP3   OH232967   0.241   6.617   4.662  0.2276  0.3200 -0.5838
11005TIP3    H132968   0.155   6.628   4.621  0.7238 -0.1379 -1.7523
11005TIP3    H232969   0.275   6.536   4.626  0.3910 -0.4505  1.2578
11006TIP3   OH232970   0.171   6.630   5.304 -0.4130 -0.0142  0.0376
11006TIP3    H132971   0.216   6.706   5.340 -0.8503  1.0368 -1.6220
11006TIP3    H232972   0.103   6.609   5.369  0.1225  0.6119  0.7989
11007TIP3   OH232973   7.526   0.687   3.862  0.5021  0.3579  0.1421
11007TIP3    H132974   7.557   0.638   3.785 -1.5696  0.3511 -0.7048
11007TIP3    H232975   7.502   0.773   3.828  1.1827  0.9378  1.0978
11008TIP3   OH232976   0.436   0.949   6.212  0.5742  1.1422 -0.6876
11008TIP3    H132977   0.419   1.040   6.187  0.9251  1.4330  0.0822
11008TIP3    H232978   0.490   0.956   6.291 -1.3041  0.2842  0.7146
11009TIP3   OH232979   6.197   6.651   2.324  0.0986 -0.4591  0.1662
11009TIP3    H132980   6.137   6.675   2.254 -0.8775 -1.1548  0.7535
11009TIP3    H232981   6.262   6.596   2.281 -2.2143 -3.4492  0.3360
11010TIP3   OH232982   5.849   4.594   2.925 -0.7642 -0.1461 -0.4230
11010TIP3    H132983   5.879   4.656   2.859 -2.0687  0.8385 -0.0944
11010TIP3    H232984   5.897   4.514   2.905  3.4680  1.8354  1.1183
11011TIP3   OH232985   0.399   1.044   3.818 -0.5935 -0.1003 -0.4868
11011TIP3    H132986   0.414   1.063   3.726 -1.5839  0.8632 -0.4635
11011TIP3    H232987   0.433   0.956   3.831  1.3339  0.5097 -1.3174
11012TIP3   OH232988   4.441   6.931   4.781 -0.1781  0.2469 -0.0220
11012TIP3    H132989   4.511   6.870   4.804  1.0783  1.7008  0.1216
11012TIP3    H232990   4.474   6.976   4.702 -0.4321  1.7374  0.6922
11013TIP3   OH232991   3.959   5.407   1.099  0.0452 -0.0416  0.5483
11013TIP3    H132992   4.004   5.460   1.034 -1.3495 -1.6490 -1.7857
11013TIP3    H232993   3.928   5.471   1.164  2.7133  1.4057  0.4701
11014TIP3   OH232994   5.350   6.707   2.797 -0.5013 -1.0423  0.5935
11014TIP3    H132995   5.417   6.721   2.730  0.2007 -0.5319  1.3729
11014TIP3    H232996   5.376   6.626   2.841 -1.8111 -2.1876 -0.7292
11015TIP3   OH232997   7.153   6.625   5.628 -0.5381  0.5730  0.2690
11015TIP3    H132998   7.141   6.704   5.681 -0.4212  1.7221 -1.3839
11015TIP3    H232999   7.246   6.623   5.608 -1.0121  1.8150 -2.3488
11016TIP3   OH233000   1.859   0.705   4.093 -0.2231 -0.3491 -0.1412
11016TIP3    H133001   1.893   0.794   4.098 -0.7374 -0.2146  1.2524
11016TIP3    H233002   1.932   0.653   4.058  0.3190  0.4878 -0.2571
11017TIP3   OH233003   2.187   0.124   4.940 -0.2391 -0.3242 -0.1144
11017TIP3    H133004   2.223   0.051   4.888  1.2430  0.8901 -0.8345
11017TIP3    H233005   2.264   0.164   4.980 -1.2196 -0.2010  1.6670
11018TIP3   OH233006   5.729   7.141   4.527  0.2681 -0.0383 -0.0865
11018TIP3    H133007   5.715   7.145   4.622  2.9981  0.7719  0.3324
11018TIP3    H233008   5.686   7.060   4.500  0.2560 -0.7698  2.0017
11019TIP3   OH233009   6.505   1.138   3.182 -0.3703  0.6384  0.0360
11019TIP3    H133010   6.482   1.197   3.110 -1.3623  2.0752  1.5012
11019TIP3    H233011   6.578   1.183   3.227 -0.2591  0.1234  0.3740
11020TIP3   OH233012   2.377   0.324   4.076 -0.6149 -0.1083 -0.2844
11020TIP3    H133013   2.354   0.364   3.992  0.3712 -1.4010 -1.1825
11020TIP3    H233014   2.470   0.342   4.086 -0.6449 -0.3039  0.3609
11021TIP3   OH233015   0.217   2.160   4.567  0.0924 -0.5650  0.4508
11021TIP3    H133016   0.174   2.230   4.616  0.6134 -0.2668  0.4789
11021TIP3    H233017   0.273   2.205   4.504  0.5200 -0.9576  0.5472
11022TIP3   OH233018   7.728   1.153   4.392 -0.3833  0.4166  0.2246
11022TIP3    H133019   7.635   1.158   4.414 -0.1007  0.2552  1.5554
11022TIP3    H233020   7.763   1.238   4.418 -0.0387  0.2259  0.3972
11023TIP3   OH233021   5.551   7.481   5.892  0.1783 -0.1934 -0.2722
11023TIP3    H133022   5.506   7.458   5.811  1.4277 -0.0671 -1.0141
11023TIP3    H233023   5.607   7.405   5.911  0.9747  0.3855 -0.3127
11024TIP3   OH233024   4.748   6.856   5.764  0.1760  0.4165  0.3324
11024TIP3    H133025   4.665   6.842   5.719 -0.0946  1.3035  0.5490
11024TIP3    H233026   4.741   6.805   5.844 -0.2011  0.5762  0.4015
11025TIP3   OH233027   1.090   1.400   4.143  0.1167 -0.4083 -0.1452
11025TIP3    H133028   1.056   1.396   4.053  0.1115  0.3117 -0.1756
11025TIP3    H233029   1.140   1.319   4.153 -1.2818 -1.3037 -0.2304
11026TIP3   OH233030   6.666   6.503   4.300  0.0683  0.0812  0.5553
11026TIP3    H133031   6.683   6.555   4.221 -0.7941  0.0267  0.3333
11026TIP3    H233032   6.730   6.535   4.363 -0.9454  1.9398  0.6558
11027TIP3   OH233033   6.784   7.230   6.303 -0.1998  0.6043  0.1005
11027TIP3    H133034   6.815   7.311   6.344  1.9066 -1.2933  2.4587
11027TIP3    H233035   6.713   7.200   6.360 -2.2306  1.7059 -1.8028
11028TIP3   OH233036   6.888   6.077   4.444  0.4562  0.1271  0.0197
11028TIP3    H133037   6.834   6.021   4.388  0.5074 -1.8746  1.8848
11028TIP3    H233038   6.830   6.148   4.471  0.3130  0.8873 -2.1942
11029TIP3   OH233039   1.064   5.053   4.548 -0.1975 -0.3519 -0.1295
11029TIP3    H133040   1.142   5.089   4.591  0.6862 -1.6077 -0.6799
11029TIP3    H233041   1.002   5.040   4.620  0.2812  0.1544  0.3896
11030TIP3   OH233042   5.835   6.561   3.501  0.1420  0.1637  0.4512
11030TIP3    H133043   5.796   6.647   3.484  0.1829  0.5672  2.3637
11030TIP3    H233044   5.923   6.567   3.464 -0.4457  0.3468 -0.9520
11031TIP3   OH233045   3.815   2.145   0.180 -0.3500 -0.5118 -0.6806
11031TIP3    H133046   3.762   2.108   0.109 -1.9684 -0.6402  0.5641
11031TIP3    H233047   3.809   2.080   0.250  0.4724  0.0487 -0.0889
11032TIP3   OH233048   4.570   6.516   4.405  0.1373  0.0340 -0.2787
11032TIP3    H133049   4.608   6.467   4.333  0.3346  1.5047 -1.2097
11032TIP3    H233050   4.482   6.539   4.374  0.2023  0.6255 -0.0413
11033TIP3   OH233051   0.936   0.040   6.074  0.3016 -0.0009 -0.0565
11033TIP3    H133052   0.972   0.127   6.097 -0.1852  0.2946 -0.4111
11033TIP3    H233053   0.860   0.030   6.131 -1.2936  1.0089 -1.9429
11034TIP3   OH233054   0.100   6.491   4.973 -0.5993  0.0828  0.1067
11034TIP3    H133055   0.193   6.513   4.972 -0.8079  1.0053  0.5539
11034TIP3    H233056   0.055   6.575   4.981 -1.3875 -0.4927  2.2203
11035TIP3   OH233057   5.830   3.577   0.484 -0.1860 -0.1672  0.4253
11035TIP3    H133058   5.803   3.558   0.573 -1.9741  2.3150  0.4604
11035TIP3    H233059   5.899   3.643   0.493  1.5501 -1.8801  0.0524
11036TIP3   OH233060   4.150   6.678   1.191 -0.1754 -0.1232 -0.1599
11036TIP3    H133061   4.243   6.655   1.200  1.0438  4.1333 -0.9075
11036TIP3    H233062   4.127   6.649   1.103  0.3583 -1.3824  0.0998
11037TIP3   OH233063   6.686   6.925   3.998  0.2673  0.1314 -0.1991
11037TIP3    H133064   6.753   6.981   4.036 -1.9232  1.4853  1.7823
11037TIP3    H233065   6.615   6.985   3.975 -0.4604 -1.3281 -1.8464
11038TIP3   OH233066   5.469   6.476   3.918  0.1663  0.1574 -0.6660
11038TIP3    H133067   5.460   6.512   3.830  0.4902  1.1214 -0.3139
11038TIP3    H233068   5.554   6.509   3.948  0.1619 -0.3629 -0.0813
11039TIP3   OH233069   5.061   6.774   6.108  0.1247  0.1447 -0.0761
11039TIP3    H133070   4.969   6.760   6.086  0.5410 -0.4773 -1.4664
11039TIP3    H233071   5.096   6.685   6.119  1.1043  0.2956 -1.8898
11040TIP3   OH233072   6.407   5.879   4.302 -0.2474 -0.3454  0.2109
11040TIP3    H133073   6.375   5.792   4.326 -1.3824 -0.4764 -1.6662
11040TIP3    H233074   6.380   5.890   4.211  0.1289  1.8614  0.3389
11041TIP3   OH233075   5.090   7.203   6.294 -0.3399 -0.5654  0.2662
11041TIP3    H133076   5.098   7.160   6.209 -0.7603 -0.5349  0.2070
11041TIP3    H233077   5.169   7.178   6.341 -0.9232 -1.9976  0.5062
11042TIP3   OH233078   7.411   0.307   3.892  0.2270 -0.4212  0.5459
11042TIP3    H133079   7.471   0.345   3.828  1.8844 -1.7553  1.2784
11042TIP3    H233080   7.362   0.241   3.842 -0.3142  0.3541  0.0494
11043TIP3   OH233081   6.533   6.217   5.248  0.2508  0.0275 -0.3634
11043TIP3    H133082   6.554   6.167   5.169  1.6256  1.5325 -0.9779
11043TIP3    H233083   6.575   6.168   5.318  2.8455  1.0428 -1.1401
11044TIP3   OH233084   1.142   0.886   4.345 -0.3267  0.2209 -0.1065
11044TIP3    H133085   1.061   0.840   4.367  0.0204 -0.1448  0.4096
11044TIP3    H233086   1.209   0.848   4.402  0.2080  0.5416 -0.5025
11045TIP3   OH233087   1.037   6.050   4.929 -0.1175  0.4900  0.0094
11045TIP3    H133088   1.049   5.954   4.931  1.1386  0.6348  0.3083
11045TIP3    H233089   0.964   6.066   4.988 -0.5080 -0.3140 -0.2420
11046TIP3   OH233090   5.734   6.667   2.610 -0.2920  0.7883 -0.2982
11046TIP3    H133091   5.760   6.666   2.518  0.1778  0.8590 -0.1673
11046TIP3    H233092   5.653   6.718   2.611  0.9180  2.7742 -0.3500
11047TIP3   OH233093   5.543   6.670   4.775 -0.2569  0.0231  0.3223
11047TIP3    H133094   5.585   6.756   4.763  1.3153 -0.4880  1.9773
11047TIP3    H233095   5.606   6.620   4.826 -1.1218 -2.1791 -0.7386
11048TIP3   OH233096   7.876   5.116   6.171 -0.0063  0.5543 -0.1328
11048TIP3    H133097   7.858   5.145   6.261  1.0861 -0.0170  0.2791
11048TIP3    H233098   7.826   5.036   6.161 -1.8429  1.7544 -0.7708
11049TIP3   OH233099   7.089   6.045   4.811  0.1338  0.3314  0.9828
11049TIP3    H133100   7.087   6.113   4.743  1.1649 -0.6211 -0.0179
11049TIP3    H233101   7.144   6.082   4.880  0.4170  0.6411  0.5897
11050TIP3   OH233102   4.890   7.100   4.212 -0.2571 -0.1259 -0.3868
11050TIP3    H133103   4.837   7.022   4.226 -1.9718  0.9464 -0.7425
11050TIP3    H233104   4.980   7.070   4.219 -0.9241 -1.8134  1.1194
11051TIP3   OH233105   2.688   0.065   4.518 -0.5642 -0.1315 -0.1867
11051TIP3    H133106   2.764   0.118   4.496 -0.3244 -0.5869 -0.4709
11051TIP3    H233107   2.720  -0.025   4.515 -1.4852 -0.4291 -1.8526
11052TIP3   OH233108   5.234   6.049   4.987 -0.0822 -0.1608 -0.2994
11052TIP3    H133109   5.299   6.091   4.930  0.3995 -1.5667 -0.8010
11052TIP3    H233110   5.203   5.974   4.937  0.1187 -1.2473  1.1642
11053TIP3   OH233111   0.062   6.879   6.092  0.2652 -0.3472  0.1734
11053TIP3    H133112   0.082   6.787   6.111 -0.6816 -0.6769 -0.3932
11053TIP3    H233113   0.123   6.903   6.021 -2.1355 -1.7267 -2.4433
11054TIP3   OH233114   0.464   0.306   5.216  0.0453 -0.4979  0.3102
11054TIP3    H133115   0.557   0.312   5.195  0.0179 -1.4930 -0.1252
11054TIP3    H233116   0.460   0.245   5.290 -0.1068  0.8903  1.4507
11055TIP3   OH233117   6.352   6.502   2.974 -0.7706 -0.0777  0.6807
11055TIP3    H133118   6.443   6.509   3.003 -0.6417 -1.2050  0.5341
11055TIP3    H233119   6.324   6.593   2.962  1.3044  0.2295 -2.3673
11056TIP3   OH233120   6.804   5.371   4.462  0.5993 -0.5874 -0.3285
11056TIP3    H133121   6.858   5.450   4.459  1.3939 -1.1016  0.4515
11056TIP3    H233122   6.817   5.330   4.377  1.8596 -0.9958  0.0614
11057TIP3   OH233123   6.104   7.234   5.822 -0.0355 -0.0464  0.1076
11057TIP3    H133124   6.036   7.213   5.886 -0.3246 -0.2418 -0.2612
11057TIP3    H233125   6.102   7.330   5.817  0.3682  0.0020  0.7985
11058TIP3   OH233126   7.733   6.461   4.456 -0.2065  0.1826  0.2604
11058TIP3    H133127   7.716   6.390   4.394 -0.2876 -0.7379  1.3075
11058TIP3    H233128   7.770   6.417   4.533 -0.2619  1.2788  0.9271
11059TIP3   OH233129   0.689   0.013   6.257  0.3527 -0.4301 -0.2503
11059TIP3    H133130   0.649   0.004   6.170  1.6897 -0.0532 -0.9121
11059TIP3    H233131   0.642   0.087   6.297  0.0037 -0.3528 -0.7963
11060TIP3   OH233132   0.639   1.820   4.920  0.3943  0.3867 -0.1163
11060TIP3    H133133   0.549   1.826   4.888  0.6838 -0.2339 -1.0469
11060TIP3    H233134   0.652   1.901   4.969  0.0037  1.4270 -1.7082
11061TIP3   OH233135   4.820   3.562   2.271 -0.2416 -0.1041  0.2575
11061TIP3    H133136   4.794   3.473   2.294 -1.6660 -0.6943 -3.3367
11061TIP3    H233137   4.865   3.553   2.187 -1.6969  2.7329 -0.8949
11062TIP3   OH233138   4.530   4.490   0.386 -1.1450  0.4569 -0.5163
11062TIP3    H133139   4.452   4.454   0.343 -2.1371  1.2250  0.6326
11062TIP3    H233140   4.585   4.521   0.314 -1.2321 -1.3767 -1.4196
11063TIP3   OH233141   2.778   2.823   1.277  0.4741  0.0736 -0.0292
11063TIP3    H133142   2.848   2.758   1.274  1.2219  0.7261  2.0047
11063TIP3    H233143   2.823   2.905   1.298 -0.7361  0.7827 -0.1837
11064TIP3   OH233144   5.690   6.167   5.120  0.0298 -0.5250 -0.5625
11064TIP3    H133145   5.698   6.249   5.169  0.1220  0.5348 -2.3050
11064TIP3    H233146   5.598   6.144   5.125 -0.2346  0.3846 -1.1509
11065TIP3   OH233147   5.276   6.968   3.964  0.2142  0.2438  0.5123
11065TIP3    H133148   5.274   7.063   3.956  2.4382  0.1694 -1.8017
11065TIP3    H233149   5.296   6.951   4.056  0.0048  2.0201  0.8909
11066TIP3   OH233150   7.429   6.172   5.405 -0.6347 -0.1184 -0.0510
11066TIP3    H133151   7.367   6.169   5.332  0.9077 -0.3296 -1.3860
11066TIP3    H233152   7.469   6.085   5.407  0.1556  0.2423  0.3108
11067TIP3   OH233153   5.913   6.426   5.730  0.4575  0.8328 -0.0201
11067TIP3    H133154   5.910   6.476   5.648 -1.4881 -0.3613 -0.7225
11067TIP3    H233155   5.929   6.336   5.703 -0.8234  0.3318  0.8495
11068TIP3   OH233156   0.515   5.844   6.059  0.2531  0.6101  0.0071
11068TIP3    H133157   0.486   5.912   5.999  0.0986  1.1279  0.6576
11068TIP3    H233158   0.474   5.764   6.027  0.2362  0.8710 -0.6194
11069TIP3   OH233159   6.164   5.584   4.147  0.3816  0.6713 -0.1320
11069TIP3    H133160   6.198   5.634   4.073  0.8979  0.9624  0.3011
11069TIP3    H233161   6.199   5.627   4.225  0.7390 -0.2805  0.2516
11070TIP3   OH233162   7.657   7.170   4.590 -0.1083 -0.3502 -0.0170
11070TIP3    H133163   7.670   7.256   4.630  0.4833 -0.1180 -0.6986
11070TIP3    H233164   7.745   7.133   4.583 -0.1328 -0.1258 -1.6699
11071TIP3   OH233165   7.062   5.533   6.159 -1.1964  0.5862 -0.2081
11071TIP3    H133166   7.007   5.609   6.174 -0.9125  0.8977 -0.7230
11071TIP3    H233167   7.144   5.552   6.204  0.4673  2.4632 -3.7385
11072TIP3   OH233168   5.953   5.823   5.900  0.5994 -0.5306  0.0105
11072TIP3    H133169   5.867   5.843   5.862  0.4463  0.8335  1.0250
11072TIP3    H233170   5.943   5.736   5.937  0.6010 -1.6860 -2.6266
11073TIP3   OH233171   6.169   5.196   2.855 -0.2660  0.4632 -0.1460
11073TIP3    H133172   6.170   5.273   2.798  1.9820  1.5985  1.3611
11073TIP3    H233173   6.254   5.198   2.899 -0.4725 -2.4843  0.4604
11074TIP3   OH233174   3.219   1.026   3.189 -0.1097  0.0615 -0.1847
11074TIP3    H133175   3.196   1.080   3.264  0.9131 -0.6390  0.6346
11074TIP3    H233176   3.298   0.979   3.215 -1.5470 -2.6522 -0.4430
11075TIP3   OH233177   5.349   6.762   5.277 -0.0317  0.4025 -0.0532
11075TIP3    H133178   5.270   6.711   5.292 -0.0572  0.7590  1.0692
11075TIP3    H233179   5.317   6.847   5.247 -0.1419  1.0290  1.7915
11076TIP3   OH233180   0.559   0.093   1.109 -0.7196  0.5004  0.0899
11076TIP3    H133181   0.546   0.176   1.064 -0.9463  1.2086  1.4520
11076TIP3    H233182   0.651   0.071   1.094 -1.1517 -0.0228 -1.9585
11077TIP3   OH233183   0.198   6.566   5.844  0.2415  0.7308 -0.2681
11077TIP3    H133184   0.204   6.591   5.752 -1.1398 -0.6314 -0.7454
11077TIP3    H233185   0.150   6.483   5.844 -0.7614  1.2671  1.7495
11078TIP3   OH233186   0.204   1.630   4.534 -0.0254  0.4045  0.4227
11078TIP3    H133187   0.219   1.719   4.565  0.8793  0.0677  0.9705
11078TIP3    H233188   0.188   1.639   4.440  0.0580  1.1476  0.4826
11079TIP3   OH233189   6.874   7.275   4.255 -0.1636 -0.4003  0.4544
11079TIP3    H133190   6.826   7.218   4.195 -1.4187  0.0929  0.9738
11079TIP3    H233191   6.848   7.364   4.230  2.1983  0.0002 -0.7162
11080TIP3   OH233192   0.915   1.562   4.273 -0.0675 -0.1215 -0.2002
11080TIP3    H133193   0.935   1.563   4.367  0.3108 -0.7307 -0.2710
11080TIP3    H233194   0.988   1.514   4.234  0.1548  0.7823 -0.8950
11081TIP3   OH233195   7.242   4.017   5.191  0.0860 -0.0395 -0.0330
11081TIP3    H133196   7.235   4.071   5.113 -0.5867 -0.8501 -0.5524
11081TIP3    H233197   7.272   3.932   5.159 -0.4320 -0.4516  0.5491
11082TIP3   OH233198   5.744   5.050   3.942  0.0619 -0.3960  0.3132
11082TIP3    H133199   5.830   5.019   3.913 -0.1630  0.8519 -1.8366
11082TIP3    H233200   5.763   5.127   3.995  0.2876  0.1852 -0.5847
11083TIP3   OH233201   0.438   0.064   2.179  0.0437 -0.1403 -0.0875
11083TIP3    H133202   0.384  -0.004   2.139 -1.0961  0.6846  0.0184
11083TIP3    H233203   0.518   0.019   2.205 -0.1550 -1.1659 -1.2020
11084TIP3   OH233204   6.921   7.066   4.050  0.4246  0.8643  0.1702
11084TIP3    H133205   6.967   7.078   3.967  0.6012  2.8642  0.5389
11084TIP3    H233206   6.987   7.031   4.110  0.7779  1.1992 -0.0226
11085TIP3   OH233207   2.958   4.194   0.986  0.3527  0.3364  0.1869
11085TIP3    H133208   2.868   4.162   0.978  0.9885 -1.5927  0.4749
11085TIP3    H233209   2.949   4.286   1.012 -1.5312  0.5846 -1.2771
11086TIP3   OH233210   4.415   3.205   1.275  0.3642  0.0064  0.3545
11086TIP3    H133211   4.414   3.225   1.369 -0.9219  0.5140  0.2421
11086TIP3    H233212   4.482   3.264   1.239  0.6602  0.0094  0.9121
11087TIP3   OH233213   5.577   5.236   3.789  0.1247  0.2904  0.5183
11087TIP3    H133214   5.523   5.171   3.744  1.3174  0.2756 -0.9431
11087TIP3    H233215   5.629   5.186   3.851  0.9148 -0.1456 -0.4808
11088TIP3   OH233216   6.417   6.219   3.036 -0.2015  0.0119  0.0093
11088TIP3    H133217   6.403   6.313   3.024  0.9634  0.4617  1.9674
11088TIP3    H233218   6.342   6.190   3.089 -0.1965 -0.0367 -0.0096
11089TIP3   OH233219   0.856   0.900   5.775  0.4860  0.4475 -0.8091
11089TIP3    H133220   0.799   0.977   5.764  0.0816  0.3812  0.6720
11089TIP3    H233221   0.804   0.828   5.741 -0.5772  0.3057  1.0103
11090TIP3   OH233222   3.915   3.145   1.352  0.2900  0.2926  0.0435
11090TIP3    H133223   3.909   3.238   1.330 -1.9125  0.1053 -0.2717
11090TIP3    H233224   3.991   3.113   1.302  0.6904  1.7765 -0.3207
11091TIP3   OH233225   1.035   0.900   3.691  0.1886 -0.1083  0.0769
11091TIP3    H133226   1.100   0.960   3.656 -0.2758  0.3186 -0.0516
11091TIP3    H233227   1.060   0.814   3.655 -0.2259  0.3055 -1.2295
11092TIP3   OH233228   4.077   6.818   4.926  0.0342 -0.1051 -0.0275
11092TIP3    H133229   4.023   6.838   5.002 -1.1572 -1.5386 -0.4812
11092TIP3    H233230   4.052   6.730   4.901  0.2697  0.4182 -2.2162
11093TIP3   OH233231   0.060   0.663   3.559  0.3764 -0.1880 -0.0766
11093TIP3    H133232   0.089   0.597   3.621  1.2285  0.4721  0.2436
11093TIP3    H233233   0.075   0.746   3.604 -1.3376  0.2176 -0.1874
11094TIP3   OH233234   5.443   6.237   6.240  0.1039 -0.6751 -0.5533
11094TIP3    H133235   5.526   6.199   6.211  1.7487  1.7447  0.8067
11094TIP3    H233236   5.465   6.326   6.267 -3.0447  0.1927 -0.6327
11095TIP3   OH233237   5.853   4.328   5.235  0.2121  0.8228 -0.0131
11095TIP3    H133238   5.884   4.238   5.245  0.4323  0.9162  0.1643
11095TIP3    H233239   5.902   4.362   5.159 -0.3849  0.5741 -0.5081
11096TIP3   OH233240   1.037   0.257   5.441  0.2977 -0.1300 -0.0863
11096TIP3    H133241   1.097   0.187   5.465 -0.3343 -0.5091  0.4018
11096TIP3    H233242   1.015   0.239   5.350  0.5229 -0.2831 -0.1123
11097TIP3   OH233243   6.840   6.746   4.225  0.3608  0.0319 -0.3397
11097TIP3    H133244   6.760   6.780   4.264  0.3230 -0.6458  0.1651
11097TIP3    H233245   6.903   6.818   4.234 -0.3936  0.8512 -1.4193
11098TIP3   OH233246   2.997   0.623   3.683 -0.1198 -0.1157  0.3952
11098TIP3    H133247   2.903   0.636   3.670 -0.2218  0.8404  1.9079
11098TIP3    H233248   3.002   0.569   3.762  0.6266  0.8576  1.0149
11099TIP3   OH233249   7.769   5.705   5.121  0.4462 -0.1840 -0.3321
11099TIP3    H133250   7.823   5.628   5.138  1.4461  0.4287 -0.7160
11099TIP3    H233251   7.745   5.737   5.208 -0.0878 -1.0081 -0.1756
11100TIP3   OH233252   2.522   7.136   5.155 -0.0916 -0.4663  0.2644
11100TIP3    H133253   2.464   7.100   5.088 -0.3205 -1.0125  0.7541
11100TIP3    H233254   2.590   7.069   5.166 -0.0587 -0.3834  0.5813
11101TIP3   OH233255   5.593   5.376   5.432  0.3369  0.3448  0.0322
11101TIP3    H133256   5.573   5.363   5.525  0.3625  0.1549  0.0113
11101TIP3    H233257   5.629   5.465   5.427 -1.8965  1.2588 -0.1603
11102TIP3   OH233258   2.233   0.234   4.572  0.1957 -0.3615 -0.1977
11102TIP3    H133259   2.247   0.298   4.503 -0.9090  1.6779  1.4164
11102TIP3    H233260   2.145   0.198   4.554 -0.0442  0.0854  0.0842
11103TIP3   OH233261   6.681   0.245   2.212 -0.5109  0.4001 -0.7884
11103TIP3    H133262   6.650   0.317   2.157 -1.5032 -0.2491 -1.0881
11103TIP3    H233263   6.654   0.166   2.166 -0.2279 -0.1635  0.0007
11104TIP3   OH233264   0.626   3.277   4.197  0.2654 -0.5910 -0.0869
11104TIP3    H133265   0.579   3.252   4.276 -0.8731  1.0279 -0.2459
11104TIP3    H233266   0.704   3.323   4.228 -0.4524  0.5147  0.0971
11105TIP3   OH233267   7.335   0.252   4.524  0.4183  0.2643  0.7356
11105TIP3    H133268   7.420   0.210   4.539  0.1826  0.0648  1.5132
11105TIP3    H233269   7.281   0.225   4.598 -0.1433  0.8740  0.5530
11106TIP3   OH233270   7.674   0.452   4.327  0.4967 -0.2320  0.9666
11106TIP3    H133271   7.692   0.487   4.240 -1.5777  0.5757  0.8249
11106TIP3    H233272   7.583   0.421   4.321  1.0199 -2.0924  2.2374
11107TIP3   OH233273   6.327   7.239   3.217  0.0648  0.0588 -0.7588
11107TIP3    H133274   6.300   7.148   3.229  1.1785 -0.0787  0.9250
11107TIP3    H233275   6.353   7.245   3.125  2.8574 -2.1159 -0.1616
11108TIP3   OH233276   6.383   6.984   4.806  0.8950 -0.1396 -0.1368
11108TIP3    H133277   6.297   7.010   4.773  1.2500  1.8409  0.3931
11108TIP3    H233278   6.440   7.058   4.783  2.3426 -1.2037 -0.0159
11109TIP3   OH233279   3.211   2.662   2.348  0.5549 -0.1172  0.0313
11109TIP3    H133280   3.160   2.705   2.416 -0.5040  2.0547 -2.0763
11109TIP3    H233281   3.150   2.602   2.305  1.0197 -0.9305  0.4933
11110TIP3   OH233282   0.702   0.945   3.411  0.3533 -0.6323  0.8866
11110TIP3    H133283   0.687   0.965   3.318  0.7450 -0.8668  0.7728
11110TIP3    H233284   0.796   0.957   3.423  0.7566 -3.1612  0.6251
11111TIP3   OH233285   4.653   6.578   3.935  0.2740  0.4775  0.2896
11111TIP3    H133286   4.590   6.526   3.885  2.0155 -1.5818  0.1799
11111TIP3    H233287   4.651   6.664   3.893  0.2897 -0.6469 -2.0886
11112TIP3   OH233288   3.684   3.401   0.968  0.1281  0.6592  0.1683
11112TIP3    H133289   3.655   3.465   0.904 -0.8144 -2.1222 -2.3230
11112TIP3    H233290   3.752   3.350   0.923  0.3224 -0.5928  1.7935
11113TIP3   OH233291   7.134   3.930   5.498  0.4706 -0.3177  0.5485
11113TIP3    H133292   7.043   3.957   5.484  0.8581  2.1380  2.4422
11113TIP3    H233293   7.182   3.968   5.425  0.4924  1.4402  1.4441
11114TIP3   OH233294   4.433   2.628   0.717  0.1296  0.3840 -0.0157
11114TIP3    H133295   4.392   2.676   0.646 -1.8905 -0.9427  0.1958
11114TIP3    H233296   4.389   2.542   0.716  1.5215 -0.3744  1.4967
11115TIP3   OH233297   7.202   7.420   4.798 -1.0078  0.0369  0.2985
11115TIP3    H133298   7.169   7.334   4.824 -1.2631 -0.7609 -2.4720
11115TIP3    H233299   7.296   7.408   4.788 -0.8325  0.4823  1.3348
11116TIP3   OH233300   0.723   0.121   3.733  0.1257 -0.0588 -0.3071
11116TIP3    H133301   0.788   0.085   3.793  0.2340  1.9117  0.8021
11116TIP3    H233302   0.645   0.135   3.786 -0.0740  0.8459 -0.8167
11117TIP3   OH233303   6.441   5.425   4.969 -0.1699 -0.2648  0.1604
11117TIP3    H133304   6.419   5.454   5.057  0.9038  0.9894  0.0444
11117TIP3    H233305   6.419   5.500   4.913 -1.9918 -1.4790 -0.8184
11118TIP3   OH233306   3.212   2.903   0.373  0.7352  0.3699  0.0718
11118TIP3    H133307   3.235   2.837   0.307 -0.7667 -0.6988  0.5751
11118TIP3    H233308   3.266   2.979   0.352  0.8654 -0.2483 -1.8975
11119TIP3   OH233309   1.359   5.674   4.750  0.3258  0.1907 -0.0594
11119TIP3    H133310   1.326   5.691   4.838  0.7310 -1.0617  0.3332
11119TIP3    H233311   1.289   5.704   4.692  0.1614  1.2423  0.6773
11120TIP3   OH233312   2.998   0.187   3.665 -0.0828  0.1706 -0.3556
11120TIP3    H133313   3.005   0.203   3.759 -0.4567  2.4045 -0.6983
11120TIP3    H233314   3.085   0.154   3.641  0.9590  2.3247  0.2801
11121TIP3   OH233315   7.593   0.401   3.430  0.3067  0.2734 -0.2441
11121TIP3    H133316   7.651   0.343   3.381  0.4697 -0.2896  0.5944
11121TIP3    H233317   7.575   0.474   3.371  0.9094 -0.1416 -0.9414
11122TIP3   OH233318   6.599   4.152   5.977 -0.2713 -0.2303 -0.2946
11122TIP3    H133319   6.634   4.235   6.009 -1.3481  1.0750 -2.3629
11122TIP3    H233320   6.673   4.110   5.934 -0.3586  0.8949 -1.5656
11123TIP3   OH233321   1.276   6.687   5.237 -0.1086  0.5862 -0.0172
11123TIP3    H133322   1.346   6.721   5.293 -1.2038  2.1421  0.4367
11123TIP3    H233323   1.322   6.643   5.166  1.3502  2.5832 -0.3515
11124TIP3   OH233324   0.043   2.000   4.436 -0.1109  0.3611  0.5800
11124TIP3    H133325   0.087   2.073   4.481 -0.9121 -0.0366  2.0508
11124TIP3    H233326   0.114   1.951   4.395  0.5689  1.1744  0.7628
11125TIP3   OH233327   7.712   6.910   6.437 -0.4454  0.2977 -0.5745
11125TIP3    H133328   7.730   6.849   6.509 -0.7205 -0.8049 -1.4146
11125TIP3    H233329   7.743   6.864   6.359 -2.5269  0.3812 -1.4686
11126TIP3   OH233330   3.291   2.298   1.876 -0.4905  0.1244 -0.4115
11126TIP3    H133331   3.245   2.369   1.832 -1.4876 -0.3439 -0.1260
11126TIP3    H233332   3.341   2.342   1.945 -0.6179  0.6184 -0.6292
11127TIP3   OH233333   0.635   6.576   3.679 -0.4672 -0.4779 -0.1437
11127TIP3    H133334   0.624   6.485   3.706 -2.0353  0.3489  2.2258
11127TIP3    H233335   0.548   6.602   3.648 -0.5223  0.7213  0.9622
11128TIP3   OH233336   4.034   0.448   3.325  0.3388  0.0885  0.6788
11128TIP3    H133337   3.955   0.414   3.368 -0.7547  1.0139 -0.5483
11128TIP3    H233338   4.098   0.378   3.334 -0.8050 -0.9129  1.2187
11129TIP3   OH233339   0.456   5.800   3.409  0.4799  0.8793 -0.6826
11129TIP3    H133340   0.524   5.842   3.461  0.5963  0.3149 -0.3709
11129TIP3    H233341   0.500   5.773   3.329  0.7169  0.1836 -0.3239
11130TIP3   OH233342   1.280   5.230   3.721  0.7792 -0.5014 -0.2825
11130TIP3    H133343   1.198   5.183   3.712  1.4798 -1.7393 -0.2822
11130TIP3    H233344   1.280   5.293   3.649 -0.2826 -0.2932 -0.1147
11131TIP3   OH233345   6.520   6.539   3.933  0.1820 -0.1252 -0.4836
11131TIP3    H133346   6.609   6.558   3.964 -0.2912  0.8922  0.2854
11131TIP3    H233347   6.469   6.528   4.013 -0.0603 -2.3251 -0.9292
11132TIP3   OH233348   6.854   4.799   3.716  0.0566 -0.4710 -0.3326
11132TIP3    H133349   6.847   4.704   3.704  0.4736 -0.3190 -1.8548
11132TIP3    H233350   6.767   4.832   3.694 -0.7467 -0.6799  2.3220
11133TIP3   OH233351   1.961   0.598   1.818  0.5348  0.1919  0.2351
11133TIP3    H133352   1.984   0.626   1.906 -0.2605  1.7419 -0.0225
11133TIP3    H233353   1.945   0.503   1.826 -0.7840  0.5243  2.0316
11134TIP3   OH233354   5.547   5.324   3.312 -0.1140  0.1619 -0.4937
11134TIP3    H133355   5.608   5.298   3.380  0.2921  2.6299  0.1289
11134TIP3    H233356   5.467   5.348   3.359 -0.4791  0.0146 -1.0361
11135TIP3   OH233357   7.102   5.816   5.389  0.1863  0.3284 -0.4250
11135TIP3    H133358   7.024   5.767   5.415  0.5955 -0.4882 -0.7075
11135TIP3    H233359   7.122   5.784   5.301 -0.2210  1.8656 -1.0897
11136TIP3   OH233360   3.088   0.646   2.789 -0.0372  0.0366 -0.3655
11136TIP3    H133361   3.017   0.699   2.826  1.1456 -0.4867  2.8697
11136TIP3    H233362   3.047   0.562   2.768 -0.7980  0.4232 -0.4203
11137TIP3   OH233363   6.492   6.589   6.377 -0.5495  0.4925  0.2284
11137TIP3    H133364   6.411   6.544   6.402 -1.9347  1.3096 -2.5793
11137TIP3    H233365   6.559   6.551   6.433 -2.4508 -1.9510  0.9124
11138TIP3   OH233366   2.293   0.084   4.121  0.0209  0.5170 -0.1850
11138TIP3    H133367   2.318   0.066   4.211 -0.6510 -0.1513 -0.1245
11138TIP3    H233368   2.329   0.170   4.102  0.0068  0.7365  0.7791
11139TIP3   OH233369   0.899   6.109   3.669  0.6055 -0.2622 -0.1931
11139TIP3    H133370   0.880   6.189   3.621  1.9233 -0.2188 -0.6576
11139TIP3    H233371   0.813   6.074   3.693  0.0084  0.9087 -0.6036
11140TIP3   OH233372   7.444   5.741   4.784  0.2627  0.5867  0.4027
11140TIP3    H133373   7.491   5.813   4.825 -1.0237  1.0187  1.1654
11140TIP3    H233374   7.351   5.765   4.793 -0.1207 -0.3918 -0.7656
11141TIP3   OH233375   4.114   0.150   4.855  0.0670  0.1538  0.2836
11141TIP3    H133376   4.134   0.167   4.947  0.8421 -0.3021  0.2071
11141TIP3    H233377   4.027   0.110   4.856  0.0537  0.1914  0.8106
11142TIP3   OH233378   1.448   0.158   5.400  0.0698  0.0729  0.1266
11142TIP3    H133379   1.391   0.225   5.362  0.8647  0.8462  0.2674
11142TIP3    H233380   1.389   0.098   5.445 -0.7504  0.0496 -0.9620
11143TIP3   OH233381   0.643   6.750   3.347 -0.3774 -0.3689  0.0229
11143TIP3    H133382   0.661   6.799   3.427 -1.3776 -1.3732  0.8732
11143TIP3    H233383   0.591   6.810   3.294 -0.7508 -0.1512  0.6357
11144TIP3   OH233384   2.058   0.864   3.925 -0.6162  0.0608 -0.3628
11144TIP3    H133385   2.150   0.855   3.898 -0.2123  0.1722  0.9456
11144TIP3    H233386   2.008   0.840   3.847  0.5273  0.3139 -1.1895
11145TIP3   OH233387   1.482   1.292   4.556  0.2189 -0.3780 -0.6727
11145TIP3    H133388   1.437   1.307   4.473  0.2226 -0.9497 -0.7824
11145TIP3    H233389   1.420   1.323   4.622  0.3077  0.2832 -0.8982
11146TIP3   OH233390   7.641   4.477   3.535  0.1847 -0.0432 -0.2604
11146TIP3    H133391   7.621   4.522   3.617  0.8647  0.0609 -0.1499
11146TIP3    H233392   7.613   4.538   3.466 -0.8895 -0.3518 -0.1203
11147TIP3   OH233393   0.398   5.937   4.418 -0.6326  0.2676  0.4794
11147TIP3    H133394   0.412   5.907   4.328  0.4893  0.8152  0.4658
11147TIP3    H233395   0.483   5.969   4.446 -0.3653 -2.0586  2.5509
11148TIP3   OH233396   7.114   4.880   3.782  0.0356  0.2118  0.1878
11148TIP3    H133397   7.119   4.942   3.855  0.2168 -1.0944  1.3116
11148TIP3    H233398   7.020   4.864   3.771  0.0932 -0.8527  1.2292
11149TIP3   OH233399   6.297   6.052   3.681 -0.0071 -0.3159 -0.1155
11149TIP3    H133400   6.259   6.133   3.648 -1.4552 -0.8861  0.1346
11149TIP3    H233401   6.387   6.053   3.649  0.4660  2.1291  1.1574
11150TIP3   OH233402   7.829   0.935   1.980  0.3897 -0.2253 -0.3482
11150TIP3    H133403   7.833   1.029   1.962  0.1744 -0.3493 -1.0658
11150TIP3    H233404   7.919   0.904   1.966  0.6421  0.0147  0.7099
11151TIP3   OH233405   0.033   5.260   2.971 -0.1616 -0.0472 -0.4305
11151TIP3    H133406  -0.042   5.201   2.986 -0.7765  1.1699  1.4172
11151TIP3    H233407   0.101   5.203   2.935 -1.4040 -1.5188 -0.4940
11152TIP3   OH233408   4.215   2.704   0.285 -0.4738  0.0710  0.4920
11152TIP3    H133409   4.291   2.662   0.244  0.1546  0.9011  0.7948
11152TIP3    H233410   4.236   2.706   0.378 -1.4291 -0.8280  0.7480
11153TIP3   OH233411   0.266   5.293   5.430  0.1111 -0.8967  0.3951
11153TIP3    H133412   0.337   5.230   5.420 -0.3383 -1.0468 -2.2164
11153TIP3    H233413   0.190   5.240   5.454  0.3312 -0.9995  0.8834
11154TIP3   OH233414   1.022   7.148   5.402  0.4202  0.0477 -0.1995
11154TIP3    H133415   1.014   7.069   5.456  1.3127  0.7777  1.0118
11154TIP3    H233416   0.934   7.161   5.367 -0.0504 -0.7484  0.6381
11155TIP3   OH233417   3.858   1.071   5.714  0.2270  0.3350 -0.2532
11155TIP3    H133418   3.885   1.085   5.805 -1.3585 -1.6270  0.5606
11155TIP3    H233419   3.888   0.982   5.694  0.0874  0.5633 -1.4862
11156TIP3   OH233420   0.982   5.112   3.725 -0.3332  0.2251 -0.4232
11156TIP3    H133421   0.960   5.173   3.654 -1.2775 -0.1384 -0.4541
11156TIP3    H233422   0.914   5.127   3.791 -1.7678 -2.1748 -1.2937
11157TIP3   OH233423   4.128   0.990   5.421 -0.0735 -0.2259 -0.0769
11157TIP3    H133424   4.166   1.055   5.480  0.2578  1.2353 -1.8620
11157TIP3    H233425   4.183   0.993   5.342 -0.1381 -2.5712 -0.2694
11158TIP3   OH233426   6.217   3.282   1.211  0.6323 -0.1754 -0.2809
11158TIP3    H133427   6.161   3.305   1.136  1.9580 -0.4402 -1.3776
11158TIP3    H233428   6.209   3.187   1.219  0.0695 -0.0824  0.2557
11159TIP3   OH233429   2.846   5.842   3.867 -0.5827  0.9729  0.0168
11159TIP3    H133430   2.796   5.760   3.863  1.5318 -0.3167 -0.8552
11159TIP3    H233431   2.788   5.907   3.826 -1.3434 -0.5937 -1.4483
11160TIP3   OH233432   1.200   5.633   5.718 -0.0360 -0.3531  0.2525
11160TIP3    H133433   1.147   5.670   5.647  2.3870  1.2433 -0.7936
11160TIP3    H233434   1.143   5.637   5.795 -0.6136  3.5810 -0.3018
11161TIP3   OH233435   2.608   0.934   3.469  0.1394 -0.2231  0.3927
11161TIP3    H133436   2.521   0.896   3.455  0.4702 -0.4077 -1.3364
11161TIP3    H233437   2.649   0.931   3.383  1.9686 -0.3962  1.2441
11162TIP3   OH233438   4.214   0.733   3.700 -0.7485 -0.1721  0.1643
11162TIP3    H133439   4.251   0.815   3.667 -1.6276  0.9922  1.9976
11162TIP3    H233440   4.230   0.735   3.794 -1.9636 -1.4953  0.4236
11163TIP3   OH233441   6.934   6.338   0.415  0.7056 -0.6081  0.1476
11163TIP3    H133442   6.899   6.426   0.415 -1.1800 -1.3398  1.5766
11163TIP3    H233443   6.872   6.287   0.363  2.1454 -1.0005 -1.2713
11164TIP3   OH233444   3.242   0.271   4.923  0.0023 -0.3759  0.1493
11164TIP3    H133445   3.218   0.178   4.927 -2.6451  0.2496 -0.1692
11164TIP3    H233446   3.205   0.308   5.004  0.0946  0.5949 -0.2515
11165TIP3   OH233447   7.804   0.097   3.877 -0.3103 -0.2376  0.2031
11165TIP3    H133448   7.755   0.023   3.842  1.2688 -1.4101  0.4106
11165TIP3    H233449   7.783   0.170   3.819 -2.0789 -0.7847  0.1494
11166TIP3   OH233450   7.177   0.715   5.348 -0.0843 -0.0174 -0.3807
11166TIP3    H133451   7.271   0.723   5.339 -0.2317  1.8882 -0.4506
11166TIP3    H233452   7.164   0.668   5.430  0.9170 -0.1890 -0.3236
11167TIP3   OH233453   5.664   1.395   4.233 -0.2413 -0.2528  0.1142
11167TIP3    H133454   5.618   1.361   4.156  0.1542  2.3114 -1.3123
11167TIP3    H233455   5.756   1.395   4.207 -0.0764  0.3551  0.6995
11168TIP3   OH233456   6.470   0.683   4.253  0.1484  0.4953 -0.0129
11168TIP3    H133457   6.458   0.778   4.245 -0.8464  0.3437 -0.4109
11168TIP3    H233458   6.538   0.662   4.189 -0.2323  0.8213 -0.5323
11169TIP3   OH233459   4.937   1.258   4.047  0.3203 -0.4801  0.3141
11169TIP3    H133460   4.909   1.322   3.982  1.3306  0.4735  0.7945
11169TIP3    H233461   5.033   1.258   4.041  0.2983 -3.0141 -0.6805
11170TIP3   OH233462   3.414   5.229   3.676 -0.1724 -0.4334  0.1894
11170TIP3    H133463   3.370   5.192   3.599 -0.1240 -0.2278  0.0624
11170TIP3    H233464   3.463   5.155   3.713 -1.2502 -0.8518  0.7837
11171TIP3   OH233465   5.374   1.051   4.588  0.2037  0.0516 -0.6549
11171TIP3    H133466   5.422   1.016   4.663  1.0732 -0.0154 -1.2410
11171TIP3    H233467   5.422   1.130   4.562  1.0929 -1.0478 -2.4160
11172TIP3   OH233468   0.768   4.534   0.628  0.2682 -0.5796  0.0006
11172TIP3    H133469   0.833   4.604   0.625  0.6128 -0.9237 -0.5876
11172TIP3    H233470   0.713   4.549   0.551 -0.2214 -0.4195  0.3773
11173TIP3   OH233471   2.003   6.418   4.876  0.0728 -0.3647  0.1372
11173TIP3    H133472   1.942   6.347   4.854  0.9415 -0.9343 -0.4976
11173TIP3    H233473   2.045   6.390   4.957  1.2327 -1.1404 -0.7007
11174TIP3   OH233474   5.545   2.483   5.028 -0.0414 -0.7606  0.2448
11174TIP3    H133475   5.525   2.398   4.988  1.1261 -1.7402  1.6688
11174TIP3    H233476   5.483   2.491   5.100 -0.7454  0.0315 -0.4339
11175TIP3   OH233477   1.344   4.286   1.067  0.1162  0.6149  0.6593
11175TIP3    H133478   1.299   4.288   0.983  1.0508 -0.8582  0.1042
11175TIP3    H233479   1.394   4.368   1.069  0.0944  0.6600 -0.2219
11176TIP3   OH233480   3.780   1.476   5.209  0.5216  0.5815 -0.3307
11176TIP3    H133481   3.705   1.417   5.213  1.2408 -0.2499  2.0788
11176TIP3    H233482   3.823   1.456   5.126 -2.1256  1.3600 -1.9222
11177TIP3   OH233483   2.491   5.796   4.461  0.0105 -0.1138 -0.2662
11177TIP3    H133484   2.472   5.718   4.514  0.1699  0.0131 -0.0223
11177TIP3    H233485   2.504   5.762   4.372 -0.0652 -0.3485 -0.1882
11178TIP3   OH233486   4.220   1.087   3.911 -0.1569 -0.5345  0.3450
11178TIP3    H133487   4.233   1.105   4.004  0.8740  0.1253  0.0821
11178TIP3    H233488   4.291   1.134   3.867 -1.0444 -0.2571 -0.8299
11179TIP3   OH233489   1.158   2.465   0.443 -0.0462 -0.6474  0.2614
11179TIP3    H133490   1.171   2.529   0.513  0.4294 -2.0570  1.4984
11179TIP3    H233491   1.244   2.425   0.432 -0.0994 -0.3729 -1.2063
11180TIP3   OH233492   0.731   5.907   4.709 -0.2867 -0.3134 -0.1605
11180TIP3    H133493   0.679   5.931   4.786  2.5642  2.0169  1.1923
11180TIP3    H233494   0.704   5.968   4.641 -2.3267 -1.9292 -0.8380
11181TIP3   OH233495   2.033   7.234   3.553 -0.4400  0.1318  0.7002
11181TIP3    H133496   1.953   7.266   3.510  0.2358  1.3952  0.3326
11181TIP3    H233497   2.049   7.298   3.623  0.5967  0.2575  0.3530
11182TIP3   OH233498   4.820   1.701   4.748  0.5800 -0.0816  0.5900
11182TIP3    H133499   4.913   1.716   4.735  1.0483 -2.9840  0.1794
11182TIP3    H233500   4.814   1.609   4.776 -2.0511  0.3812  1.7269
11183TIP3   OH233501   0.940   5.462   4.684 -0.1871  0.4067  0.4371
11183TIP3    H133502   1.014   5.520   4.703 -0.0463  0.0864  0.8857
11183TIP3    H233503   0.898   5.501   4.607  0.0671  0.9506  0.5673
11184TIP3   OH233504   5.669   1.377   5.864  0.3968 -0.4345 -0.1943
11184TIP3    H133505   5.719   1.432   5.804  0.7077  0.3872  0.8275
11184TIP3    H233506   5.681   1.288   5.830  1.0450 -0.0427 -1.0088
11185TIP3   OH233507   1.200   7.336   3.764  0.2758  0.3127 -0.0621
11185TIP3    H133508   1.209   7.333   3.669  1.9624 -0.5699  0.1231
11185TIP3    H233509   1.241   7.255   3.796  0.5291  1.0207  1.4767
11186TIP3   OH233510   1.032   3.862   0.920  0.6529 -0.1510 -0.1525
11186TIP3    H133511   0.973   3.910   0.979  1.9408 -0.3276  1.3095
11186TIP3    H233512   1.029   3.912   0.839 -1.0587  0.1751  0.0809
11187TIP3   OH233513   5.443   1.624   5.312  0.1678  0.5896 -0.1633
11187TIP3    H133514   5.400   1.567   5.248  1.2762 -1.5304  0.9262
11187TIP3    H233515   5.389   1.617   5.391  0.3951  0.9306  0.0255
11188TIP3   OH233516   2.472   5.752   4.164  0.2804 -0.2452  0.4990
11188TIP3    H133517   2.378   5.765   4.151  0.0335 -0.7308  1.6649
11188TIP3    H233518   2.512   5.832   4.130 -0.5875  0.1405  0.3553
11189TIP3   OH233519   6.959   1.344   4.978 -0.4278  0.3849 -0.4578
11189TIP3    H133520   6.957   1.440   4.978 -0.1949  0.3901 -0.2550
11189TIP3    H233521   7.026   1.322   5.042  0.0614  0.0957 -1.0679
11190TIP3   OH233522   5.402   2.643   3.881  0.3924 -0.3743  0.2598
11190TIP3    H133523   5.494   2.670   3.882 -0.2791  2.0174 -0.1342
11190TIP3    H233524   5.353   2.725   3.883 -1.7483 -1.6468  0.9925
11191TIP3   OH233525   5.428   2.575   5.503 -0.1963 -0.1802 -0.2701
11191TIP3    H133526   5.473   2.491   5.491 -0.2768 -0.0962 -1.1827
11191TIP3    H233527   5.495   2.633   5.540  0.7384  0.2178 -2.5260
11192TIP3   OH233528   5.835   1.357   3.887 -0.2362 -0.1989 -0.0784
11192TIP3    H133529   5.846   1.331   3.979 -1.7784  1.4655  0.6202
11192TIP3    H233530   5.741   1.345   3.871 -0.2274  0.9289 -0.9776
11193TIP3   OH233531   2.468   0.280   4.733 -0.3564  0.6138  0.3760
11193TIP3    H133532   2.529   0.346   4.703 -0.6343  0.3262 -0.8661
11193TIP3    H233533   2.397   0.282   4.669 -0.6118 -0.5307  0.6041
11194TIP3   OH233534   4.787   6.129   3.864  0.2300 -0.2877  0.4951
11194TIP3    H133535   4.704   6.160   3.828 -1.1968 -2.6587  1.6216
11194TIP3    H233536   4.853   6.187   3.826 -1.8563  1.1954 -0.9689
11195TIP3   OH233537   3.091   1.553   6.209  0.1399 -0.4319 -0.0251
11195TIP3    H133538   3.015   1.527   6.260  1.8147 -2.7415  1.3497
11195TIP3    H233539   3.133   1.621   6.261  0.1749 -0.6479  0.2295
11196TIP3   OH233540   5.533   0.045   5.053  0.2641  0.1784 -0.0594
11196TIP3    H133541   5.603  -0.005   5.009  1.3964  0.7216  1.1013
11196TIP3    H233542   5.459  -0.016   5.056  1.6707 -1.5134  1.4622
11197TIP3   OH233543   6.133   1.150   4.189  0.0251  0.0011  0.6608
11197TIP3    H133544   6.161   1.161   4.098 -1.5850 -0.5466  0.0757
11197TIP3    H233545   6.080   1.070   4.188 -0.2487  0.1480  2.0412
11198TIP3   OH233546   1.956   2.079   5.936  0.5388  1.2684  0.0390
11198TIP3    H133547   1.950   2.172   5.961  0.3217  0.7601  2.0020
11198TIP3    H233548   2.043   2.052   5.965  0.4973  0.7855 -0.2818
11199TIP3   OH233549   6.372   0.169   4.918 -0.0746  0.0569  0.2344
11199TIP3    H133550   6.401   0.241   4.863  0.2364  0.5490  1.0323
11199TIP3    H233551   6.371   0.093   4.860  1.4614  0.3110 -0.1446
11200TIP3   OH233552   2.905   1.797   5.768 -0.4872 -0.0441 -0.4595
11200TIP3    H133553   2.942   1.865   5.825  0.1113 -0.1700 -0.6853
11200TIP3    H233554   2.918   1.831   5.679  1.2182 -1.1237 -0.6461
11201TIP3   OH233555   5.639   1.596   4.414  0.5164 -0.4320  0.3460
11201TIP3    H133556   5.666   1.527   4.352 -0.3406 -0.7575  0.3315
11201TIP3    H233557   5.631   1.550   4.497 -0.9131 -0.5391  0.1620
11202TIP3   OH233558   7.283   0.701   6.390  0.2984  0.3792  0.3679
11202TIP3    H133559   7.281   0.637   6.318 -0.7679  2.9079 -1.9077
11202TIP3    H233560   7.372   0.736   6.388  0.5239 -0.1579  0.8482
11203TIP3   OH233561   5.086   1.323   4.332 -0.7769  0.5888  0.3986
11203TIP3    H133562   5.054   1.365   4.412 -0.0477 -0.0906  1.0572
11203TIP3    H233563   5.007   1.286   4.291 -0.7703 -1.8561  2.4712
11204TIP3   OH233564   6.413   0.945   4.794  0.5279 -0.4066 -0.4356
11204TIP3    H133565   6.485   1.003   4.818  0.2856 -0.0975 -0.4480
11204TIP3    H233566   6.357   0.999   4.738  0.1541 -0.5633 -0.2108
11205TIP3   OH233567   2.127   6.693   5.378 -0.2764 -0.1917 -0.1671
11205TIP3    H133568   2.190   6.661   5.313  0.0342  0.3407 -0.1285
11205TIP3    H233569   2.181   6.740   5.442 -0.7441  0.5108 -0.2884
11206TIP3   OH233570   0.987   6.517   0.634 -0.4810 -0.5113  0.3633
11206TIP3    H133571   1.030   6.599   0.660 -0.5889 -0.3967  0.1880
11206TIP3    H233572   0.934   6.542   0.559  1.5995 -1.2939 -1.4300
11207TIP3   OH233573   2.319   7.417   6.161 -0.3382  0.1684 -0.1114
11207TIP3    H133574   2.310   7.334   6.207  1.3095  0.2011  0.3119
11207TIP3    H233575   2.336   7.392   6.070  0.5640  0.0248  0.0908
11208TIP3   OH233576   5.449   6.418   5.532 -0.7873  0.1250 -0.8838
11208TIP3    H133577   5.398   6.464   5.598 -0.8453 -1.0698 -0.0658
11208TIP3    H233578   5.507   6.361   5.583  1.1657  1.2491 -1.7994
11209TIP3   OH233579   1.281   7.352   5.943 -0.1066 -0.1673 -0.3157
11209TIP3    H133580   1.343   7.426   5.950 -1.3877  1.1095 -2.0505
11209TIP3    H233581   1.275   7.319   6.032  0.9780  1.4369  0.4014
11210TIP3   OH233582   5.168   6.533   6.222  0.5530 -0.0539 -0.1741
11210TIP3    H133583   5.111   6.463   6.255  0.2067  0.9362  1.3910
11210TIP3    H233584   5.255   6.509   6.252  0.5854 -0.3104 -0.4712
11211TIP3   OH233585   4.815   1.024   5.521 -0.0293  0.5791 -0.5460
11211TIP3    H133586   4.840   1.096   5.579  0.6664  0.2500 -0.4249
11211TIP3    H233587   4.872   0.952   5.547 -2.3555 -0.7875  0.9679
11212TIP3   OH233588   4.984   0.931   4.019 -0.0461 -0.3443 -0.4060
11212TIP3    H133589   4.898   0.918   4.060 -0.1525 -0.7544 -0.7514
11212TIP3    H233590   5.002   1.024   4.030 -1.0507 -0.0350 -1.3523
11213TIP3   OH233591   5.319   1.721   5.579  0.2657  0.0239  0.0643
11213TIP3    H133592   5.302   1.806   5.539 -0.6325  0.6260  1.6405
11213TIP3    H233593   5.407   1.729   5.616  0.6863 -0.1766 -0.8942
11214TIP3   OH233594   0.297   6.149   6.064  0.3603  0.3188 -0.0294
11214TIP3    H133595   0.270   6.140   6.156 -1.3450  0.1318 -0.5255
11214TIP3    H233596   0.276   6.240   6.042  0.1791  0.1871 -0.4070
11215TIP3   OH233597   2.939   6.384   3.426 -0.0015  0.1793 -0.4300
11215TIP3    H133598   3.034   6.387   3.439 -0.0688  1.4169 -0.1359
11215TIP3    H233599   2.907   6.465   3.467 -1.3373 -0.9360  0.7689
11216TIP3   OH233600   7.399   5.352   0.132 -0.2105 -0.0356 -0.0632
11216TIP3    H133601   7.483   5.397   0.142 -0.3049  0.3399 -0.9274
11216TIP3    H233602   7.417   5.282   0.069 -0.7184  0.4866 -0.7843
11217TIP3   OH233603   4.689   0.902   4.992 -0.3569 -0.7862 -0.0676
11217TIP3    H133604   4.725   0.979   4.946  0.8840 -1.9232 -1.0444
11217TIP3    H233605   4.712   0.916   5.083 -0.6198  0.2671 -0.1488
11218TIP3   OH233606   5.690   2.133   5.582 -0.4645  0.0643  0.7217
11218TIP3    H133607   5.665   2.100   5.496  3.0798  1.0272 -0.7889
11218TIP3    H233608   5.690   2.055   5.639  1.0023 -1.3234 -1.1154
11219TIP3   OH233609   6.381   2.159   0.304 -0.9723  0.5801 -0.5069
11219TIP3    H133610   6.427   2.153   0.221 -1.1327  0.7611 -0.6106
11219TIP3    H233611   6.391   2.251   0.331 -0.6733  0.4541 -0.1833
11220TIP3   OH233612   2.935   6.275   5.579  0.4191 -0.4237  0.0469
11220TIP3    H133613   3.000   6.299   5.645 -0.3803 -0.3707  0.8244
11220TIP3    H233614   2.869   6.225   5.628 -1.0282  1.0311 -0.3699
11221TIP3   OH233615   4.943   1.471   4.516 -0.1175 -0.0555 -0.5917
11221TIP3    H133616   4.854   1.440   4.537  0.8049 -1.5754  1.2815
11221TIP3    H233617   4.991   1.459   4.597  1.6479  1.3874 -1.4176
11222TIP3   OH233618   3.201   5.940   4.811 -0.6042  0.4282 -0.1735
11222TIP3    H133619   3.246   5.986   4.740  1.8226  1.1459  1.7280
11222TIP3    H233620   3.208   5.999   4.886 -0.0209 -1.7310  1.5546
11223TIP3   OH233621   6.733   1.627   4.640 -0.7661 -0.1949 -0.6367
11223TIP3    H133622   6.695   1.559   4.695 -0.9331 -2.2227 -3.1720
11223TIP3    H233623   6.657   1.671   4.601 -0.6152  0.2860 -0.3983
11224TIP3   OH233624   4.353   3.994   5.733  0.2368  1.1079  0.3655
11224TIP3    H133625   4.323   4.074   5.689 -0.5004  0.3250 -0.6083
11224TIP3    H233626   4.379   4.022   5.820  1.1917  2.6206 -0.3777
11225TIP3   OH233627   4.469   6.995   4.507 -0.1183 -0.3867  0.2378
11225TIP3    H133628   4.480   7.079   4.462  2.3172 -0.5716  0.4249
11225TIP3    H233629   4.452   6.932   4.437 -1.0381  0.1005  0.0175
11226TIP3   OH233630   6.389   2.028   4.649 -0.6753  0.7347  0.3635
11226TIP3    H133631   6.389   1.934   4.666 -1.9091  0.4333 -1.2507
11226TIP3    H233632   6.477   2.057   4.674  0.2702 -1.1407 -0.7312
11227TIP3   OH233633   4.866   1.854   5.305  0.2804 -0.1402 -0.2670
11227TIP3    H133634   4.898   1.793   5.238  3.5456  0.5052  0.6206
11227TIP3    H233635   4.845   1.799   5.380  0.3799 -0.4604 -0.4751
11228TIP3   OH233636   7.738   4.632   0.326 -0.2073 -0.0691  0.1776
11228TIP3    H133637   7.698   4.679   0.399 -1.5896 -0.5914 -0.2262
11228TIP3    H233638   7.664   4.609   0.269  0.2425 -3.9056  1.0183
11229TIP3   OH233639   7.645   0.497   3.693  0.0227  0.5342  0.1519
11229TIP3    H133640   7.696   0.423   3.724  0.1374  0.9914  1.0839
11229TIP3    H233641   7.631   0.480   3.600 -0.1355 -0.7550  0.4083
11230TIP3   OH233642   5.583   0.495   5.654  0.0977  0.0688 -0.3424
11230TIP3    H133643   5.580   0.402   5.630 -2.0130  0.3589 -1.2291
11230TIP3    H233644   5.634   0.536   5.584 -0.0374 -0.2241 -0.6145
11231TIP3   OH233645   1.998   5.421   0.198 -0.2213 -0.2785  0.0659
11231TIP3    H133646   2.060   5.376   0.140 -0.3678  0.7654 -0.9093
11231TIP3    H233647   1.920   5.365   0.198  0.4152 -1.1806  0.6622
11232TIP3   OH233648   5.451   5.932   6.134 -0.0589 -0.3697  0.2442
11232TIP3    H133649   5.519   5.990   6.167  0.0686 -0.1562 -0.3830
11232TIP3    H233650   5.451   5.947   6.039 -0.7484 -0.6170  0.2051
11233TIP3   OH233651   0.587   1.321   3.586  0.0056  0.0708 -0.2248
11233TIP3    H133652   0.653   1.382   3.619 -0.4579  0.3563  0.1778
11233TIP3    H233653   0.520   1.377   3.547 -0.1617 -0.2069 -0.3364
11234TIP3   OH233654   7.505   0.040   4.593 -0.0579 -0.3974  0.5834
11234TIP3    H133655   7.517   0.069   4.684  0.7611  1.4686 -0.0942
11234TIP3    H233656   7.543  -0.048   4.591  0.8502 -0.0477  1.8032
11235TIP3   OH233657   3.969   0.766   5.099  0.5225  0.4186 -0.0701
11235TIP3    H133658   4.004   0.855   5.092 -0.5739  0.8197 -0.5493
11235TIP3    H233659   3.878   0.774   5.071  0.6836 -1.0395 -1.0617
11236TIP3   OH233660   2.908   3.484   0.930  0.0405  0.0604  0.0536
11236TIP3    H133661   2.830   3.430   0.939 -0.1391  0.4059  0.6469
11236TIP3    H233662   2.971   3.446   0.991  0.1115  0.1642  0.0459
11237TIP3   OH233663   4.330   7.013   5.482 -0.1787  0.3103 -0.4826
11237TIP3    H133664   4.395   6.943   5.473 -1.3949 -0.8903 -0.1145
11237TIP3    H233665   4.303   7.032   5.392  0.3986  0.5577 -0.6093
11238TIP3   OH233666   7.174   0.205   2.110 -0.3039 -0.0029 -0.3516
11238TIP3    H133667   7.201   0.297   2.103  0.1438  0.0357  1.4996
11238TIP3    H233668   7.078   0.209   2.106 -0.2661  0.4639 -0.9623
11239TIP3   OH233669   5.401   1.195   5.886 -0.2890 -0.0812 -0.3534
11239TIP3    H133670   5.347   1.190   5.964 -1.3266  2.3006 -0.8611
11239TIP3    H233671   5.421   1.288   5.877  0.9172 -0.4942 -2.1737
11240TIP3   OH233672   0.050   1.276   5.104  0.1345  0.0001  0.2752
11240TIP3    H133673   0.075   1.249   5.015  0.4157  2.3056 -0.3754
11240TIP3    H233674  -0.035   1.235   5.119 -0.8300  1.1319 -1.8244
11241TIP3   OH233675   2.409   4.969   0.221  0.0878 -0.1673  0.4284
11241TIP3    H133676   2.470   4.943   0.289 -1.5106 -0.7242  1.6814
11241TIP3    H233677   2.365   4.888   0.195  0.0845  0.1747 -0.6703
11242TIP3   OH233678   6.525   0.434   5.901  0.3397 -0.0906  0.5238
11242TIP3    H133679   6.515   0.422   5.995 -1.3259 -0.8551  0.2471
11242TIP3    H233680   6.590   0.369   5.875  0.4751 -0.1716  1.0568
11243TIP3   OH233681   0.120   2.755   3.743  0.0055 -0.1911  0.5384
11243TIP3    H133682   0.132   2.770   3.649 -1.4311  0.2093  0.4155
11243TIP3    H233683   0.095   2.841   3.778  0.9039 -0.2497  1.3613
11244TIP3   OH233684   0.915   3.891   0.421 -0.5555  0.3442  0.4111
11244TIP3    H133685   0.983   3.908   0.357 -0.6677 -1.2440 -0.1502
11244TIP3    H233686   0.873   3.811   0.391 -2.9431  1.4968  0.5104
11245TIP3   OH233687   2.966   6.179   2.259  1.0310  0.8334  0.0480
11245TIP3    H133688   2.947   6.121   2.185  0.4045  1.3479 -0.2068
11245TIP3    H233689   2.880   6.213   2.284  1.2638  0.7822  0.9130
11246TIP3   OH233690   6.897   2.130   0.725  0.0621  0.1495 -0.2500
11246TIP3    H133691   6.853   2.129   0.810 -2.5979 -0.0857 -1.5765
11246TIP3    H233692   6.876   2.045   0.686  2.5274 -0.3699 -0.5738
11247TIP3   OH233693   7.613   0.868   5.668 -0.0052  0.6500  0.4213
11247TIP3    H133694   7.550   0.832   5.730 -1.5547  1.8677 -0.3919
11247TIP3    H233695   7.579   0.843   5.582  0.9295  0.8306 -0.0036
11248TIP3   OH233696   2.899   7.175   4.042  0.2417  0.1650  0.0721
11248TIP3    H133697   2.839   7.249   4.048  0.2216  0.0455  1.6133
11248TIP3    H233698   2.986   7.213   4.053  0.4175  0.2554 -1.5273
11249TIP3   OH233699   7.676   1.955   3.226  0.1343  0.1864 -0.5221
11249TIP3    H133700   7.727   1.945   3.306  0.5962  1.7467 -0.6155
11249TIP3    H233701   7.592   1.990   3.255 -0.6582 -1.6801 -0.4526
11250TIP3   OH233702   4.622   7.063   5.235 -0.1838  0.2300 -0.1437
11250TIP3    H133703   4.613   6.969   5.221  1.6644 -0.0365  0.3071
11250TIP3    H233704   4.714   7.075   5.256 -0.1861  2.2802 -1.1989
11251TIP3   OH233705   6.485   3.166   4.670  0.1785  0.6171  0.7321
11251TIP3    H133706   6.576   3.139   4.683  0.3127  1.4010  1.4853
11251TIP3    H233707   6.481   3.193   4.578  0.6929  0.5144  0.6768
11252TIP3   OH233708   0.709   2.450   3.033 -0.3935  0.1441  0.9380
11252TIP3    H133709   0.677   2.373   2.985  0.5998  0.9424 -1.0436
11252TIP3    H233710   0.797   2.425   3.062  0.1551  0.7292 -0.2007
11253TIP3   OH233711   5.751   0.297   5.315 -0.1524  0.5709 -0.2606
11253TIP3    H133712   5.763   0.328   5.226  0.1295 -0.2654 -0.5151
11253TIP3    H233713   5.836   0.261   5.341 -0.5066 -0.1041 -0.0177
11254TIP3   OH233714   0.481   0.764   4.665  0.1459 -0.0219 -0.3343
11254TIP3    H133715   0.564   0.809   4.678  0.8582 -1.6444  0.8932
11254TIP3    H233716   0.503   0.671   4.669 -1.5254 -0.4926 -1.3522
11255TIP3   OH233717   7.347   2.230   4.862 -0.2176 -0.1089  0.1857
11255TIP3    H133718   7.399   2.308   4.844 -2.2539  1.2712  0.1942
11255TIP3    H233719   7.269   2.262   4.907 -1.4212 -2.0742 -0.4292
11256TIP3   OH233720   7.181   1.382   5.858 -0.1832 -0.2032  0.0683
11256TIP3    H133721   7.172   1.287   5.851  0.8819 -0.3425  0.5018
11256TIP3    H233722   7.157   1.415   5.771 -0.5848 -0.8575 -0.0729
11257TIP3   OH233723   4.082   7.241   3.981  0.0358 -0.0759  0.2377
11257TIP3    H133724   4.124   7.318   3.942  0.2484 -0.6420 -0.6694
11257TIP3    H233725   4.064   7.266   4.071 -0.3647  1.2252 -0.1936
11258TIP3   OH233726   3.753   6.774   5.329  0.1625  0.6080  0.3869
11258TIP3    H133727   3.724   6.846   5.385  0.8206  0.7993  0.4783
11258TIP3    H233728   3.792   6.710   5.389 -0.5547  0.0967  0.3265
11259TIP3   OH233729   7.364   1.133   6.245  0.3096  0.1698 -0.2954
11259TIP3    H133730   7.282   1.093   6.274  0.6071 -0.3472 -0.1533
11259TIP3    H233731   7.346   1.163   6.156  0.8628 -2.7559 -1.4548
11260TIP3   OH233732   0.657   0.025   5.598 -0.1202  0.0955 -0.1450
11260TIP3    H133733   0.584   0.087   5.599 -0.7543 -0.6020 -1.7389
11260TIP3    H233734   0.705   0.043   5.679 -0.3539  2.6177 -0.5097
11261TIP3   OH233735   6.239   6.989   5.707 -0.2656 -0.4791  0.5147
11261TIP3    H133736   6.239   6.997   5.611  3.6051 -0.0087  0.4926
11261TIP3    H233737   6.224   7.078   5.738  2.0533  0.0424  0.2754
11262TIP3   OH233738   6.412   2.129   5.396  0.1712 -0.0947  0.7466
11262TIP3    H133739   6.369   2.135   5.481 -0.1251 -1.2214  0.6951
11262TIP3    H233740   6.484   2.067   5.411  1.0477  0.8661  0.5439
11263TIP3   OH233741   5.088   0.607   5.649 -0.5716 -0.2517 -0.4780
11263TIP3    H133742   5.135   0.564   5.578 -2.6749 -1.7518 -1.0059
11263TIP3    H233743   5.128   0.571   5.729 -1.1440 -1.9005 -0.9174
11264TIP3   OH233744   7.510   1.478   3.747  0.0179 -0.8294 -0.2000
11264TIP3    H133745   7.553   1.520   3.672 -0.9184 -0.0938 -0.3342
11264TIP3    H233746   7.520   1.384   3.732  0.6255 -0.6731 -0.7777
11265TIP3   OH233747   5.109   2.110   6.342  0.3511 -0.0729 -0.1110
11265TIP3    H133748   5.073   2.169   6.408 -1.1265  1.3601 -2.1149
11265TIP3    H233749   5.035   2.091   6.284  2.0507  0.3169 -2.4788
11266TIP3   OH233750   7.367   0.397   5.217  0.1143 -0.5150 -0.1960
11266TIP3    H133751   7.316   0.385   5.297  0.1720 -1.2710 -0.2726
11266TIP3    H233752   7.301   0.406   5.148  0.0607  0.3108 -0.0483
11267TIP3   OH233753   5.773  -0.018   3.972  0.0021  0.0935  0.5691
11267TIP3    H133754   5.746   0.069   3.998 -1.6532  0.0464 -0.8862
11267TIP3    H233755   5.770  -0.017   3.876 -2.3219 -2.2197  0.5457
11268TIP3   OH233756   4.107   7.350   5.277  0.0055 -0.9362  0.0579
11268TIP3    H133757   4.087   7.423   5.336  0.1960  0.6124 -1.7277
11268TIP3    H233758   4.031   7.344   5.220  1.5793  0.4166 -2.2665
11269TIP3   OH233759   3.581   0.039   0.674  0.2701 -0.0413 -0.0386
11269TIP3    H133760   3.534  -0.041   0.697 -0.5527 -0.0256 -1.6032
11269TIP3    H233761   3.574   0.094   0.753 -1.0055 -0.6572  0.2991
11270TIP3   OH233762   4.828   0.963   5.238  0.1079 -0.0415  0.5174
11270TIP3    H133763   4.900   0.902   5.225  1.1731  1.2023  0.5322
11270TIP3    H233764   4.823   0.974   5.333 -2.1446 -2.5207  0.7531
11271TIP3   OH233765   5.736   1.386   5.139 -0.1765  0.1626 -0.9037
11271TIP3    H133766   5.809   1.362   5.082  1.4872 -0.4415  1.4023
11271TIP3    H233767   5.688   1.304   5.151 -1.0527  0.4831 -2.1294
11272TIP3   OH233768   5.912   0.987   4.192  0.4879  0.1457 -0.1073
11272TIP3    H133769   5.850   1.002   4.264  0.3313 -0.6876 -0.0618
11272TIP3    H233770   5.860   0.941   4.126  0.8676  0.1171 -0.3830
11273TIP3   OH233771   5.334   2.990   6.100 -0.1228  0.1502 -0.1239
11273TIP3    H133772   5.368   2.910   6.059 -0.3760  0.2895 -0.5985
11273TIP3    H233773   5.265   3.020   6.041  2.2083  2.5790 -1.6961
11274TIP3   OH233774   7.836   6.493   1.558  0.3729  0.0751 -0.4328
11274TIP3    H133775   7.846   6.409   1.604 -0.2059  0.2121 -0.0568
11274TIP3    H233776   7.924   6.512   1.524  0.6983 -0.2576  0.2131
11275TIP3   OH233777   6.351   5.646   0.943 -0.0357  0.5963 -0.3236
11275TIP3    H133778   6.345   5.659   1.038 -0.9164  0.5661 -0.3746
11275TIP3    H233779   6.331   5.554   0.929  1.8507  0.1796 -0.3829
11276TIP3   OH233780   2.127   2.594   0.363 -0.6152 -0.2177 -0.3334
11276TIP3    H133781   2.185   2.589   0.439 -0.3530  1.1388 -0.4292
11276TIP3    H233782   2.050   2.543   0.388  0.1747 -1.1690  0.1961
11277TIP3   OH233783   1.005   4.498   1.036 -0.0440 -0.2868  0.4186
11277TIP3    H133784   1.090   4.503   1.080 -0.8417  0.2689  1.9489
11277TIP3    H233785   1.003   4.574   0.979  0.9768 -0.9671 -0.5342
11278TIP3   OH233786   0.818   0.790   4.512 -0.5372  0.0988 -0.0400
11278TIP3    H133787   0.877   0.734   4.563 -1.9748  0.4898  2.1016
11278TIP3    H233788   0.761   0.831   4.577 -2.1801  0.9144 -1.9418
11279TIP3   OH233789   0.119   3.397   3.569 -0.5016  0.3967 -0.3435
11279TIP3    H133790   0.146   3.468   3.627  0.6650  0.6996 -1.2632
11279TIP3    H233791   0.188   3.331   3.579 -1.6418 -0.6906  0.6117
11280TIP3   OH233792   6.941   1.036   3.967  0.2210  0.5072  0.5604
11280TIP3    H133793   7.005   0.966   3.980  1.0821  1.2840  0.6017
11280TIP3    H233794   6.932   1.043   3.872 -2.0368 -1.5749  0.5829
11281TIP3   OH233795   7.429   0.201   2.932  0.3512  0.1141 -0.5830
11281TIP3    H133796   7.521   0.213   2.910  0.0486 -2.3261 -3.5589
11281TIP3    H233797   7.385   0.277   2.895  0.8652  0.0577 -1.3183
11282TIP3   OH233798   5.502   2.139   4.668  0.2189  0.1738 -0.5024
11282TIP3    H133799   5.595   2.159   4.681  0.5262 -1.9876  0.8836
11282TIP3    H233800   5.498   2.103   4.579  0.6411  0.6347 -0.7116
11283TIP3   OH233801   5.286   2.571   6.386 -0.0648 -0.0834  0.5128
11283TIP3    H133802   5.326   2.658   6.387  0.2651 -0.2463  2.2979
11283TIP3    H233803   5.221   2.576   6.316  0.7011  1.2490 -0.1372
11284TIP3   OH233804   5.422   6.826   3.738  0.4930 -0.0732  0.2378
11284TIP3    H133805   5.514   6.822   3.765  0.6709 -2.5099 -0.5732
11284TIP3    H233806   5.372   6.827   3.819  1.2320  1.1972  0.6836
11285TIP3   OH233807   5.414   1.743   4.259 -0.4018  0.5094 -0.3952
11285TIP3    H133808   5.350   1.679   4.291 -0.5157  1.2492  0.8804
11285TIP3    H233809   5.497   1.715   4.298 -0.4524  1.1374  0.1672
11286TIP3   OH233810   6.547   2.019   5.991  0.3385  0.2525 -0.1139
11286TIP3    H133811   6.600   1.977   6.059 -1.8735 -0.7823  1.0509
11286TIP3    H233812   6.482   1.952   5.967 -1.0936  1.8159 -0.7238
11287TIP3   OH233813   7.436   0.684   2.930  0.5252 -0.4552  0.2253
11287TIP3    H133814   7.352   0.721   2.957 -0.2724 -1.4718 -0.8631
11287TIP3    H233815   7.500   0.754   2.950 -0.1097 -0.8158  3.9947
11288TIP3   OH233816   5.385   5.734   5.815 -0.6500  0.6728  0.0161
11288TIP3    H133817   5.341   5.698   5.738  0.3448  1.4084 -0.9101
11288TIP3    H233818   5.439   5.662   5.848 -1.7950  0.0667  0.5925
11289TIP3   OH233819   7.430   1.765   4.979  0.0436  0.3455  0.0485
11289TIP3    H133820   7.398   1.817   5.053 -1.3030  1.0026 -0.9970
11289TIP3    H233821   7.512   1.727   5.012  0.0882  1.5905  1.4754
11290TIP3   OH233822   7.045   6.429   6.029  0.0093 -0.8585 -0.2844
11290TIP3    H133823   7.135   6.461   6.035 -0.4625  0.5538 -0.6070
11290TIP3    H233824   7.009   6.440   6.117 -0.3507  0.1177 -0.5466
11291TIP3   OH233825   6.453   1.464   4.620 -0.0196  0.5869  0.1349
11291TIP3    H133826   6.378   1.490   4.567 -1.3571 -2.5962  0.3316
11291TIP3    H233827   6.432   1.495   4.708 -0.8485  0.2314  0.0686
11292TIP3   OH233828   7.611   1.456   5.971  0.4117 -0.1809  0.0354
11292TIP3    H133829   7.568   1.370   5.976  0.7106 -0.2200  3.0583
11292TIP3    H233830   7.625   1.471   5.878 -1.3475 -2.5707 -0.6562
11293TIP3   OH233831   7.104   1.506   5.624 -0.4455 -0.3105 -0.2298
11293TIP3    H133832   7.057   1.478   5.545 -2.8268  1.9181  0.3318
11293TIP3    H233833   7.155   1.582   5.595 -0.9223  0.1951  0.2497
11294TIP3   OH233834   1.012   3.161   0.375 -0.5406  0.1030  0.2669
11294TIP3    H133835   1.060   3.185   0.454 -0.2779  1.3041 -0.2415
11294TIP3    H233836   1.067   3.191   0.303  0.1319 -2.6642 -0.4457
11295TIP3   OH233837   4.355   0.635   6.262  0.4290 -0.0853 -0.2790
11295TIP3    H133838   4.315   0.559   6.219 -0.0953 -1.0609  1.8785
11295TIP3    H233839   4.355   0.613   6.355 -1.1552  3.1894  0.5936
11296TIP3   OH233840   0.037   0.276   6.274  0.4175 -0.4749  0.3066
11296TIP3    H133841   0.130   0.286   6.297  0.7159  0.4643 -1.2113
11296TIP3    H233842  -0.005   0.248   6.355  2.0813 -1.1992  0.9366
11297TIP3   OH233843   7.006   1.683   4.645 -0.2474  0.2376  0.3404
11297TIP3    H133844   6.912   1.677   4.630 -0.4873  0.0473  1.8259
11297TIP3    H233845   7.016   1.757   4.704  0.6522  0.9511 -0.6800
11298TIP3   OH233846   1.750   1.581   2.971  0.0482  0.0945 -0.2830
11298TIP3    H133847   1.812   1.512   2.993 -1.5635 -1.4651 -0.4844
11298TIP3    H233848   1.791   1.662   3.002  2.2289 -0.8700 -0.5688
11299TIP3   OH233849   7.005   3.177   4.774 -0.3831  0.7523  0.2335
11299TIP3    H133850   7.062   3.248   4.803 -0.9500  1.2808  0.0781
11299TIP3    H233851   7.056   3.129   4.709 -0.5026  1.8595 -0.6911
11300TIP3   OH233852   0.790   2.678   3.211  0.4750 -0.2284 -0.5998
11300TIP3    H133853   0.857   2.727   3.164 -1.1353  0.9132 -1.7765
11300TIP3    H233854   0.750   2.623   3.144  1.5950 -2.4284  0.5157
11301TIP3   OH233855   4.494   7.222   5.559  0.2163 -0.5596 -0.5512
11301TIP3    H133856   4.452   7.283   5.620  0.9593 -0.8517  0.2703
11301TIP3    H233857   4.422   7.173   5.521 -0.2853 -0.1524 -0.1364
11302TIP3   OH233858   5.329   0.292   5.115  0.1382 -0.1557  0.2285
11302TIP3    H133859   5.404   0.266   5.169  1.1028  0.3680 -0.8388
11302TIP3    H233860   5.346   0.251   5.030 -2.6063 -3.0349  0.9693
11303TIP3   OH233861   7.419   0.975   4.661 -0.0714  0.1468  0.0112
11303TIP3    H133862   7.348   0.954   4.601 -1.3135  1.8505  0.8464
11303TIP3    H233863   7.380   1.033   4.726  1.7199 -0.0794  1.3557
11304TIP3   OH233864   7.681   2.695   3.249 -0.2073 -0.1863  0.1708
11304TIP3    H133865   7.768   2.666   3.274  0.0514 -0.1140 -0.6482
11304TIP3    H233866   7.634   2.614   3.227 -1.2351 -0.5208  3.3015
11305TIP3   OH233867   6.966   2.929   5.388 -0.6328  0.0381 -0.0233
11305TIP3    H133868   7.000   2.981   5.460  0.5535  0.6324 -1.0017
11305TIP3    H233869   6.904   2.869   5.430  0.5763 -0.1299  1.5956
11306TIP3   OH233870   6.336   6.468   3.311  0.6338  0.1705  0.4290
11306TIP3    H133871   6.275   6.396   3.301  1.4238 -0.3783 -0.5081
11306TIP3    H233872   6.323   6.522   3.233  0.6959  0.5408  0.6722
11307TIP3   OH233873   2.464   1.125   2.203  0.0630 -0.4448  0.2191
11307TIP3    H133874   2.535   1.080   2.158  0.7784  0.7144  0.1724
11307TIP3    H233875   2.432   1.188   2.139 -1.3330 -1.2836  0.0702
11308TIP3   OH233876   5.658   7.245   4.275  0.3673  0.4141 -0.0285
11308TIP3    H133877   5.741   7.231   4.229  0.4488  0.8483 -0.0077
11308TIP3    H233878   5.657   7.176   4.342 -0.8185 -1.7326 -2.1453
11309TIP3   OH233879   6.379   6.780   3.200 -0.1932  0.2579 -0.2283
11309TIP3    H133880   6.397   6.734   3.282 -1.0764 -1.7411 -1.1135
11309TIP3    H233881   6.330   6.857   3.226 -1.6421 -1.0536  1.0387
11310TIP3   OH233882   0.104   4.231   2.022 -0.9173  0.2355  0.1284
11310TIP3    H133883   0.149   4.305   2.063  0.1957  0.2694 -1.1345
11310TIP3    H233884   0.028   4.215   2.079  0.6040  0.2338  2.2225
11311TIP3   OH233885   0.727   7.266   4.515  0.1981 -0.0285 -0.1868
11311TIP3    H133886   0.723   7.172   4.532 -0.1479 -0.1128 -0.7565
11311TIP3    H233887   0.791   7.275   4.444 -0.9300  0.0304 -1.1999
11312TIP3   OH233888   0.052   2.187   3.175 -0.4815  0.1114  0.0166
11312TIP3    H133889  -0.010   2.247   3.134 -0.9485  0.4498  1.1773
11312TIP3    H233890  -0.003   2.122   3.219 -0.0058  0.1358  0.6576
11313TIP3   OH233891   0.360   1.385   4.518 -0.4084  0.1051 -0.2005
11313TIP3    H133892   0.388   1.403   4.428  0.5701  0.4298  0.1582
11313TIP3    H233893   0.326   1.468   4.549  0.8425  0.4366  0.2925
11314TIP3   OH233894   0.768   2.775   4.528  0.9394  0.2580  0.5083
11314TIP3    H133895   0.732   2.811   4.608 -0.4826  0.5169 -0.2342
11314TIP3    H233896   0.763   2.846   4.464 -0.7979 -0.8423 -0.6411
11315TIP3   OH233897   7.459   0.919   3.656 -0.4442 -0.4854  0.0664
11315TIP3    H133898   7.443   0.871   3.574 -0.2157 -1.5418  0.6246
11315TIP3    H233899   7.405   0.997   3.649 -0.4397 -0.5766 -1.0910
11316TIP3   OH233900   6.264   2.132   5.669 -0.1765 -0.4804  0.0372
11316TIP3    H133901   6.321   2.188   5.722 -1.3302 -0.4601  1.2889
11316TIP3    H233902   6.193   2.190   5.641 -0.5110 -0.9258 -0.0378
11317TIP3   OH233903   0.100   3.764   3.906  0.2967 -0.2765 -0.2461
11317TIP3    H133904   0.015   3.756   3.948 -0.1848  2.1210 -0.6806
11317TIP3    H233905   0.159   3.796   3.975  0.3432  0.0932 -0.4514
11318TIP3   OH233906   5.660   3.465   1.811  0.1803 -0.3284  0.2402
11318TIP3    H133907   5.662   3.446   1.905 -0.6279  1.7697  0.7059
11318TIP3    H233908   5.620   3.387   1.772 -1.0725 -0.5188  1.8439
11319TIP3   OH233909   6.413   1.085   3.949  0.0376 -0.5410  0.6918
11319TIP3    H133910   6.488   1.033   3.919  0.5413  0.6445 -0.1856
11319TIP3    H233911   6.339   1.052   3.899 -0.2902 -2.5522  2.4487
11320TIP3   OH233912   2.916   2.563   4.851  0.2988 -0.0850  0.2938
11320TIP3    H133913   2.831   2.582   4.891  0.2642  0.9204 -0.2565
11320TIP3    H233914   2.979   2.611   4.905  0.3515  0.5007 -0.2932
11321TIP3   OH233915   1.469   0.929   3.593 -0.0373  0.0593 -0.0444
11321TIP3    H133916   1.400   0.914   3.528 -0.1552  3.5017 -0.8028
11321TIP3    H233917   1.424   0.923   3.678 -0.4517 -1.5845 -0.3681
11322TIP3   OH233918   0.761   0.011   4.159 -0.6803  0.1523  0.3857
11322TIP3    H133919   0.826   0.070   4.121 -0.6772  0.0151  0.1753
11322TIP3    H233920   0.681   0.063   4.162 -0.1095  0.9607  2.4443
11323TIP3   OH233921   7.861   2.804   2.789 -0.4007 -0.2024 -0.4351
11323TIP3    H133922   7.951   2.810   2.757  0.2358  0.1022  1.3126
11323TIP3    H233923   7.855   2.873   2.855 -1.9055 -0.2588 -0.4960
11324TIP3   OH233924   1.926   0.030   6.056  0.2433 -0.4258 -0.0155
11324TIP3    H133925   2.003  -0.019   6.029  0.4570 -0.2660  0.3094
11324TIP3    H233926   1.944   0.121   6.030  0.2847 -0.3394  0.3081
11325TIP3   OH233927   6.633   2.324   4.467  0.0456 -0.0587 -0.0542
11325TIP3    H133928   6.698   2.361   4.407  0.1410 -1.3377 -0.7573
11325TIP3    H233929   6.668   2.342   4.554  0.5714  0.6380 -0.4089
11326TIP3   OH233930   6.587   2.451   5.036 -0.4008  0.3186 -0.4249
11326TIP3    H133931   6.556   2.389   5.101 -0.5204 -0.5374 -1.2825
11326TIP3    H233932   6.517   2.517   5.031 -2.6696 -2.1137 -3.0434
11327TIP3   OH233933   3.222   2.140   0.071  0.1802 -0.1677 -0.3183
11327TIP3    H133934   3.141   2.106   0.109 -0.4481 -0.2647 -1.6815
11327TIP3    H233935   3.201   2.231   0.048  0.4385 -0.2100 -0.7257
11328TIP3   OH233936   1.556   2.430   4.310 -0.4309  0.1729 -0.0190
11328TIP3    H133937   1.614   2.357   4.286 -3.2165 -2.0229 -0.3217
11328TIP3    H233938   1.518   2.404   4.394 -2.9350  0.3391 -1.0526
11329TIP3   OH233939   7.120   0.194   4.326 -0.8068  0.1912 -0.3551
11329TIP3    H133940   7.189   0.172   4.389 -0.5075 -0.8666 -1.0408
11329TIP3    H233941   7.102   0.286   4.342 -1.0523 -0.1668  1.5903
11330TIP3   OH233942   0.819   0.838   4.230  0.4657  0.5255 -0.1194
11330TIP3    H133943   0.776   0.760   4.194 -1.7917  2.1364 -0.9721
11330TIP3    H233944   0.821   0.823   4.324  1.0048 -1.0099 -0.3548
11331TIP3   OH233945   7.816   0.689   4.775 -1.0955  0.4997 -0.2453
11331TIP3    H133946   7.892   0.681   4.832 -0.2285  0.3232 -1.4272
11331TIP3    H233947   7.760   0.615   4.800  1.1285 -2.0033 -2.3804
11332TIP3   OH233948   3.872   2.259   1.153  0.4635 -0.0511  0.0407
11332TIP3    H133949   3.866   2.266   1.248 -0.3382 -0.7022  0.0411
11332TIP3    H233950   3.926   2.181   1.138  1.1569  0.4332 -0.0442
11333TIP3   OH233951   1.882   1.383   3.077 -0.0326 -0.3204 -0.4182
11333TIP3    H133952   1.954   1.344   3.026  1.1215  0.1498  0.8354
11333TIP3    H233953   1.837   1.308   3.115 -0.8912 -0.6828 -2.0705
11334TIP3   OH233954   2.453   0.190   4.338  0.5148  0.7431 -0.3155
11334TIP3    H133955   2.518   0.188   4.408  1.4324  0.6615 -1.1662
11334TIP3    H233956   2.410   0.104   4.343  0.6002  0.7193  0.1096
11335TIP3   OH233957   1.940   0.553   6.212  0.4672 -0.2436 -0.1947
11335TIP3    H133958   1.971   0.617   6.275  0.8638 -1.6482  1.0791
11335TIP3    H233959   1.915   0.477   6.266 -1.2360 -0.6785 -1.5406
11336TIP3   OH233960   1.995   0.135   5.712 -0.4754 -0.3539 -0.4711
11336TIP3    H133961   2.010   0.132   5.617  0.3414  0.0236 -0.3543
11336TIP3    H233962   1.995   0.043   5.739 -1.3153 -0.4984 -0.9256
11337TIP3   OH233963   0.715   0.404   5.835  0.6113  0.6954 -0.0627
11337TIP3    H133964   0.704   0.486   5.786 -0.0218  1.0111  0.5967
11337TIP3    H233965   0.808   0.383   5.825  0.5233  0.8531 -1.2427
11338TIP3   OH233966   5.712   6.075   1.925  0.0573 -0.1910  0.1824
11338TIP3    H133967   5.676   6.159   1.956  0.2438 -0.1449  0.2773
11338TIP3    H233968   5.801   6.074   1.958  0.9147  0.7397 -1.9895
11339TIP3   OH233969   7.132   6.279   1.035  0.0667 -0.2797 -0.0114
11339TIP3    H133970   7.225   6.273   1.057 -0.5646  0.3355  3.1350
11339TIP3    H233971   7.118   6.372   1.018  0.6527 -0.8181 -3.8290
11340TIP3   OH233972   4.837   1.126   2.647  1.0353  0.1214  0.1634
11340TIP3    H133973   4.848   1.031   2.646  0.2026  0.0065  1.0772
11340TIP3    H233974   4.926   1.160   2.660  1.6011 -0.4540 -1.9030
11341TIP3   OH233975   2.668   6.163   0.115  0.2076  0.3121  0.0253
11341TIP3    H133976   2.599   6.139   0.053  0.1074  1.1420 -0.1871
11341TIP3    H233977   2.624   6.213   0.183  0.6272  0.9896 -0.2018
11342TIP3   OH233978   6.818   5.041   0.518  0.0516 -0.3657 -0.4711
11342TIP3    H133979   6.749   4.977   0.538 -1.0507  1.4644  1.8613
11342TIP3    H233980   6.802   5.064   0.427 -1.9102 -0.6281 -0.2329
11343TIP3   OH233981   0.240   7.116   2.519  0.4320 -0.4880 -0.7038
11343TIP3    H133982   0.244   7.043   2.580  0.4245 -0.2618 -0.4295
11343TIP3    H233983   0.266   7.192   2.571  0.9665 -0.3787 -1.1249
11344TIP3   OH233984   4.098   2.133   1.658 -0.2506  0.0860 -0.8960
11344TIP3    H133985   4.155   2.201   1.693  1.1892 -0.7575 -1.5765
11344TIP3    H233986   4.066   2.086   1.735 -1.7771  1.9049 -0.3757
11345TIP3   OH233987   0.484   5.088   1.259  0.2662 -0.2379  1.0728
11345TIP3    H133988   0.571   5.066   1.294  1.2614  1.3818 -0.2911
11345TIP3    H233989   0.483   5.184   1.259 -1.4072 -0.2528  0.7564
11346TIP3   OH233990   0.484   6.668   4.256  0.9889 -0.2630  0.6183
11346TIP3    H133991   0.426   6.637   4.186  3.4019 -1.9702 -0.6988
11346TIP3    H233992   0.479   6.601   4.324  2.5728 -1.2342 -0.1848
11347TIP3   OH233993   1.012   6.254   5.202 -0.3016  0.1985 -0.8875
11347TIP3    H133994   0.939   6.221   5.149 -1.6202  1.0367  0.3826
11347TIP3    H233995   0.994   6.224   5.291  2.4136 -2.0375 -1.0035
11348TIP3   OH233996   7.012   6.062   2.409 -0.2811  0.2405 -0.4017
11348TIP3    H133997   7.021   6.157   2.402 -0.2833  0.3920  1.5801
11348TIP3    H233998   6.947   6.048   2.477 -0.2124 -1.1929 -0.6136
11349TIP3   OH233999   2.162   6.956   4.748 -0.0882  0.2081 -0.0986
11349TIP3    H134000   2.078   6.963   4.795  0.2475  1.4851  0.3464
11349TIP3    H234001   2.191   7.047   4.739  1.7619 -0.2859  0.6852
11350TIP3   OH234002   7.377   5.670   2.226  0.4180  0.8635 -0.5821
11350TIP3    H134003   7.409   5.720   2.151  0.5018  0.3844 -0.8671
11350TIP3    H234004   7.410   5.717   2.303 -0.7929  2.1308 -0.8131
11351TIP3   OH234005   7.209   5.450   3.305  0.0164 -0.2007  0.5276
11351TIP3    H134006   7.151   5.440   3.380 -0.0706 -2.5375  0.1930
11351TIP3    H234007   7.164   5.511   3.247 -0.6033  0.4747  1.7032
11352TIP3   OH234008   7.765   5.648   1.766  0.0469 -0.2474  0.2113
11352TIP3    H134009   7.735   5.660   1.856 -0.7900  0.3322 -0.1394
11352TIP3    H234010   7.845   5.700   1.760 -0.4361  0.5301  0.3470
11353TIP3   OH234011   5.101   2.707   3.974 -0.4186 -0.0385  0.3225
11353TIP3    H134012   5.106   2.614   3.952 -0.0031  0.0531  0.0180
11353TIP3    H234013   5.164   2.718   4.046 -0.3059  0.0457  0.2121
11354TIP3   OH234014   1.779   0.278   0.804  0.1670  0.1527  0.2187
11354TIP3    H134015   1.750   0.187   0.813 -0.4611  0.3593  0.2867
11354TIP3    H234016   1.793   0.307   0.894 -0.5027  0.4064  0.2389
11355TIP3   OH234017   0.957   6.700   2.107 -0.1101  0.2169  0.0992
11355TIP3    H134018   0.944   6.664   2.020  2.3743  2.5183 -1.2907
11355TIP3    H234019   1.024   6.645   2.147 -0.5813 -0.2674  0.2312
11356TIP3   OH234020   0.615   6.924   1.347  0.2406  0.3386  0.0525
11356TIP3    H134021   0.709   6.925   1.360  0.3140  0.1408 -0.4467
11356TIP3    H234022   0.604   6.916   1.252 -0.2756  0.7640  0.0742
11357TIP3   OH234023   4.067   2.582   5.998 -0.3027 -0.6612  0.3718
11357TIP3    H134024   4.116   2.617   6.073  0.1994 -0.1722 -0.1725
11357TIP3    H234025   4.083   2.645   5.928  0.2430 -1.7433 -0.5026
11358TIP3   OH234026   0.234   5.744   1.075  0.1933  0.0650  0.2656
11358TIP3    H134027   0.261   5.813   1.136 -2.4953  2.2611 -0.8609
11358TIP3    H234028   0.139   5.758   1.064 -0.1222 -2.8215 -1.2661
11359TIP3   OH234029   2.464   4.719   0.758  0.3575 -0.0618 -0.2635
11359TIP3    H134030   2.516   4.688   0.833 -1.0651  0.9045  1.1684
11359TIP3    H234031   2.397   4.775   0.798 -0.6244  0.2055 -2.2541
11360TIP3   OH234032   7.436   4.701   0.802  0.5265  0.0260  0.0064
11360TIP3    H134033   7.376   4.725   0.732  1.5270  0.0710 -0.8589
11360TIP3    H234034   7.427   4.606   0.811 -0.8503  0.2416  0.9987
11361TIP3   OH234035   5.799   4.690   0.485  0.9359  0.0367 -0.7273
11361TIP3    H134036   5.853   4.616   0.513 -0.6418 -1.6819 -2.0934
11361TIP3    H234037   5.782   4.739   0.566  0.8719 -1.8551  0.4266
11362TIP3   OH234038   2.239   0.323   1.447  0.9065 -0.3747 -0.7703
11362TIP3    H134039   2.301   0.300   1.378  2.7169  1.6721  0.0990
11362TIP3    H234040   2.224   0.241   1.494  1.0122 -1.4132 -2.5087
11363TIP3   OH234041   2.611   1.250   1.678 -0.5883 -0.4033 -0.1142
11363TIP3    H134042   2.524   1.280   1.650  0.1325  1.5377 -0.3710
11363TIP3    H234043   2.672   1.297   1.621  0.6422 -1.6669  0.1388
11364TIP3   OH234044   2.864   0.067   1.658 -0.2507 -0.1727  0.4018
11364TIP3    H134045   2.949   0.066   1.614 -0.2461 -0.5579  0.4252
11364TIP3    H234046   2.851  -0.023   1.687 -1.3422 -0.4380 -0.8892
11365TIP3   OH234047   5.721   2.490   5.234  0.1979  0.2799 -0.2585
11365TIP3    H134048   5.751   2.580   5.220 -2.8353  1.4960  0.6517
11365TIP3    H234049   5.683   2.464   5.150 -0.7139  0.6108  0.0377
11366TIP3   OH234050   6.551   6.664   2.560  0.3007  0.5107 -0.1072
11366TIP3    H134051   6.593   6.676   2.645 -0.4290  0.0759  0.3230
11366TIP3    H234052   6.526   6.752   2.533  0.9340  0.7016 -0.0815
11367TIP3   OH234053   6.107   6.462   1.625 -0.5752  0.1744  0.3598
11367TIP3    H134054   6.137   6.536   1.572  0.0100  0.1874  0.7071
11367TIP3    H234055   6.160   6.466   1.705 -1.0415 -0.1931  0.6974
11368TIP3   OH234056   6.030   6.921   0.615 -0.6337 -0.4660  0.0359
11368TIP3    H134057   5.964   6.920   0.684 -0.1254 -0.2423  0.5261
11368TIP3    H234058   6.024   6.835   0.574 -0.0238 -1.0864  1.2235
11369TIP3   OH234059   4.310   5.930   3.252 -0.0766  0.0655  0.2157
11369TIP3    H134060   4.287   5.979   3.174 -2.7336  0.0259  0.9526
11369TIP3    H234061   4.230   5.885   3.278  1.5561 -2.4816  1.1532
11370TIP3   OH234062   3.990   5.388   1.807 -0.0224 -0.5183  0.0604
11370TIP3    H134063   4.042   5.398   1.887  1.9377 -1.1578 -1.0878
11370TIP3    H234064   4.041   5.327   1.753 -1.2876 -0.0675 -1.6816
11371TIP3   OH234065   5.391   5.581   1.140 -0.2692  0.1779 -0.3018
11371TIP3    H134066   5.474   5.628   1.137 -0.1228 -0.1147 -1.2325
11371TIP3    H234067   5.327   5.645   1.170 -0.0434  0.9430 -1.4307
11372TIP3   OH234068   4.718   7.027   1.356  0.4751  0.1905  0.3030
11372TIP3    H134069   4.743   6.971   1.283 -1.5463 -0.2249 -0.1197
11372TIP3    H234070   4.720   7.116   1.322  0.7936  0.1081  0.1118
11373TIP3   OH234071  -0.003   0.225   0.149  0.4777 -0.8373  0.1332
11373TIP3    H134072  -0.028   0.133   0.151 -0.0617 -0.7437 -1.5000
11373TIP3    H234073   0.093   0.224   0.148  0.5000 -1.5188 -3.3856
11374TIP3   OH234074   0.059   6.632   1.887  0.6751 -0.3803  0.2490
11374TIP3    H134075   0.138   6.680   1.908  0.0451  0.9142 -0.2624
11374TIP3    H234076   0.045   6.649   1.793 -0.6482  0.0799  0.5191
11375TIP3   OH234077   0.945   1.049   3.376  0.1796  0.0196  0.6121
11375TIP3    H134078   1.037   1.061   3.401  0.4751  0.3776 -0.5811
11375TIP3    H234079   0.948   1.038   3.281 -0.9039 -1.2016  0.6980
11376TIP3   OH234080   7.582   7.115   0.579 -0.4881  0.1997  0.0269
11376TIP3    H134081   7.547   7.133   0.666 -2.0040 -0.2499 -0.4831
11376TIP3    H234082   7.515   7.147   0.519  0.2480 -0.1128 -0.9731
11377TIP3   OH234083   1.058   1.444   0.776 -0.4684  0.2009 -0.1009
11377TIP3    H134084   1.055   1.503   0.701 -0.7031  0.2460 -0.0591
11377TIP3    H234085   1.074   1.358   0.739  0.5610  0.3937 -0.1036
11378TIP3   OH234086   5.017   6.213   1.327 -0.2353  0.3999  0.4844
11378TIP3    H134087   4.954   6.267   1.279 -0.1766 -1.8059 -2.1994
11378TIP3    H234088   4.963   6.147   1.371  0.0948 -1.3248 -1.5979
11379TIP3   OH234089   0.639   3.313   6.286  0.5887 -0.0449  0.4952
11379TIP3    H134090   0.719   3.365   6.294  1.6228 -1.7083  1.4879
11379TIP3    H234091   0.579   3.352   6.350 -0.1439  2.4323 -1.6093
11380TIP3   OH234092   5.265   5.682   2.774 -0.6703 -0.0224  0.2156
11380TIP3    H134093   5.325   5.641   2.712 -0.9862 -0.0382 -0.0880
11380TIP3    H234094   5.195   5.617   2.785 -1.2707  0.5100 -0.4195
11381TIP3   OH234095   1.752   2.438   5.604 -0.4593  0.3531 -0.2630
11381TIP3    H134096   1.756   2.463   5.696 -0.8557  0.6629 -0.3269
11381TIP3    H234097   1.675   2.380   5.598 -0.1348 -0.0748 -0.3019
11382TIP3   OH234098   6.097   0.785   1.354 -0.2162  0.0076 -0.4982
11382TIP3    H134099   6.160   0.713   1.356 -1.6279 -1.2096  1.0624
11382TIP3    H234100   6.130   0.848   1.417  1.1923  0.9255 -2.0961
11383TIP3   OH234101   0.240   1.387   3.302 -0.0422 -0.3406  0.3574
11383TIP3    H134102   0.181   1.454   3.268 -0.0297 -1.0683 -1.1770
11383TIP3    H234103   0.316   1.435   3.334 -0.2098  0.4118 -0.3452
11384TIP3   OH234104   5.414   5.594   2.260 -0.9168  0.0843 -0.2708
11384TIP3    H134105   5.341   5.632   2.212 -1.1707  0.2993  0.2729
11384TIP3    H234106   5.486   5.656   2.249 -1.6290  1.2460  1.4540
11385TIP3   OH234107   5.245   5.927   3.409  0.5500  0.0952 -0.1663
11385TIP3    H134108   5.199   5.845   3.395  0.5388 -0.2102  1.5126
11385TIP3    H234109   5.180   5.985   3.449  0.6092  0.8718 -1.1676
11386TIP3   OH234110   4.935   6.572   2.048 -1.0032 -0.0573 -0.1424
11386TIP3    H134111   4.975   6.611   2.125  0.3035 -0.7537 -0.4516
11386TIP3    H234112   4.847   6.547   2.076 -0.0771 -1.5234  1.4904
11387TIP3   OH234113   0.676   0.491   3.876  0.2121 -0.0535 -0.2139
11387TIP3    H134114   0.757   0.503   3.926 -0.4462  1.3822  0.5204
11387TIP3    H234115   0.641   0.579   3.864 -1.5440 -0.7055 -0.0202
11388TIP3   OH234116   7.091   6.557   2.804 -0.4271  0.8017 -0.5293
11388TIP3    H134117   7.181   6.573   2.833 -1.4188  3.2148  1.3601
11388TIP3    H234118   7.083   6.462   2.801  1.0326  0.4885  3.1116
11389TIP3   OH234119   6.295   4.356   1.845 -0.3711 -0.0008  0.2687
11389TIP3    H134120   6.334   4.347   1.757 -1.1535 -1.2724  0.0426
11389TIP3    H234121   6.203   4.373   1.829 -0.0591  2.3897  0.8255
11390TIP3   OH234122   6.539   5.988   1.283  0.2310  0.4885 -0.1521
11390TIP3    H134123   6.472   6.045   1.247  0.6145  0.3632 -1.0842
11390TIP3    H234124   6.503   5.900   1.273  0.5887  0.4106 -0.7922
11391TIP3   OH234125   7.226   7.082   0.846  0.2070  0.3477 -0.3393
11391TIP3    H134126   7.165   7.156   0.841 -0.0248  0.0815 -1.9837
11391TIP3    H234127   7.221   7.042   0.759  0.2545 -1.6559  0.5560
11392TIP3   OH234128   7.363   5.070   2.838  0.1214 -0.1653  0.0676
11392TIP3    H134129   7.307   5.136   2.797  1.2412  0.2973 -0.7569
11392TIP3    H234130   7.305   5.020   2.895 -1.5978 -1.1254 -2.4523
11393TIP3   OH234131   0.496   1.241   3.139  0.3770 -0.6012 -0.1623
11393TIP3    H134132   0.425   1.283   3.188 -0.4541 -2.8402  0.6276
11393TIP3    H234133   0.538   1.313   3.092  0.5207  1.5048  2.9652
11394TIP3   OH234134   5.257   6.907   0.782  0.1080 -0.6788 -0.0165
11394TIP3    H134135   5.206   6.987   0.775 -0.5609 -1.1798 -0.9362
11394TIP3    H234136   5.343   6.936   0.812  0.2269  0.5272 -1.4661
11395TIP3   OH234137   3.047   6.949   2.395 -0.4867  0.3215 -0.2248
11395TIP3    H134138   3.060   7.041   2.418  3.6521  0.0070 -0.8825
11395TIP3    H234139   2.985   6.951   2.322  1.2207  2.8184 -1.6998
11396TIP3   OH234140   0.143  -0.004   1.323 -0.3960 -0.0367 -0.0877
11396TIP3    H134141   0.129   0.052   1.246  3.6336  0.6310 -0.4146
11396TIP3    H234142   0.164   0.057   1.393  1.5858 -0.9404  0.1432
11397TIP3   OH234143   7.237   4.616   3.904  0.1960 -0.2482  0.0998
11397TIP3    H134144   7.220   4.680   3.835 -0.0456  1.3649  1.6097
11397TIP3    H234145   7.193   4.652   3.981  2.3130 -0.8620  1.6603
11398TIP3   OH234146   0.819   6.760   2.457  0.4415  0.2577 -0.0192
11398TIP3    H134147   0.727   6.752   2.481  1.0036 -0.0756  2.0779
11398TIP3    H234148   0.840   6.676   2.416 -0.2281  0.4225 -0.7317
11399TIP3   OH234149   6.361   7.328   2.151 -0.6832  0.3952 -0.3451
11399TIP3    H134150   6.274   7.287   2.153 -1.2868  1.6720  0.9137
11399TIP3    H234151   6.420   7.260   2.183 -1.4291 -0.0587  0.0758
11400TIP3   OH234152   1.069   1.437   2.229  0.0073 -0.6559  0.2852
11400TIP3    H134153   1.153   1.443   2.182 -0.7406  1.4126 -0.8588
11400TIP3    H234154   1.083   1.487   2.309  0.6352 -2.4737  1.3564
11401TIP3   OH234155   6.078   1.496   1.519 -0.7536  0.3581 -0.5244
11401TIP3    H134156   6.144   1.554   1.479  0.1246  0.6637  1.3226
11401TIP3    H234157   6.101   1.409   1.488 -1.5391  0.8794 -2.6169
11402TIP3   OH234158   0.455   1.811   1.331 -0.3097 -0.8340 -0.0170
11402TIP3    H134159   0.372   1.817   1.379 -0.5024 -2.2316 -0.1682
11402TIP3    H234160   0.428   1.797   1.240  0.0471  1.9514 -0.6068
11403TIP3   OH234161   0.834   0.560   2.308  0.0030 -0.0983  0.0659
11403TIP3    H134162   0.770   0.620   2.347  0.5659 -0.2588  1.2434
11403TIP3    H234163   0.783   0.483   2.283 -0.4253  0.1568  0.1532
11404TIP3   OH234164   0.057   5.412   2.709  0.6059  0.0009  0.3821
11404TIP3    H134165  -0.034   5.438   2.696  1.3584  1.9665 -1.2431
11404TIP3    H234166   0.054   5.349   2.781 -1.7145  1.8807  1.9907
11405TIP3   OH234167   5.580   7.187   2.901 -0.2786  0.0235 -0.1454
11405TIP3    H134168   5.577   7.258   2.837  0.2285  1.3943  1.3227
11405TIP3    H234169   5.490   7.154   2.904 -0.9388  1.8403  0.5176
11406TIP3   OH234170   7.110   1.540   0.747 -0.3685  0.0377  0.3098
11406TIP3    H134171   7.092   1.542   0.841 -0.8078  0.0238  0.2300
11406TIP3    H234172   7.181   1.477   0.737  0.5829  1.0162  0.7743
11407TIP3   OH234173   6.073   5.990   1.097 -0.1493 -0.6412 -0.0364
11407TIP3    H134174   6.007   5.933   1.058 -0.1259 -1.1435  0.6468
11407TIP3    H234175   6.043   6.004   1.187  0.5667 -0.7263  0.2219
11408TIP3   OH234176   4.360   5.486   1.280 -0.5341 -0.4898 -0.3514
11408TIP3    H134177   4.407   5.567   1.297 -2.0238  0.4363 -0.5171
11408TIP3    H234178   4.375   5.467   1.187 -0.0622 -0.4818 -0.2743
11409TIP3   OH234179   3.334   0.351   2.359  0.4116 -0.0309  0.4732
11409TIP3    H134180   3.402   0.412   2.387  0.6861  0.2174 -0.7244
11409TIP3    H234181   3.266   0.407   2.320  0.4308 -0.4445 -0.1588
11410TIP3   OH234182   4.592   2.020   1.365  0.0271 -0.1502  0.2342
11410TIP3    H134183   4.651   2.096   1.366 -1.2927  0.8858  0.3918
11410TIP3    H234184   4.538   2.032   1.287 -0.2575 -0.8722  0.3181
11411TIP3   OH234185   1.593   1.542   1.803 -0.0445 -0.4945 -0.1012
11411TIP3    H134186   1.592   1.628   1.845  0.6718 -0.5388  0.0035
11411TIP3    H234187   1.501   1.514   1.804 -0.6163  1.2095 -2.0861
11412TIP3   OH234188   1.799   0.393   2.996  0.0284  1.0232  0.2778
11412TIP3    H134189   1.792   0.302   3.026 -1.2148  0.8405 -0.5488
11412TIP3    H234190   1.878   0.394   2.942  0.7095  0.7112  1.2477
11413TIP3   OH234191   6.500   6.538   1.239  0.0730 -0.1606  0.3206
11413TIP3    H134192   6.506   6.519   1.145 -1.7641 -0.5955  0.2688
11413TIP3    H234193   6.563   6.478   1.280  1.8305  0.9202 -0.7215
11414TIP3   OH234194   4.325   1.425   1.806  0.0415  0.2056 -0.0353
11414TIP3    H134195   4.354   1.346   1.761 -1.6726  0.9480 -2.5697
11414TIP3    H234196   4.291   1.394   1.890 -0.0408 -1.6823 -0.7560
11415TIP3   OH234197   3.289   0.799   1.954  0.4506  0.0491 -0.3521
11415TIP3    H134198   3.247   0.713   1.958  1.3812 -0.3563  2.2022
11415TIP3    H234199   3.260   0.844   2.034  1.4512  1.3935 -0.7227
11416TIP3   OH234200   0.269   6.726   1.292  0.0166  0.1540 -0.0746
11416TIP3    H134201   0.331   6.666   1.250 -0.0741  1.5611 -2.2556
11416TIP3    H234202   0.315   6.810   1.295 -0.9876  0.6990  0.2393
11417TIP3   OH234203   6.096   2.903   6.054 -0.6508 -0.4550 -0.1683
11417TIP3    H134204   6.172   2.847   6.065 -0.3142 -0.0468 -0.4083
11417TIP3    H234205   6.025   2.856   6.097 -0.5918 -1.5405 -1.2230
11418TIP3   OH234206   6.650   7.081   1.134 -0.1883 -0.1180  0.0999
11418TIP3    H134207   6.681   7.015   1.196 -3.0543 -1.3254  0.3513
11418TIP3    H234208   6.702   7.066   1.055  0.0007 -1.9744  0.5451
11419TIP3   OH234209   0.831   6.703   1.822 -0.0147  0.1439 -0.0643
11419TIP3    H134210   0.742   6.687   1.852 -0.1256 -0.1027 -0.5298
11419TIP3    H234211   0.847   6.637   1.754  0.9702 -0.6308  0.8980
11420TIP3   OH234212   0.584   6.191   1.141 -0.0997  0.3643  0.2322
11420TIP3    H134213   0.632   6.121   1.185 -0.6895 -0.9698 -1.1750
11420TIP3    H234214   0.507   6.206   1.197  0.0952 -0.0247  0.6047
11421TIP3   OH234215   1.858   6.912   0.596  0.4906  0.0566  0.1278
11421TIP3    H134216   1.775   6.912   0.547  0.6933  0.2139 -0.2153
11421TIP3    H234217   1.926   6.916   0.528  0.8171 -1.3284  0.3521
11422TIP3   OH234218   3.145   0.049   1.566 -0.4577 -0.1384 -0.1281
11422TIP3    H134219   3.165   0.099   1.487 -0.9958 -1.1920 -0.9574
11422TIP3    H234220   3.231   0.025   1.601 -0.1979  1.6840  0.4991
11423TIP3   OH234221   0.220   1.029   2.192 -0.1205  0.2770 -0.2147
11423TIP3    H134222   0.278   1.096   2.230 -0.8465  0.4674  0.5621
11423TIP3    H234223   0.145   1.078   2.158  1.5479  0.3905 -4.0481
11424TIP3   OH234224   4.527   0.813   1.503 -0.2574  0.7548  0.4256
11424TIP3    H134225   4.533   0.722   1.472 -1.3255  0.8958 -0.2366
11424TIP3    H234226   4.607   0.854   1.472  1.2971 -0.5127  2.6315
11425TIP3   OH234227   3.622   0.460   2.528 -0.7517  0.1489 -0.0264
11425TIP3    H134228   3.566   0.536   2.542 -0.1396  0.7436 -0.7469
11425TIP3    H234229   3.702   0.496   2.489 -0.3999 -0.8387 -0.2318
11426TIP3   OH234230   5.768   4.721   6.319 -0.0325 -0.2987  0.0184
11426TIP3    H134231   5.793   4.713   6.227  2.6441  0.2759  0.6695
11426TIP3    H234232   5.719   4.804   6.324 -0.7526 -0.6558 -0.9774
11427TIP3   OH234233   2.479   0.626   0.732 -0.2497 -0.2458 -0.1065
11427TIP3    H134234   2.413   0.688   0.761  0.3032 -0.8209  2.5545
11427TIP3    H234235   2.552   0.680   0.702  0.3391  0.4337  2.4582
11428TIP3   OH234236   7.885   2.128   0.521 -0.2459  0.3354 -0.1789
11428TIP3    H134237   7.869   2.040   0.487  3.1009 -0.0866 -0.8079
11428TIP3    H234238   7.852   2.187   0.452 -0.3516 -0.4442 -0.8005
11429TIP3   OH234239   0.858   7.019   3.272 -0.1574  0.2348 -0.3205
11429TIP3    H134240   0.930   6.965   3.303  0.5747  2.6938  2.4916
11429TIP3    H234241   0.791   7.011   3.340 -1.3784  0.2524 -1.5101
11430TIP3   OH234242   5.206   0.025   2.742  0.0625 -0.2287  0.3500
11430TIP3    H134243   5.196  -0.022   2.826  0.3637  1.6440  1.4551
11430TIP3    H234244   5.170   0.112   2.759  2.5162  1.0275 -0.6987
11431TIP3   OH234245   4.486   0.467   1.752  0.4515  0.1822  0.4789
11431TIP3    H134246   4.421   0.458   1.683 -0.2656 -0.1769  1.1983
11431TIP3    H234247   4.500   0.561   1.760  0.1877  0.2480  0.1766
11432TIP3   OH234248   5.184   5.633   2.142  0.6760 -0.5883  0.3990
11432TIP3    H134249   5.172   5.571   2.069  2.0455 -0.8659  0.3922
11432TIP3    H234250   5.155   5.717   2.107  1.6431 -0.6534 -0.5857
11433TIP3   OH234251   7.204   5.547   1.783  0.0883 -0.0565 -0.7394
11433TIP3    H134252   7.118   5.576   1.753  0.1356  1.1009  0.2236
11433TIP3    H234253   7.267   5.599   1.733  0.2742 -1.3806 -1.9436
11434TIP3   OH234254   4.686   2.801   5.038 -0.0665 -0.2322 -0.4107
11434TIP3    H134255   4.767   2.804   5.088 -0.6818 -0.7757  0.6195
11434TIP3    H234256   4.702   2.735   4.970  0.1282 -0.7924  0.1764
11435TIP3   OH234257   4.034   4.602   2.234 -0.2314 -0.6734 -0.8385
11435TIP3    H134258   4.079   4.551   2.167 -1.5285  0.1625 -2.4031
11435TIP3    H234259   3.993   4.537   2.291 -1.1130 -1.4250 -2.2877
11436TIP3   OH234260   1.162   7.342   2.680  0.7790 -0.5328 -0.3053
11436TIP3    H134261   1.119   7.379   2.758  2.5287 -0.4716  0.6526
11436TIP3    H234262   1.090   7.327   2.619 -0.6558 -0.6474  1.3466
11437TIP3   OH234263   0.880   6.871   1.335  0.4191  0.1259  0.2774
11437TIP3    H134264   0.898   6.828   1.251 -1.6414 -1.0536  0.4256
11437TIP3    H234265   0.920   6.814   1.401 -1.0985 -0.8335  0.3686
11438TIP3   OH234266   7.397   7.189   2.109 -0.3720 -0.0065 -0.1672
11438TIP3    H134267   7.350   7.229   2.037 -0.0353  2.4834  0.9156
11438TIP3    H234268   7.490   7.201   2.087 -0.2581 -1.6438 -0.5921
11439TIP3   OH234269   4.850   4.553   2.555  0.9909 -0.1659 -0.4191
11439TIP3    H134270   4.863   4.479   2.614 -0.1682  0.7675  1.0393
11439TIP3    H234271   4.758   4.576   2.563  1.0470  0.6427 -1.8112
11440TIP3   OH234272   0.046   7.122   1.204 -0.1248  0.1976 -0.1651
11440TIP3    H134273   0.052   7.216   1.191 -2.0790  0.1669 -1.4146
11440TIP3    H234274   0.128   7.088   1.167  1.1883  1.4773  1.4834
11441TIP3   OH234275   1.915   6.781   0.320  0.1015 -0.2880  0.3345
11441TIP3    H134276   1.947   6.720   0.387  0.4383  0.6416  1.0189
11441TIP3    H234277   1.976   6.770   0.247  0.5148 -0.3255  0.6866
11442TIP3   OH234278   6.103   6.814   1.009 -0.1873 -0.6999  0.7203
11442TIP3    H134279   6.029   6.786   1.064 -1.5272  0.0300 -0.6767
11442TIP3    H234280   6.177   6.817   1.069 -1.3484 -1.1622  2.2185
11443TIP3   OH234281   3.541   0.264   5.644  0.2529  0.6991  0.1599
11443TIP3    H134282   3.515   0.255   5.735  1.0866 -0.5585  0.2862
11443TIP3    H234283   3.462   0.295   5.600 -0.3637  0.6066  1.1801
11444TIP3   OH234284   7.368   5.777   1.972 -0.7934 -0.5271 -0.3205
11444TIP3    H134285   7.360   5.871   1.984 -1.4441 -0.4248 -1.4487
11444TIP3    H234286   7.363   5.764   1.877 -0.0944 -1.6409 -0.2211
11445TIP3   OH234287   5.960   6.918   2.654 -0.3281  0.4738  0.1867
11445TIP3    H134288   5.949   6.828   2.685  0.0864  0.7455  1.1632
11445TIP3    H234289   5.895   6.969   2.704 -0.7002  0.6825 -0.5078
11446TIP3   OH234290   1.195   1.645   0.543 -0.0891 -0.3576  0.4716
11446TIP3    H134291   1.137   1.645   0.467 -0.4511  0.1130  0.7432
11446TIP3    H234292   1.254   1.572   0.528  1.3443  1.1369 -1.4080
11447TIP3   OH234293   2.607   2.598   1.509 -0.4118 -0.6188  0.6071
11447TIP3    H134294   2.538   2.643   1.460  1.0856  0.1997 -0.7952
11447TIP3    H234295   2.633   2.661   1.577 -0.3864 -0.5382  0.5233
11448TIP3   OH234296   5.924   6.606   0.630 -0.5335  0.2113 -0.2286
11448TIP3    H134297   5.906   6.614   0.724  2.2759  0.0036  0.3806
11448TIP3    H234298   5.935   6.512   0.616 -0.4868  0.2813 -0.6603
11449TIP3   OH234299   6.419   5.266   4.263 -0.1662  0.5085  0.4512
11449TIP3    H134300   6.495   5.263   4.322 -1.0391  1.5314  1.6699
11449TIP3    H234301   6.361   5.197   4.296  0.2595 -0.3233 -0.5266
11450TIP3   OH234302   6.480   5.709   2.196 -0.4102  0.5627  0.1591
11450TIP3    H134303   6.535   5.781   2.225  1.0196  0.0276 -1.1429
11450TIP3    H234304   6.448   5.737   2.110 -0.1344 -0.1963 -0.1933
11451TIP3   OH234305   1.060   2.306   1.031  0.6629  0.1938  0.0279
11451TIP3    H134306   1.111   2.335   1.106  0.9326  2.4979 -1.0124
11451TIP3    H234307   0.973   2.344   1.043 -0.6280 -2.9175  1.2903
11452TIP3   OH234308   6.808   6.685   0.644  0.1618 -0.1249 -0.0324
11452TIP3    H134309   6.777   6.644   0.563  0.7151 -1.8055  0.5902
11452TIP3    H234310   6.769   6.773   0.643 -2.4557 -1.2498 -0.5291
11453TIP3   OH234311   5.555   0.051   1.508  0.5823  0.6823 -0.1557
11453TIP3    H134312   5.592  -0.036   1.497 -0.2284  0.4779 -1.2707
11453TIP3    H234313   5.628   0.104   1.541  0.6942 -0.7400  1.9377
11454TIP3   OH234314   1.809   2.652   1.010  0.2826 -0.0767 -0.3907
11454TIP3    H134315   1.751   2.578   0.991 -0.1071  0.1973 -0.2524
11454TIP3    H234316   1.896   2.612   1.019 -0.3106 -0.8670  2.2318
11455TIP3   OH234317   0.501   1.034   0.430  0.5467 -0.2666  0.0239
11455TIP3    H134318   0.488   1.081   0.513  2.7093  0.0499  0.2209
11455TIP3    H234319   0.497   1.103   0.363  0.9693 -0.1918  0.0717
11456TIP3   OH234320   5.280   7.197   3.192 -0.6418 -0.0277 -0.3030
11456TIP3    H134321   5.360   7.150   3.214  0.4233  1.3451 -1.1653
11456TIP3    H234322   5.252   7.236   3.275  0.5790  0.9597 -0.3427
11457TIP3   OH234323   6.488   7.045   1.960  0.0288  0.7342  0.4824
11457TIP3    H134324   6.501   7.056   2.054 -1.1836  3.3208  0.4229
11457TIP3    H234325   6.502   7.133   1.924 -0.6213  0.0210 -1.5955
11458TIP3   OH234326   0.346   4.926   1.822 -0.0372  0.3040 -0.7052
11458TIP3    H134327   0.319   4.837   1.801  0.4918  0.0629 -0.3835
11458TIP3    H234328   0.357   4.969   1.737 -0.1354  0.0133 -0.8640
11459TIP3   OH234329   3.023   0.814   0.595 -0.0716  0.4566  0.3851
11459TIP3    H134330   2.956   0.798   0.529  0.8186 -1.2516 -0.1100
11459TIP3    H234331   3.082   0.877   0.554 -0.3055  0.4971  0.1056
11460TIP3   OH234332   1.244   4.709   2.347  0.0631 -0.7050 -0.2200
11460TIP3    H134333   1.321   4.691   2.292 -0.3938 -1.7924 -0.5150
11460TIP3    H234334   1.171   4.706   2.286 -0.1346  1.2919 -0.1153
11461TIP3   OH234335   0.315   7.382   2.583 -0.1914 -0.1920 -0.0247
11461TIP3    H134336   0.248   7.372   2.516  0.4576 -1.1681 -0.5514
11461TIP3    H234337   0.276   7.439   2.648 -1.6703 -1.0450 -0.1425
11462TIP3   OH234338   5.222   5.266   5.905  0.6307  0.7754 -0.2045
11462TIP3    H134339   5.129   5.261   5.882  0.1481  1.3368  1.5306
11462TIP3    H234340   5.222   5.286   5.999  2.4999 -0.6879  0.1405
11463TIP3   OH234341   1.621   6.691   1.079 -0.2515  0.4195 -0.3243
11463TIP3    H134342   1.668   6.623   1.128 -0.3154  1.1993  0.8302
11463TIP3    H234343   1.643   6.674   0.987  1.3342  0.0534  0.1134
11464TIP3   OH234344   4.961   0.759   1.325 -0.0214  0.4670  0.4915
11464TIP3    H134345   4.952   0.692   1.393 -1.8842  1.0607  0.8398
11464TIP3    H234346   4.959   0.710   1.243  3.2739 -0.3725  0.8220
11465TIP3   OH234347   5.250   6.341   1.383  0.5448 -0.3643 -0.4992
11465TIP3    H134348   5.230   6.410   1.447 -0.3999  0.1433 -1.3288
11465TIP3    H234349   5.165   6.303   1.361  0.9470 -1.0226 -0.9147
11466TIP3   OH234350   5.336   1.178   5.119 -0.3091  0.4430 -0.2282
11466TIP3    H134351   5.424   1.165   5.085 -1.2320 -1.2845 -2.1245
11466TIP3    H234352   5.332   1.271   5.142  2.1493  0.4243  0.4092
11467TIP3   OH234353   4.866   4.286   4.757  0.1495 -0.9275  0.0104
11467TIP3    H134354   4.920   4.210   4.734  1.8287  0.3114 -0.2889
11467TIP3    H234355   4.841   4.324   4.673  0.8820 -0.1073  0.1484
11468TIP3   OH234356   6.747   6.784   1.086 -0.4579  0.3265 -0.1699
11468TIP3    H134357   6.789   6.722   1.027 -1.5669  0.5057 -1.1615
11468TIP3    H234358   6.768   6.752   1.174  0.1688 -0.6316 -0.6682
11469TIP3   OH234359   0.015   6.480   2.513 -0.2178  0.2116  0.6813
11469TIP3    H134360   0.056   6.511   2.432 -0.1636 -0.5471  0.4137
11469TIP3    H234361  -0.001   6.387   2.498 -0.8517  0.2179  1.2819
11470TIP3   OH234362   2.445   6.451   0.667 -0.0836  0.6843  0.6608
11470TIP3    H134363   2.362   6.405   0.681 -0.6558  0.5154 -2.7801
11470TIP3    H234364   2.419   6.541   0.647  0.4121  0.3644 -1.6087
11471TIP3   OH234365   0.536   4.017   0.696  0.2116 -0.7752  0.2265
11471TIP3    H134366   0.573   4.016   0.784 -0.7683  1.2662  0.6950
11471TIP3    H234367   0.493   4.102   0.689 -2.0952 -2.0017 -1.2260
11472TIP3   OH234368   5.420   3.029   2.499  0.1532 -0.2808  0.0842
11472TIP3    H134369   5.400   3.036   2.406 -0.9889  0.4547  0.3788
11472TIP3    H234370   5.513   3.053   2.506  0.6949 -1.9094 -1.0531
11473TIP3   OH234371   6.738   5.038   1.966  0.4819 -0.3241  0.0118
11473TIP3    H134372   6.668   4.988   2.005  0.7899 -0.3966  0.4758
11473TIP3    H234373   6.801   4.973   1.934  1.6726 -0.2190  2.0795
11474TIP3   OH234374   7.655   0.317   3.168  0.1234 -0.4938  0.0892
11474TIP3    H134375   7.642   0.289   3.078 -0.4771  0.6134 -0.1828
11474TIP3    H234376   7.647   0.413   3.164 -0.3782 -0.4796  1.3909
11475TIP3   OH234377   1.784   6.485   1.092  0.3776 -0.5468 -0.0266
11475TIP3    H134378   1.873   6.514   1.113  0.3579 -0.0666 -0.5956
11475TIP3    H234379   1.795   6.398   1.055  0.6355 -0.4194 -0.2540
11476TIP3   OH234380   0.391   7.051   1.403  0.3201 -0.0379  0.0389
11476TIP3    H134381   0.464   6.989   1.411  0.3471 -0.2518 -1.7018
11476TIP3    H234382   0.374   7.056   1.309  0.1420  2.4020  0.1750
11477TIP3   OH234383   7.072   5.924   2.158  0.7107 -0.6266 -0.2113
11477TIP3    H134384   7.001   5.867   2.128  0.0397  0.5987 -0.9851
11477TIP3    H234385   7.036   5.967   2.235  0.3602  0.4978 -0.9950
11478TIP3   OH234386   6.008   7.317   2.478 -0.3026  0.0513  0.0000
11478TIP3    H134387   6.054   7.304   2.561 -1.0774 -0.8549  0.2939
11478TIP3    H234388   5.990   7.229   2.446  1.0651  0.3832 -1.7548
11479TIP3   OH234389   6.280   6.630   1.370 -0.2022 -0.2695 -0.1577
11479TIP3    H134390   6.359   6.598   1.325  1.1493  1.2865  1.0233
11479TIP3    H234391   6.314   6.675   1.447 -2.1825  1.8992 -0.5271
11480TIP3   OH234392   5.039   1.832   0.670 -0.0553  0.5179 -0.1676
11480TIP3    H134393   5.102   1.898   0.642  0.4988  0.1867  0.2896
11480TIP3    H234394   5.001   1.867   0.751  0.7417 -0.0300  0.4547
11481TIP3   OH234395   6.852   7.176   2.676 -0.1782 -0.2666 -0.1948
11481TIP3    H134396   6.788   7.247   2.675 -1.9112 -1.7820 -1.7452
11481TIP3    H234397   6.937   7.220   2.675 -1.2227  1.7809 -1.2642
11482TIP3   OH234398   0.051   6.560   3.038  0.5092  0.4596  0.1205
11482TIP3    H134399   0.031   6.642   3.082 -0.4231  0.8222 -0.9557
11482TIP3    H234400   0.017   6.571   2.950  3.3003  0.1526 -1.0619
11483TIP3   OH234401   5.242   0.579   0.532 -0.4643 -0.3651  0.0422
11483TIP3    H134402   5.269   0.621   0.450  0.7863 -0.1358  0.5565
11483TIP3    H234403   5.324   0.550   0.571 -1.1701 -1.6162  0.6038
11484TIP3   OH234404   3.092   0.170   2.078 -0.2519  0.0934  0.3561
11484TIP3    H134405   3.008   0.213   2.062 -0.5209 -0.6788 -0.2838
11484TIP3    H234406   3.150   0.207   2.012  0.1042  1.1256  1.2136
11485TIP3   OH234407   1.850   7.387   1.764 -0.3835  0.3794  0.1214
11485TIP3    H134408   1.852   7.404   1.858 -0.7301 -0.6782  0.3218
11485TIP3    H234409   1.925   7.330   1.748 -1.5773 -1.2487  0.1319
11486TIP3   OH234410   6.100   6.399   1.233  0.2031 -0.1578 -0.4400
11486TIP3    H134411   6.055   6.371   1.313  0.3410  0.9585  0.0329
11486TIP3    H234412   6.177   6.447   1.264 -0.8112  2.0547 -1.1899
11487TIP3   OH234413   1.387   7.139   1.598  1.0369  0.3925  0.5390
11487TIP3    H134414   1.386   7.235   1.606  0.8428  0.3935  0.5125
11487TIP3    H234415   1.335   7.108   1.672  1.9040  0.2622  1.0882
11488TIP3   OH234416   2.052   0.314   1.120 -0.5843 -0.3314  0.1412
11488TIP3    H134417   2.040   0.319   1.215 -0.7682  1.1132  0.0515
11488TIP3    H234418   2.079   0.402   1.094 -0.9378 -0.5981 -1.2047
11489TIP3   OH234419   0.919   6.763   4.110 -0.0173  0.1486  0.0314
11489TIP3    H134420   0.977   6.758   4.035 -0.0289  3.7765 -0.3195
11489TIP3    H234421   0.834   6.788   4.074 -0.1692  1.3330  1.1303
11490TIP3   OH234422   2.267   5.493   2.178 -0.8967 -0.1314 -0.2252
11490TIP3    H134423   2.246   5.417   2.232  2.0437  0.2154  1.5191
11490TIP3    H234424   2.322   5.458   2.108  1.6814  0.5286  1.4003
11491TIP3   OH234425   6.876   1.969   4.614  0.2325 -0.6925  0.6788
11491TIP3    H134426   6.811   1.972   4.544 -0.9238 -0.7443  1.7322
11491TIP3    H234427   6.915   2.056   4.615  0.1976 -0.6666  0.0322
11492TIP3   OH234428   4.704   1.109   0.867 -0.0836  0.0956 -0.5763
11492TIP3    H134429   4.679   1.173   0.933 -0.1221  0.7852 -1.2517
11492TIP3    H234430   4.797   1.123   0.853 -0.3919  1.0652 -1.8304
11493TIP3   OH234431   0.373   2.694   0.403  0.6376  0.5797  0.3364
11493TIP3    H134432   0.374   2.772   0.458  0.6312 -0.2918  1.5762
11493TIP3    H234433   0.457   2.696   0.357  0.8539  1.0347  0.7489
11494TIP3   OH234434   0.494   7.020   0.912 -0.8580  0.1826  1.0554
11494TIP3    H134435   0.561   7.081   0.943 -1.6458  0.7569  1.6397
11494TIP3    H234436   0.481   7.043   0.820 -0.3087  0.1152  0.9576
11495TIP3   OH234437   4.058   2.371   6.150  0.2780 -0.3966 -0.1398
11495TIP3    H134438   4.070   2.296   6.092 -0.5447 -0.1096 -0.6833
11495TIP3    H234439   4.069   2.447   6.093  1.0374 -0.1028  0.3950
11496TIP3   OH234440   0.946   5.867  -0.006 -0.2597  0.5690  0.5862
11496TIP3    H134441   0.896   5.900   0.068 -0.8378 -1.0871  0.9520
11496TIP3    H234442   0.998   5.795   0.031 -0.1775  0.0598 -0.5068
11497TIP3   OH234443   1.820   1.183   0.741 -0.6452  0.4810  0.3735
11497TIP3    H134444   1.860   1.181   0.654 -0.4064  1.5268  0.4527
11497TIP3    H234445   1.826   1.093   0.772 -0.6015  0.1243 -0.6320
11498TIP3   OH234446   6.766   4.726   1.193 -0.3886  0.3390  0.0239
11498TIP3    H134447   6.674   4.753   1.191 -0.9805 -1.6333 -0.5843
11498TIP3    H234448   6.790   4.720   1.100 -0.2162 -0.9685  0.1461
11499TIP3   OH234449   0.930   6.372   2.058 -0.0258 -0.0611  0.0445
11499TIP3    H134450   0.847   6.410   2.088  0.3972  1.4083 -0.6176
11499TIP3    H234451   0.995   6.407   2.117  0.0707 -1.6266  0.8828
11500TIP3   OH234452   0.913   1.958   0.699 -0.4090  0.8083 -0.4518
11500TIP3    H134453   0.998   1.990   0.667  1.8602 -2.9682  1.3738
11500TIP3    H234454   0.900   2.002   0.783  0.7315 -0.0489  0.1840
11501TIP3   OH234455   7.247   5.717   0.722 -0.3781 -0.5056 -0.1204
11501TIP3    H134456   7.321   5.739   0.779 -0.6471  2.0066 -0.6752
11501TIP3    H234457   7.286   5.667   0.650  0.5999 -0.2075  0.1945
11502TIP3   OH234458   4.298   0.575   2.189 -0.4227  0.0560  0.1541
11502TIP3    H134459   4.322   0.503   2.132  0.2451  1.0906 -0.8996
11502TIP3    H234460   4.215   0.607   2.154  0.1714  0.9272 -0.4624
11503TIP3   OH234461   0.003   5.932   0.405  0.2084 -0.1120  0.2203
11503TIP3    H134462   0.090   5.972   0.402 -0.2983  0.9997  0.1998
11503TIP3    H234463  -0.017   5.912   0.314  0.3454 -0.1604  0.2004
11504TIP3   OH234464   1.364   1.410   0.460 -0.2913 -0.4453  0.5692
11504TIP3    H134465   1.346   1.395   0.367 -1.7978 -2.6061  1.1574
11504TIP3    H234466   1.458   1.422   0.464  0.0910 -2.5552 -0.9968
11505TIP3   OH234467   6.423   5.204   6.034  0.4709  0.3247  0.1186
11505TIP3    H134468   6.482   5.239   6.101  0.3681 -0.0750  0.4266
11505TIP3    H234469   6.474   5.207   5.953  0.4355  1.2387  0.1305
11506TIP3   OH234470   1.864   3.018   6.357  0.2047 -0.1444 -0.0563
11506TIP3    H134471   1.898   3.068   6.431  0.4909 -0.6635  0.1579
11506TIP3    H234472   1.781   2.981   6.388  0.0096  0.1625 -0.2047
11507TIP3   OH234473   3.921   6.960   0.965  0.5606 -0.5747  0.0598
11507TIP3    H134474   3.902   6.880   0.916  0.1278 -0.1732 -0.4175
11507TIP3    H234475   3.836   6.998   0.985  0.8102  0.6030 -1.0759
11508TIP3   OH234476   2.503   0.668   0.458 -0.2644  0.2655 -0.1987
11508TIP3    H134477   2.417   0.650   0.497 -0.3762  0.0894 -0.5204
11508TIP3    H234478   2.563   0.611   0.506 -0.4421 -0.1392 -0.4444
11509TIP3   OH234479   3.822   0.473   2.119  0.7264 -0.2351  0.2436
11509TIP3    H134480   3.860   0.426   2.045  2.2921  0.0305  0.8557
11509TIP3    H234481   3.885   0.460   2.191  0.4095  1.4665  0.8606
11510TIP3   OH234482   2.455   0.626   0.184 -0.3686 -0.4260 -0.0966
11510TIP3    H134483   2.378   0.682   0.199  0.4041  0.6680 -0.1369
11510TIP3    H234484   2.507   0.636   0.263  1.6121  1.9302 -1.6065
11511TIP3   OH234485   3.710   0.613   0.772  0.0490  0.2745 -0.1603
11511TIP3    H134486   3.754   0.578   0.849  1.2526 -0.0576 -0.9886
11511TIP3    H234487   3.643   0.548   0.752  2.3317 -1.6910 -1.7487
11512TIP3   OH234488   2.023   6.801   0.988  0.0608 -0.2336 -0.1047
11512TIP3    H134489   1.935   6.799   0.948  0.2370  1.8302 -0.6322
11512TIP3    H234490   2.028   6.719   1.038 -1.5302 -1.1677 -1.4246
11513TIP3   OH234491   1.470   7.404   0.053  0.2333  0.2581  0.2763
11513TIP3    H134492   1.437   7.315   0.042 -1.9210  1.2117 -1.3017
11513TIP3    H234493   1.562   7.392   0.079  0.0434 -2.3973 -0.1161
11514TIP3   OH234494   0.720   1.366   2.457  0.2925  0.0016  0.0152
11514TIP3    H134495   0.704   1.367   2.363 -1.2335 -1.2234  0.2248
11514TIP3    H234496   0.697   1.455   2.487 -1.3231 -0.2316 -0.4732
11515TIP3   OH234497   4.085   0.922   1.248 -0.3317 -0.0453  0.0583
11515TIP3    H134498   4.138   0.909   1.326 -1.0722  0.2024  0.6043
11515TIP3    H234499   4.135   0.984   1.194 -0.6894  1.2389  1.1757
11516TIP3   OH234500   5.023   0.697   2.358 -0.3728  0.1132  0.2655
11516TIP3    H134501   5.057   0.645   2.284  0.6118  0.1296  0.6977
11516TIP3    H234502   4.959   0.640   2.399 -1.5723  0.4299 -1.1238
11517TIP3   OH234503   6.291   4.951   5.680  0.2868 -0.0732 -0.4664
11517TIP3    H134504   6.364   4.951   5.619  1.1040 -0.9663  0.4812
11517TIP3    H234505   6.268   5.043   5.690  0.3257  0.0906 -1.9040
11518TIP3   OH234506   2.040   2.481   1.112  0.1876 -0.0352 -0.4067
11518TIP3    H134507   2.125   2.450   1.083  0.7958  0.5340  0.7419
11518TIP3    H234508   2.059   2.552   1.173 -1.0079 -1.6292  1.9306
11519TIP3   OH234509   1.234   5.743   6.410  0.1666 -0.6519 -0.1379
11519TIP3    H134510   1.232   5.763   6.316  1.3628 -1.4222 -0.3415
11519TIP3    H234511   1.279   5.817   6.449 -2.6791  0.9711  0.2065
11520TIP3   OH234512   5.709   3.509   4.727 -0.4853 -0.4144 -0.9897
11520TIP3    H134513   5.764   3.568   4.676  0.3302 -0.5937 -0.3249
11520TIP3    H234514   5.682   3.561   4.803 -0.8219 -0.4925 -1.0533
11521TIP3   OH234515   6.866   5.307   6.073  0.2164  0.0241  0.2245
11521TIP3    H134516   6.951   5.350   6.079 -0.0182  0.4860  0.2644
11521TIP3    H234517   6.887   5.214   6.063  0.7393  0.2061 -0.4730
11522TIP3   OH234518   4.951   0.192   2.284  0.3695 -0.1760  0.1470
11522TIP3    H134519   4.937   0.104   2.320 -0.5588  0.2656  0.8958
11522TIP3    H234520   5.037   0.188   2.242  0.9516 -1.0324  1.4018
11523TIP3   OH234521   2.221   5.880   1.699 -0.8342  0.1607 -0.0733
11523TIP3    H134522   2.146   5.895   1.756 -0.2363 -0.7144  0.9504
11523TIP3    H234523   2.205   5.794   1.660 -0.3627 -0.0425  0.1706
11524TIP3   OH234524   1.098   4.973   0.592  0.0928 -0.3291  0.4812
11524TIP3    H134525   1.165   4.923   0.638 -0.5020 -0.0889  1.6142
11524TIP3    H234526   1.027   4.983   0.655 -1.4541 -1.4622 -1.0167
11525TIP3   OH234527   1.121   6.823   1.459  0.8023  0.0093 -0.0550
11525TIP3    H134528   1.195   6.782   1.504  1.0468  0.8981  0.3658
11525TIP3    H234529   1.099   6.899   1.514 -1.2089 -0.9221  0.4896
11526TIP3   OH234530   0.511   6.037   2.387  0.0499 -0.4462  0.1773
11526TIP3    H134531   0.524   6.067   2.296 -1.4236  0.4353  0.2492
11526TIP3    H234532   0.563   6.098   2.439 -0.9203  0.4420  0.1104
11527TIP3   OH234533   3.629   0.225   2.691 -0.0181  0.0408  0.2004
11527TIP3    H134534   3.626   0.275   2.609  3.0678 -1.8033 -1.1470
11527TIP3    H234535   3.677   0.281   2.752  3.2909 -1.0559 -1.2558
11528TIP3   OH234536   2.100   6.142   0.873 -0.1667 -0.0165 -0.3784
11528TIP3    H134537   2.065   6.053   0.867 -1.3262  0.3680  0.5173
11528TIP3    H234538   2.153   6.142   0.953 -2.2335  0.7768  1.0301
11529TIP3   OH234539   3.625   6.323   2.069  0.6321 -0.3071 -0.3143
11529TIP3    H134540   3.649   6.398   2.014 -0.0407  0.1439 -0.0057
11529TIP3    H234541   3.603   6.254   2.006 -0.3344  0.2698 -0.6246
11530TIP3   OH234542   4.780   4.531   5.936  0.0693  0.2395  0.1280
11530TIP3    H134543   4.831   4.530   5.855  0.5594  1.4502  0.4159
11530TIP3    H234544   4.823   4.595   5.992 -0.8125  0.0971  1.0055
11531TIP3   OH234545   2.845   1.640   4.476  0.4405  0.1940 -0.1250
11531TIP3    H134546   2.939   1.661   4.475  0.6956 -0.8906  0.2915
11531TIP3    H234547   2.820   1.643   4.383  0.4997  2.1212 -0.0961
11532TIP3   OH234548   4.487   2.752   1.369  0.1920  0.1058  0.2100
11532TIP3    H134549   4.486   2.690   1.442 -0.0939 -1.4914 -1.1189
11532TIP3    H234550   4.396   2.756   1.339  0.7695 -1.4763 -1.8764
11533TIP3   OH234551   3.993   2.785   1.508  0.1289  0.0481  0.2501
11533TIP3    H134552   4.023   2.861   1.558 -0.8380  0.5364  0.1028
11533TIP3    H234553   4.043   2.789   1.427  2.1778 -1.1206  1.4427
11534TIP3   OH234554   1.453   7.057   2.369 -0.0720  0.0520 -0.3271
11534TIP3    H134555   1.370   7.065   2.417  0.5846  0.0563  0.8457
11534TIP3    H234556   1.510   7.012   2.431  0.7404 -0.1083 -1.2043
11535TIP3   OH234557   4.649   0.659   2.245  0.6622  0.0980  0.0957
11535TIP3    H134558   4.636   0.587   2.183 -0.9628 -0.7157  1.3533
11535TIP3    H234559   4.722   0.630   2.300  0.0679 -0.5511  0.5438
11536TIP3   OH234560   1.370   6.020   1.357 -0.1642 -0.2298 -0.2099
11536TIP3    H134561   1.302   6.060   1.303 -0.2671 -2.0363 -1.4741
11536TIP3    H234562   1.358   5.926   1.345  3.1129 -0.5790 -1.1506
11537TIP3   OH234563   1.227   7.167   3.090 -0.0631 -0.2306  0.5307
11537TIP3    H134564   1.136   7.183   3.066  0.5244  0.6452 -1.1733
11537TIP3    H234565   1.270   7.143   3.008  0.9142 -2.2192  1.5735
11538TIP3   OH234566   6.507   3.786   5.802 -0.0158 -0.0738 -0.1115
11538TIP3    H134567   6.502   3.693   5.826  0.3135 -0.1932 -0.4980
11538TIP3    H234568   6.598   3.810   5.818 -0.2415  0.3420  0.5570
11539TIP3   OH234569   4.996   3.538   6.361  0.2318  0.6302  0.3925
11539TIP3    H134570   5.088   3.562   6.357 -0.3447  2.6631 -1.4145
11539TIP3    H234571   4.995   3.443   6.355  2.3729  0.2926  3.9168
11540TIP3   OH234572   4.411   1.167   1.700  1.0211 -0.2311  0.0259
11540TIP3    H134573   4.467   1.142   1.627  1.6544 -0.0511  0.4432
11540TIP3    H234574   4.443   1.114   1.773 -0.0814 -0.9398  0.0019
11541TIP3   OH234575   7.320   4.014   5.934 -0.7152  0.1421  0.3487
11541TIP3    H134576   7.376   3.940   5.954  0.2466  1.3074  2.1231
11541TIP3    H234577   7.231   3.978   5.936 -0.2241 -1.0838  0.5329
11542TIP3   OH234578   4.978   0.576   0.548 -0.5366 -0.0819 -0.0192
11542TIP3    H134579   4.954   0.502   0.492 -0.6503  0.6329 -0.9224
11542TIP3    H234580   5.072   0.565   0.563 -0.3379  0.1912 -1.0483
11543TIP3   OH234581   0.908   6.572   1.374  0.1154  0.0837 -0.3572
11543TIP3    H134582   0.861   6.496   1.340  0.5457  0.8516 -2.8077
11543TIP3    H234583   0.981   6.584   1.313  1.3551  1.1232  1.2784
11544TIP3   OH234584   2.857   0.779   0.388  0.7593 -0.4148  0.2711
11544TIP3    H134585   2.799   0.838   0.341 -0.3727 -1.1490  0.7326
11544TIP3    H234586   2.901   0.729   0.319 -0.3733 -1.0061 -0.0251
11545TIP3   OH234587   3.553   0.465   1.269 -0.2533  0.6246 -0.3608
11545TIP3    H134588   3.507   0.457   1.185 -0.5764  0.8289 -0.2054
11545TIP3    H234589   3.596   0.550   1.264  1.3717 -0.2175 -1.1229
11546TIP3   OH234590   1.012   0.709   1.518 -0.0209  0.1446  0.1235
11546TIP3    H134591   0.975   0.753   1.594 -0.5154  0.9344 -0.5612
11546TIP3    H234592   1.107   0.710   1.534 -0.2015 -0.6845  1.2404
11547TIP3   OH234593   0.305   2.613   5.796 -0.3650 -0.4264  0.0228
11547TIP3    H134594   0.381   2.659   5.759  1.5269 -2.1449  1.6537
11547TIP3    H234595   0.248   2.683   5.829 -0.0439  0.9341 -2.1850
11548TIP3   OH234596   3.061   7.344   0.970  0.2702 -0.0885  0.3723
11548TIP3    H134597   3.132   7.355   0.906 -0.2902 -2.9450 -0.8024
11548TIP3    H234598   3.104   7.350   1.055  1.6408 -0.0114 -0.3150
11549TIP3   OH234599   2.087   0.924   0.803 -0.2550  0.6363  0.6912
11549TIP3    H134600   2.165   0.890   0.847 -0.0700  1.3111  0.8809
11549TIP3    H234601   2.086   1.017   0.823 -0.7312  0.7604  0.1101
11550TIP3   OH234602   7.697   5.405   6.154 -0.0372  0.8551  0.4508
11550TIP3    H134603   7.686   5.318   6.194  1.6730  0.7094  0.6226
11550TIP3    H234604   7.788   5.428   6.172 -0.3559  2.4869 -0.0046
11551TIP3   OH234605   0.889   7.136   2.798 -0.4671 -0.3481 -0.0913
11551TIP3    H134606   0.886   7.087   2.716  0.8043 -0.4884 -0.0630
11551TIP3    H234607   0.952   7.206   2.782 -1.2940  0.4903  0.3003
11552TIP3   OH234608   0.427   6.579   1.688  0.3313 -0.1022  0.3014
11552TIP3    H134609   0.470   6.528   1.757  0.9040 -1.4793 -1.0482
11552TIP3    H234610   0.498   6.603   1.628 -0.1685  1.0455  0.1522
11553TIP3   OH234611   7.547   4.223   6.377 -0.1547  0.0315 -0.1245
11553TIP3    H134612   7.577   4.137   6.351  0.8526  0.0914  0.8096
11553TIP3    H234613   7.532   4.270   6.295 -0.8752 -1.0802 -0.6325
11554TIP3   OH234614   4.106   6.790   4.430  0.6955 -0.6639 -0.3139
11554TIP3    H134615   4.058   6.761   4.507 -0.8329  0.1188 -0.9548
11554TIP3    H234616   4.197   6.762   4.446  0.0407 -2.1453  0.9149
11555TIP3   OH234617   1.701   2.164   1.563  0.2508 -0.1709 -0.3024
11555TIP3    H134618   1.671   2.232   1.502 -1.4181 -0.2258  0.3987
11555TIP3    H234619   1.664   2.083   1.529 -0.7267 -0.1947  0.7649
11556TIP3   OH234620   1.805   2.576   0.459  0.1485  0.0831 -0.4080
11556TIP3    H134621   1.832   2.522   0.385 -0.4599 -0.6481 -0.1044
11556TIP3    H234622   1.729   2.530   0.496  2.3513 -1.2823  2.6241
11557TIP3   OH234623   5.095   1.458   3.412  0.2525  0.3471  0.1333
11557TIP3    H134624   5.130   1.395   3.475  1.0402  0.7277  0.0887
11557TIP3    H234625   5.074   1.535   3.464 -2.1563 -0.4684  0.4344
11558TIP3   OH234626   2.748   0.694   2.246 -0.1770  0.3189 -0.2218
11558TIP3    H134627   2.753   0.600   2.264  0.5931  0.4869  0.5014
11558TIP3    H234628   2.713   0.700   2.158 -0.8358 -0.6368 -0.0353
11559TIP3   OH234629   5.897   7.042   3.756 -0.5156 -0.3031 -0.5504
11559TIP3    H134630   5.873   7.133   3.740 -0.5652 -0.3591 -0.7966
11559TIP3    H234631   5.985   7.046   3.792 -0.2647 -0.1975 -1.1726
11560TIP3   OH234632   4.897   2.041   1.216  0.2903  0.6971  0.1081
11560TIP3    H134633   4.834   2.100   1.259  1.0301  1.8365 -0.3289
11560TIP3    H234634   4.931   1.986   1.287 -1.4052 -0.1302  0.2936
11561TIP3   OH234635   0.925   7.390   1.865 -0.2454 -0.5700 -0.2640
11561TIP3    H134636   0.923   7.451   1.938  1.6653 -0.2426 -0.4595
11561TIP3    H234637   0.842   7.343   1.870 -0.8258  0.5898  1.1260
11562TIP3   OH234638   4.081   0.465   0.842 -0.0142 -0.2552  0.0418
11562TIP3    H134639   4.093   0.549   0.886 -1.0004  0.0571 -0.2584
11562TIP3    H234640   4.128   0.474   0.759 -1.0262  0.4178 -0.4802
11563TIP3   OH234641   3.868   1.191   0.202  0.1109  0.1282  0.2413
11563TIP3    H134642   3.903   1.264   0.254 -1.6814  0.1986  1.4027
11563TIP3    H234643   3.838   1.127   0.267 -1.2513 -0.2194 -0.7083
11564TIP3   OH234644   6.878   7.261   1.589 -0.3091 -0.4740 -0.4729
11564TIP3    H134645   6.785   7.236   1.589 -0.2298 -0.7656 -0.7263
11564TIP3    H234646   6.925   7.179   1.606 -0.1641 -0.0515  1.3122
11565TIP3   OH234647   7.163   7.347   0.775 -0.1552 -0.0972 -0.9416
11565TIP3    H134648   7.076   7.386   0.783 -0.8321 -1.2289 -2.5264
11565TIP3    H234649   7.215   7.391   0.842 -1.5852  1.5848 -0.8875
11566TIP3   OH234650   7.334   4.307   5.568 -0.4104  0.3849  0.3601
11566TIP3    H134651   7.354   4.397   5.542  0.1010 -0.5283 -2.5633
11566TIP3    H234652   7.258   4.284   5.516 -0.6205 -0.8261  1.2015
11567TIP3   OH234653   2.208   2.900   6.287  0.4747 -0.1885  0.1515
11567TIP3    H134654   2.189   2.927   6.197 -1.4435 -0.3390  0.4898
11567TIP3    H234655   2.233   2.982   6.331 -1.6305  0.4451  0.2348
11568TIP3   OH234656   6.766   1.460   2.424 -0.3088 -0.4228 -0.0445
11568TIP3    H134657   6.788   1.458   2.331 -0.9753 -0.5934 -0.2063
11568TIP3    H234658   6.845   1.431   2.468  1.0695  2.7339 -0.3413
11569TIP3   OH234659   0.786   0.905   2.403  0.2218 -0.1434  0.0451
11569TIP3    H134660   0.809   0.933   2.315  1.0521 -0.1304  0.2683
11569TIP3    H234661   0.733   0.978   2.437 -0.2762 -0.2421 -0.5124
11570TIP3   OH234662   6.175   1.942   0.979  0.2015 -0.2214 -0.7283
11570TIP3    H134663   6.126   1.918   0.900  0.5860  2.1597 -1.7446
11570TIP3    H234664   6.107   1.961   1.045 -0.1811 -0.1891 -1.1294
11571TIP3   OH234665   4.478   7.268   2.264 -0.7616  0.2507  0.4725
11571TIP3    H134666   4.543   7.198   2.267 -0.9819 -0.0116 -0.9107
11571TIP3    H234667   4.409   7.235   2.207 -0.8748  1.5867 -0.1843
11572TIP3   OH234668   4.651   7.344   1.549  0.4690  0.0249 -0.5593
11572TIP3    H134669   4.584   7.408   1.526  0.1060 -0.0152  0.3650
11572TIP3    H234670   4.662   7.291   1.470 -1.6695 -0.9303 -0.2589
11573TIP3   OH234671   1.417   1.915   1.854  0.2408  0.3254  0.0398
11573TIP3    H134672   1.504   1.887   1.881  0.7041  1.6282 -0.0433
11573TIP3    H234673   1.411   2.006   1.884 -1.7504 -0.2850  1.5855
11574TIP3   OH234674   6.662   0.306   3.017 -0.1961  0.3514 -0.1802
11574TIP3    H134675   6.717   0.244   3.065  0.0830  0.4973 -0.3127
11574TIP3    H234676   6.638   0.372   3.083 -1.5666 -0.5879  0.2890
11575TIP3   OH234677   5.412   6.690   1.256 -0.0440 -0.1095  0.2904
11575TIP3    H134678   5.328   6.696   1.210  1.5231 -1.8297 -3.0155
11575TIP3    H234679   5.414   6.766   1.314 -3.4312  0.4981 -0.3160
11576TIP3   OH234680   5.681   7.169   1.892 -0.0761 -0.1408  0.2517
11576TIP3    H134681   5.739   7.245   1.881  1.5709 -1.3943 -0.0523
11576TIP3    H234682   5.645   7.179   1.980  1.3399  0.1991  0.8126
11577TIP3   OH234683   4.680   7.180   0.976  0.2568 -0.1438  0.2394
11577TIP3    H134684   4.664   7.133   0.894  1.0419 -0.7107  0.4069
11577TIP3    H234685   4.603   7.237   0.986 -1.0997 -1.9435  0.4123
11578TIP3   OH234686   1.338   3.721   6.114  0.0245  0.0578  0.3177
11578TIP3    H134687   1.409   3.780   6.092 -0.1927 -0.2628 -1.3233
11578TIP3    H234688   1.269   3.742   6.051  0.4844 -2.8875 -1.2896
11579TIP3   OH234689   7.158   1.154   2.440 -0.2133 -0.0124 -0.3824
11579TIP3    H134690   7.090   1.138   2.375 -0.1046  0.0176 -0.5045
11579TIP3    H234691   7.227   1.199   2.391 -0.4228  0.6260 -0.0972
11580TIP3   OH234692   0.144   2.136   1.785 -0.0586  0.1281  0.1833
11580TIP3    H134693   0.172   2.157   1.696  0.3362  2.2980  0.8064
11580TIP3    H234694   0.204   2.066   1.813 -0.1415 -0.5073 -1.2188
11581TIP3   OH234695   0.332   3.710   3.167  1.0947  0.1082 -0.0066
11581TIP3    H134696   0.342   3.711   3.072  0.2094  0.0189 -0.1008
11581TIP3    H234697   0.417   3.740   3.200  1.7994 -0.9972 -0.7883
11582TIP3   OH234698   7.174   0.690   2.588  0.4268  0.0224 -0.2261
11582TIP3    H134699   7.201   0.598   2.589  0.0521 -0.0916  1.9918
11582TIP3    H234700   7.124   0.701   2.669 -0.7388  1.8326 -1.1597
11583TIP3   OH234701   4.106   5.776   1.115 -0.7355  0.1387 -0.3170
11583TIP3    H134702   4.104   5.742   1.205  4.1961 -0.7211 -0.3689
11583TIP3    H234703   4.117   5.871   1.126  0.4533 -0.0316  0.0127
11584TIP3   OH234704   7.420   2.943   1.694 -0.3527 -0.3475  0.3454
11584TIP3    H134705   7.438   3.035   1.674  0.2193 -0.3778  0.7039
11584TIP3    H234706   7.376   2.946   1.779  0.4054 -0.4509  0.7534
11585TIP3   OH234707   7.131   6.126   1.989 -0.1283 -0.0820 -0.0547
11585TIP3    H134708   7.099   6.063   2.053  0.3194 -0.3742 -0.1145
11585TIP3    H234709   7.156   6.073   1.913  1.5251  0.0187  0.3991
11586TIP3   OH234710   7.383   1.365   2.372  0.1920 -0.0615  0.1561
11586TIP3    H134711   7.461   1.400   2.415 -0.2065 -0.2034  1.0029
11586TIP3    H234712   7.414   1.288   2.325  0.5741 -0.0709  0.4232
11587TIP3   OH234713   0.573   2.923   0.628  0.0852 -0.3445  1.0737
11587TIP3    H134714   0.500   2.951   0.684  0.1750  0.8941  0.5954
11587TIP3    H234715   0.646   2.980   0.654 -0.0467  0.6914 -0.7230
11588TIP3   OH234716   4.349   0.388   5.090 -0.2786 -0.0558  0.2625
11588TIP3    H134717   4.258   0.373   5.066 -0.3064 -0.3898  0.5734
11588TIP3    H234718   4.362   0.482   5.080 -1.0069  0.1717  1.4322
11589TIP3   OH234719   7.008   0.672   1.154 -0.4664  0.3593 -0.2733
11589TIP3    H134720   6.977   0.634   1.237 -0.6421 -1.0073 -0.9522
11589TIP3    H234721   6.940   0.735   1.130 -0.9489 -0.0168  0.0844
11590TIP3   OH234722   1.358   2.392   0.904 -0.0366  0.1849 -0.1393
11590TIP3    H134723   1.334   2.405   0.995  0.1202  1.2766 -0.2499
11590TIP3    H234724   1.280   2.416   0.855 -0.4215 -1.2480 -0.2693
11591TIP3   OH234725   4.038   5.575   5.676  0.0914 -0.0049  0.3482
11591TIP3    H134726   4.047   5.641   5.607 -0.1131  0.0287  0.3545
11591TIP3    H234727   4.097   5.504   5.649  0.4431  0.2529  0.4298
11592TIP3   OH234728   0.253   0.115   0.695 -0.1787 -0.1619  0.0025
11592TIP3    H134729   0.314   0.154   0.632 -0.5129  0.0127 -0.2151
11592TIP3    H234730   0.238   0.027   0.661 -1.8154  0.5595 -1.1990
11593TIP3   OH234731   5.390   2.568   1.691 -0.0401 -0.0486  0.0454
11593TIP3    H134732   5.337   2.501   1.648 -0.5302  0.2851  0.1170
11593TIP3    H234733   5.457   2.519   1.739  0.4587 -0.4212 -1.0272
11594TIP3   OH234734   2.618   5.660   6.280 -0.8956  0.9206  0.1283
11594TIP3    H134735   2.587   5.570   6.272  0.1485  0.5903 -0.3499
11594TIP3    H234736   2.595   5.702   6.197  1.0024  0.3235 -0.7293
11595TIP3   OH234737   7.217   3.287   3.020 -0.0100  0.5787 -0.2531
11595TIP3    H134738   7.144   3.270   2.960 -0.1581 -0.0104  0.0849
11595TIP3    H234739   7.221   3.208   3.075  0.2735  1.0158  0.3556
11596TIP3   OH234740   4.840   5.060   0.337 -0.7661 -0.1995 -0.3952
11596TIP3    H134741   4.886   5.142   0.317 -0.4225 -0.1092  0.7490
11596TIP3    H234742   4.758   5.066   0.287 -0.8024  0.9017 -0.2143
11597TIP3   OH234743   7.387   1.221   1.486  0.0151 -0.7031  0.4234
11597TIP3    H134744   7.341   1.272   1.419 -1.0116  0.9731  2.3622
11597TIP3    H234745   7.471   1.266   1.496 -0.6615  0.2927  1.7248
11598TIP3   OH234746   1.434   2.025   0.497 -0.2150 -0.2594 -0.9733
11598TIP3    H134747   1.455   2.001   0.587  0.8473  1.5941 -0.7167
11598TIP3    H234748   1.402   1.943   0.458 -0.3164 -1.1740  0.9558
11599TIP3   OH234749   6.453   3.615   0.833 -0.1730 -0.2453 -0.5860
11599TIP3    H134750   6.535   3.569   0.849 -0.0523  0.7295  1.6483
11599TIP3    H234751   6.437   3.666   0.912 -1.4374  1.8649 -2.1449
11600TIP3   OH234752   4.742   2.031   2.556 -0.1057 -0.0903 -0.4322
11600TIP3    H134753   4.769   1.947   2.592  1.4083  0.2399 -0.7506
11600TIP3    H234754   4.651   2.042   2.584 -0.4002 -1.9396 -0.6069
11601TIP3   OH234755   7.732   2.953   2.076 -0.1295  0.5056 -0.3304
11601TIP3    H134756   7.811   2.994   2.111 -0.2649  0.6277 -0.1606
11601TIP3    H234757   7.746   2.859   2.086 -0.2656  0.5461  0.2811
11602TIP3   OH234758   2.494   5.557   5.375  0.7536  0.1752  0.4500
11602TIP3    H134759   2.530   5.514   5.454  1.4727  0.7112  0.4213
11602TIP3    H234760   2.459   5.640   5.407  0.6667  0.2062  0.2714
11603TIP3   OH234761   0.852   2.927   1.015 -0.0711 -0.0207 -0.0517
11603TIP3    H134762   0.917   2.957   1.078  0.0111 -0.9366  0.3040
11603TIP3    H234763   0.878   2.968   0.932 -1.1728  2.6084  0.8334
11604TIP3   OH234764   7.238   0.967   1.515 -0.1169 -0.7751  0.0308
11604TIP3    H134765   7.236   0.970   1.611 -2.1539 -0.4579  0.0155
11604TIP3    H234766   7.291   1.042   1.489  2.3824 -2.1627  0.9342
11605TIP3   OH234767   7.774   1.612   1.136  0.0977 -0.1374  0.0785
11605TIP3    H134768   7.761   1.694   1.088 -0.8091 -0.9810 -1.1307
11605TIP3    H234769   7.868   1.612   1.158 -0.1633  1.8850  1.3435
11606TIP3   OH234770   0.103   2.453   0.227  0.0302  0.3826 -0.0557
11606TIP3    H134771   0.053   2.372   0.220  0.7867 -0.0355 -0.6778
11606TIP3    H234772   0.047   2.519   0.186 -2.0679  0.8692  3.3908
11607TIP3   OH234773   0.026   1.226   2.165  0.2556  0.1176 -0.0644
11607TIP3    H134774   0.032   1.267   2.251 -0.0872  1.7410 -0.8025
11607TIP3    H234775   0.006   1.298   2.105  1.5722 -0.8204 -1.6718
11608TIP3   OH234776   7.445   1.632   2.661  0.0210  0.2182  0.2791
11608TIP3    H134777   7.405   1.655   2.744  1.4548 -0.4251  1.1596
11608TIP3    H234778   7.527   1.588   2.684  0.2661 -0.2976 -1.4543
11609TIP3   OH234779   4.755   6.029   1.733  0.1923 -0.0590  0.1150
11609TIP3    H134780   4.661   6.043   1.718 -0.1888 -1.1176  1.4414
11609TIP3    H234781   4.779   6.097   1.797  0.2087 -0.1509  0.2056
11610TIP3   OH234782   4.800   7.280   1.293  0.6775 -0.2628 -0.1770
11610TIP3    H134783   4.892   7.263   1.314  0.9085 -2.1921 -2.5952
11610TIP3    H234784   4.798   7.290   1.198 -1.3555  1.6804  0.0313
11611TIP3   OH234785   7.690   0.306   1.230  0.2903 -0.6124 -0.0439
11611TIP3    H134786   7.673   0.272   1.318  0.3126 -0.6459 -0.0524
11611TIP3    H234787   7.752   0.378   1.244 -1.1083  0.5658  0.1450
11612TIP3   OH234788   2.940   5.433   6.413  0.0152  0.2636 -0.0716
11612TIP3    H134789   2.967   5.525   6.409 -1.3402  0.7592  1.6552
11612TIP3    H234790   2.845   5.435   6.408 -0.0650 -0.9910  0.7807
11613TIP3   OH234791   6.767   2.130   0.437 -0.6571  1.0410 -0.1143
11613TIP3    H134792   6.836   2.074   0.474 -0.2566 -0.3177 -2.7620
11613TIP3    H234793   6.686   2.096   0.474 -0.2870 -0.3524 -0.5627
11614TIP3   OH234794   7.666   2.889   0.225 -0.4310 -0.1766 -0.1477
11614TIP3    H134795   7.631   2.978   0.232 -1.0215 -0.4777  0.7624
11614TIP3    H234796   7.712   2.875   0.308 -0.9492 -0.9824  0.0029
11615TIP3   OH234797   3.647   1.903   0.310 -0.0387  0.1071 -0.0882
11615TIP3    H134798   3.639   1.910   0.405  2.9251 -0.6505  0.2641
11615TIP3    H234799   3.680   1.814   0.295  0.3121  0.5029 -1.7439
11616TIP3   OH234800   2.316   5.305   6.061  0.6732  0.2036 -0.4022
11616TIP3    H134801   2.339   5.361   5.986 -0.6392  0.3562 -0.6906
11616TIP3    H234802   2.328   5.216   6.027  0.9610  0.2850 -0.5178
11617TIP3   OH234803   4.929   5.630   6.083 -0.8234  0.2958  0.7963
11617TIP3    H134804   5.021   5.646   6.064 -1.0317  0.1154 -0.3670
11617TIP3    H234805   4.921   5.645   6.178  0.2076  1.1773  0.7468
11618TIP3   OH234806   0.095   3.486   0.476  0.1410  0.6293  0.4733
11618TIP3    H134807   0.178   3.520   0.441 -0.9799  0.5563 -2.4320
11618TIP3    H234808   0.060   3.558   0.529  0.7686  1.6807 -0.5014
11619TIP3   OH234809   7.731   3.398   0.604  0.1459  0.2007  0.3154
11619TIP3    H134810   7.792   3.446   0.548  0.5611 -0.2048  0.4173
11619TIP3    H234811   7.725   3.311   0.565 -2.0763  0.8892 -0.9727
11620TIP3   OH234812   1.241   6.224   5.422  0.3172  0.3153  0.2053
11620TIP3    H134813   1.236   6.131   5.402  2.2663  0.5124 -1.4579
11620TIP3    H234814   1.160   6.261   5.387 -0.1909 -0.6609  0.3403
11621TIP3   OH234815   1.640   2.404   1.014 -0.2509 -0.5018 -0.1178
11621TIP3    H134816   1.560   2.380   0.967 -0.4423  1.5367 -0.8472
11621TIP3    H234817   1.609   2.449   1.093  0.1409 -1.6960  0.7344
11622TIP3   OH234818   0.437   1.176   0.662 -0.2157  0.0395  0.2413
11622TIP3    H134819   0.456   1.241   0.595 -2.0476  0.0151 -0.3378
11622TIP3    H234820   0.378   1.221   0.723 -1.9219 -1.1765 -0.4445
11623TIP3   OH234821   0.286   2.221   1.561  0.1636 -0.4517  0.8391
11623TIP3    H134822   0.321   2.307   1.584  0.0071  0.8540 -3.3770
11623TIP3    H234823   0.354   2.182   1.506 -1.3644 -1.4356 -0.3731
11624TIP3   OH234824   7.803   2.698   2.160  0.3085 -0.0109 -0.2856
11624TIP3    H134825   7.878   2.735   2.206  1.0721 -1.0405 -0.6904
11624TIP3    H234826   7.820   2.604   2.157 -1.2991 -0.3300  0.1532
11625TIP3   OH234827   4.748   6.355   0.984 -0.0567 -0.1258 -0.0827
11625TIP3    H134828   4.759   6.364   1.079  0.3493  2.1415 -0.3215
11625TIP3    H234829   4.780   6.437   0.948  0.5944 -1.3010 -2.2684
11626TIP3   OH234830   0.363   3.198   0.997 -0.1535  0.0199 -0.2364
11626TIP3    H134831   0.457   3.203   0.977 -0.0066  0.3666  0.5131
11626TIP3    H234832   0.359   3.147   1.078 -0.4939  1.3887  0.6155
11627TIP3   OH234833   5.394   7.179   0.061  0.3150 -0.0669  0.1332
11627TIP3    H134834   5.406   7.237  -0.014 -1.6871  1.0771  0.6559
11627TIP3    H234835   5.415   7.233   0.137  1.3761 -0.9245  0.4461
11628TIP3   OH234836   0.279   2.110   1.205 -0.4366  0.4638 -0.7032
11628TIP3    H134837   0.330   2.174   1.154  0.3241 -0.3529 -0.9926
11628TIP3    H234838   0.225   2.066   1.139 -0.0352 -0.0458 -0.6977
11629TIP3   OH234839   5.686   7.208   2.585 -0.0767  0.6578  0.0580
11629TIP3    H134840   5.615   7.255   2.542  0.1315  0.2941 -0.6958
11629TIP3    H234841   5.737   7.277   2.629 -0.8488  0.9250  0.5462
11630TIP3   OH234842   6.783   6.946   1.815 -0.4129 -0.1555 -0.8199
11630TIP3    H134843   6.729   7.018   1.846  2.7320  2.2514 -0.7405
11630TIP3    H234844   6.843   6.928   1.887  2.6782  1.1407 -3.0056
11631TIP3   OH234845   0.601   3.080   2.665 -0.0287  0.6634 -0.1946
11631TIP3    H134846   0.540   3.125   2.722  0.0705  2.3665 -1.4033
11631TIP3    H234847   0.632   3.005   2.717 -0.2650  1.9120  1.7931
11632TIP3   OH234848   6.025   7.283   1.256  0.0726  0.4218  0.4061
11632TIP3    H134849   5.994   7.195   1.279 -1.0790  0.7866  0.2455
11632TIP3    H234850   5.980   7.341   1.317  0.2957  0.9699  0.0503
11633TIP3   OH234851   0.156   0.760   2.004  0.3359 -0.0066 -0.2002
11633TIP3    H134852   0.186   0.730   2.090  0.3436  0.2701 -0.1075
11633TIP3    H234853   0.192   0.696   1.943  1.3882  0.5039 -0.1226
11634TIP3   OH234854   2.246   6.487   5.931 -0.1121  0.2840 -0.4719
11634TIP3    H134855   2.185   6.421   5.962 -0.7466  1.3354  0.5540
11634TIP3    H234856   2.208   6.518   5.849  0.3508 -0.8384 -1.1153
11635TIP3   OH234857   4.280   6.213   3.992  0.4282 -0.5315 -0.5587
11635TIP3    H134858   4.250   6.297   3.957  1.3609  0.3669  0.7720
11635TIP3    H234859   4.341   6.236   4.061  2.0776 -2.3305 -1.3741
11636TIP3   OH234860   1.037   2.816   2.313 -0.0598 -0.4910 -0.2989
11636TIP3    H134861   1.120   2.859   2.296  0.1916 -0.5061  0.8451
11636TIP3    H234862   1.054   2.723   2.297  0.0862 -0.4630 -0.3047
11637TIP3   OH234863   3.985   7.321   1.770  0.5180  0.2462 -0.1198
11637TIP3    H134864   4.066   7.362   1.740  0.8201 -1.4405 -1.6977
11637TIP3    H234865   4.010   7.275   1.850  1.0984 -0.1480 -0.5209
11638TIP3   OH234866   1.705   1.220   2.255  0.3653 -0.5120  0.3994
11638TIP3    H134867   1.700   1.260   2.168  0.7063 -0.1378  0.5481
11638TIP3    H234868   1.649   1.143   2.250 -0.9738  0.4541  0.3573
11639TIP3   OH234869   4.629   0.356   6.125 -0.2641  0.0437 -0.3348
11639TIP3    H134870   4.664   0.436   6.086 -1.3013  0.2176 -0.9543
11639TIP3    H234871   4.614   0.379   6.217 -0.4723  0.5340 -0.4889
11640TIP3   OH234872   7.107   1.033   0.791 -0.3997  0.2025 -0.1590
11640TIP3    H134873   7.075   1.055   0.704 -1.9189 -1.6102 -0.1006
11640TIP3    H234874   7.087   1.110   0.844  0.9663  1.5023 -1.4933
11641TIP3   OH234875   7.784   1.105   1.717 -0.4919  0.1557 -0.0898
11641TIP3    H134876   7.706   1.096   1.661 -0.9812  1.3983  0.3576
11641TIP3    H234877   7.856   1.076   1.662 -1.1832 -0.2653 -0.7904
11642TIP3   OH234878   0.989   1.362   1.464  0.1307  0.2831 -0.3606
11642TIP3    H134879   1.081   1.388   1.462  0.7995 -2.0648 -1.2971
11642TIP3    H234880   0.952   1.395   1.382  0.1484  1.1834 -0.0061
11643TIP3   OH234881   4.851   7.065   0.474 -0.3503 -0.9676 -0.1506
11643TIP3    H134882   4.829   7.150   0.512  1.0784 -0.5555 -0.2127
11643TIP3    H234883   4.793   7.003   0.519 -2.0104  0.1399 -0.7330
11644TIP3   OH234884   0.832   1.143   1.186  0.1642 -0.0307 -0.0953
11644TIP3    H134885   0.860   1.213   1.127 -1.1564  1.1279  0.6398
11644TIP3    H234886   0.820   1.067   1.128  2.2043  0.1550 -0.7948
11645TIP3   OH234887   2.950   6.947   5.181  0.3542  0.0911  0.1142
11645TIP3    H134888   2.931   7.030   5.225 -0.6395 -0.2666  0.3710
11645TIP3    H234889   2.996   6.972   5.101 -1.7514  1.0204 -0.8210
11646TIP3   OH234890   5.471   6.987   0.901  0.3250 -0.1006  0.2205
11646TIP3    H134891   5.520   6.999   0.982  0.9866 -2.3140  0.1722
11646TIP3    H234892   5.537   6.994   0.832  0.2351 -0.9987  0.0383
11647TIP3   OH234893   0.079   2.228   1.366  0.3112  0.4299  0.3650
11647TIP3    H134894   0.140   2.186   1.306  0.7687 -0.0720  1.1748
11647TIP3    H234895   0.121   2.221   1.452 -0.1351  1.5291  0.6806
11648TIP3   OH234896   0.138   7.049   1.568 -0.2328  0.9796  0.2165
11648TIP3    H134897   0.088   7.057   1.487  0.8066  5.1664 -0.1521
11648TIP3    H234898   0.229   7.042   1.540 -0.0342  0.4235  0.9883
11649TIP3   OH234899   2.304   1.022   2.454 -0.2111  0.2525  0.5777
11649TIP3    H134900   2.233   0.990   2.398 -0.1239  3.2581 -1.3753
11649TIP3    H234901   2.373   1.048   2.393  1.8285 -0.8222  2.3626
11650TIP3   OH234902   2.742   1.328   1.925  0.5736  0.2875 -0.1673
11650TIP3    H134903   2.667   1.305   1.979  0.7629  1.4472  0.5966
11650TIP3    H234904   2.712   1.315   1.835  0.4043 -2.1050  0.1897
11651TIP3   OH234905   2.590   0.944   2.387  0.3525  0.1014  0.3713
11651TIP3    H134906   2.551   1.012   2.332 -0.1648 -0.5397 -0.0560
11651TIP3    H234907   2.654   0.991   2.440  1.5278  0.5674 -1.4210
11652TIP3   OH234908   0.365   1.261   0.074  0.5954 -0.0785 -0.1378
11652TIP3    H134909   0.343   1.187   0.016 -0.1755 -0.9052  1.1649
11652TIP3    H234910   0.453   1.241   0.106 -0.3494 -1.4755  1.7220
11653TIP3   OH234911   4.960   7.131   1.877 -0.6718 -0.1404  0.0919
11653TIP3    H134912   4.878   7.082   1.864 -0.5365 -0.1425 -0.7778
11653TIP3    H234913   4.977   7.172   1.792  0.3307 -0.2936  0.2199
11654TIP3   OH234914   1.628   0.634   0.248 -0.0872 -0.3063  0.1749
11654TIP3    H134915   1.713   0.606   0.283  0.4307 -0.6067 -1.2630
11654TIP3    H234916   1.643   0.724   0.219 -0.9835  0.5323  2.2675
11655TIP3   OH234917   4.208   6.177   1.992  0.8205  0.2801 -0.3683
11655TIP3    H134918   4.126   6.159   2.038  1.4185  0.9900  1.0105
11655TIP3    H234919   4.182   6.230   1.916 -0.1898 -1.0184 -0.9433
11656TIP3   OH234920   0.383   1.165   1.697  0.0334 -0.4102 -0.1188
11656TIP3    H134921   0.301   1.215   1.701 -1.3421 -2.5204 -0.9456
11656TIP3    H234922   0.377   1.102   1.769  1.0105 -0.4641 -0.0806
11657TIP3   OH234923   1.632   2.089   0.999 -0.1886 -0.4985 -0.0457
11657TIP3    H134924   1.682   2.009   1.015 -0.2891 -0.5614 -0.0484
11657TIP3    H234925   1.637   2.136   1.083 -0.5870 -0.7589  0.1250
11658TIP3   OH234926   0.702   0.347   1.731  0.1009 -0.4046 -0.0089
11658TIP3    H134927   0.772   0.368   1.793  0.1589  1.3463 -0.6397
11658TIP3    H234928   0.742   0.356   1.645 -0.7578  0.0663 -0.3637
11659TIP3   OH234929   4.442   6.268   6.217 -0.0035 -0.7055  0.2634
11659TIP3    H134930   4.380   6.196   6.201  0.3858 -0.9385 -0.2159
11659TIP3    H234931   4.461   6.303   6.130  1.2339 -1.2231  0.3210
11660TIP3   OH234932   2.277   2.220   2.491 -0.4737  0.2607 -0.5198
11660TIP3    H134933   2.332   2.207   2.413 -0.3207 -2.1715 -0.0649
11660TIP3    H234934   2.295   2.309   2.519  1.0668  0.4566 -2.0702
11661TIP3   OH234935   2.052   5.225   6.152 -0.1059  0.7774  0.1713
11661TIP3    H134936   2.084   5.144   6.192 -1.0839  0.3180  0.0553
11661TIP3    H234937   2.129   5.264   6.111 -0.1241 -1.5013 -2.1446
11662TIP3   OH234938  -0.023   0.502   1.300 -0.0115 -0.0873  0.6988
11662TIP3    H134939  -0.038   0.595   1.285  2.1119 -0.1726 -2.2172
11662TIP3    H234940   0.065   0.486   1.267 -0.2463 -3.0926  1.3980
11663TIP3   OH234941   7.914   1.980   0.794  0.1990  0.6817  0.3227
11663TIP3    H134942   7.928   2.014   0.705 -0.1977 -1.0275 -0.4113
11663TIP3    H234943   7.819   1.975   0.803  0.2246  1.4236  1.0797
11664TIP3   OH234944   1.742   6.438   6.249  0.1134  0.1914 -0.1677
11664TIP3    H134945   1.800   6.439   6.172  0.4471 -0.8110  0.0637
11664TIP3    H234946   1.693   6.356   6.240  1.5450 -0.9106  1.7063
11665TIP3   OH234947   3.943   6.790   6.322 -0.3430  1.0921  0.2061
11665TIP3    H134948   3.918   6.738   6.398 -0.7021  0.2222 -0.4996
11665TIP3    H234949   4.033   6.764   6.303 -0.8405  0.0128 -0.7249
11666TIP3   OH234950   1.748   3.178   4.710 -0.0954 -0.1002 -0.7135
11666TIP3    H134951   1.760   3.083   4.705 -2.3506 -0.3630 -1.4165
11666TIP3    H234952   1.673   3.196   4.653  0.6707  2.1833 -1.0492
11667TIP3   OH234953   6.371   0.449   0.716  0.0620 -0.1293  0.3635
11667TIP3    H134954   6.370   0.393   0.638  1.5074  0.5496 -0.1651
11667TIP3    H234955   6.448   0.420   0.765  0.0889  0.5446  0.7270
11668TIP3   OH234956   0.230   0.453   1.184 -0.5531  0.1111 -0.2127
11668TIP3    H134957   0.278   0.377   1.219 -0.9389 -0.4128 -0.8019
11668TIP3    H234958   0.254   0.455   1.091 -0.4187  0.8137 -0.1648
11669TIP3   OH234959   3.402   6.175   6.041 -0.0392 -0.1384  0.5777
11669TIP3    H134960   3.387   6.269   6.029 -0.0143 -0.0988  0.8477
11669TIP3    H234961   3.314   6.138   6.053 -0.0698 -0.1895  0.1714
11670TIP3   OH234962   0.661   2.702   2.103 -0.5080  0.0111  0.0652
11670TIP3    H134963   0.675   2.794   2.083 -0.3625 -0.1328 -0.5179
11670TIP3    H234964   0.712   2.655   2.037 -2.0477 -0.5045 -0.7795
11671TIP3   OH234965   4.226   6.007   6.353  0.7550  0.2345 -0.7537
11671TIP3    H134966   4.215   5.940   6.421 -2.6478 -0.5444 -1.9685
11671TIP3    H234967   4.221   6.090   6.400  1.0329 -0.3086  0.2615
11672TIP3   OH234968   2.737   0.861   3.219  0.4092  0.1950  0.3781
11672TIP3    H134969   2.832   0.868   3.210  0.4059  0.6222  0.6413
11672TIP3    H234970   2.717   0.769   3.202  0.7057  0.4118 -1.1910
11673TIP3   OH234971   3.426   1.949   1.327  0.0128  0.4931  0.1925
11673TIP3    H134972   3.455   2.027   1.280  0.3619  0.1353 -0.1954
11673TIP3    H234973   3.508   1.907   1.356 -0.1517  0.0144 -0.0305
11674TIP3   OH234974   6.433   7.203   0.660 -0.1709  0.5898  0.4058
11674TIP3    H134975   6.517   7.226   0.619  0.2834 -0.8032  0.5166
11674TIP3    H234976   6.367   7.220   0.593  0.4961 -1.0254 -0.6847
11675TIP3   OH234977   7.914   7.447   0.346 -0.0043  0.7676 -0.4583
11675TIP3    H134978   7.833   7.467   0.393  0.9733  0.4100  1.4120
11675TIP3    H234979   7.889   7.376   0.286 -0.5835 -0.9684  1.7563
11676TIP3   OH234980   0.637   3.540   1.978 -0.3529  0.0094  0.4603
11676TIP3    H134981   0.650   3.620   2.029  0.7574  0.4506 -0.4813
11676TIP3    H234982   0.654   3.469   2.040 -0.4991  0.5145  1.0807
11677TIP3   OH234983   7.159   7.112   4.573  0.2601  0.1799  0.2336
11677TIP3    H134984   7.095   7.117   4.644 -0.7479 -1.5255 -0.5111
11677TIP3    H234985   7.223   7.047   4.602 -0.7346 -1.3232 -0.8081
11678TIP3   OH234986   0.991   0.761   2.206  0.4994  0.2153 -0.5685
11678TIP3    H134987   0.918   0.772   2.145 -0.8963  0.6621  1.1471
11678TIP3    H234988   0.972   0.680   2.253  1.3626  0.0825 -0.4237
11679TIP3   OH234989   6.007   7.186   1.898  0.1285 -0.5516  0.3782
11679TIP3    H134990   6.051   7.271   1.897 -2.4811  0.8643 -0.6351
11679TIP3    H234991   6.004   7.159   1.806  1.1624 -1.8933  0.7185
11680TIP3   OH234992   6.704   0.185   1.858 -0.0422 -0.1115  0.4864
11680TIP3    H134993   6.632   0.160   1.916  0.7001  2.3334  2.5453
11680TIP3    H234994   6.662   0.233   1.788 -0.5701  0.0805  0.9291
11681TIP3   OH234995   5.982   5.636   6.437 -0.3046  0.0453 -0.0186
11681TIP3    H134996   5.905   5.603   6.392 -0.1176 -1.6531  0.8564
11681TIP3    H234997   5.957   5.723   6.469 -0.8098  0.7796 -2.3693
11682TIP3   OH234998   1.984   3.307   2.003 -0.2960  0.2894  0.5232
11682TIP3    H134999   2.002   3.394   2.039  2.1570  0.0639 -0.1115
11682TIP3    H235000   2.066   3.259   2.013 -1.0165 -1.3035 -1.0292
11683TIP3   OH235001   2.520   2.758   1.299 -0.0166  0.3509 -0.2170
11683TIP3    H135002   2.610   2.789   1.288 -0.3099  1.3474  0.2100
11683TIP3    H235003   2.474   2.829   1.343 -1.0570 -0.1001 -0.5433
11684TIP3   OH235004   0.603   1.891   0.997 -0.9089 -0.2248 -0.0095
11684TIP3    H135005   0.622   1.819   1.058 -1.0227  0.9980  1.5154
11684TIP3    H235006   0.537   1.855   0.938  0.5053 -2.0134 -0.5431
11685TIP3   OH235007   0.633   2.653   1.266  0.3150 -0.2261 -0.4576
11685TIP3    H135008   0.568   2.584   1.255 -1.6127  1.4829 -0.0976
11685TIP3    H235009   0.682   2.653   1.183 -1.1176 -0.5465 -1.3202
11686TIP3   OH235010   1.613   0.516   1.506 -0.3903 -0.2452  0.2900
11686TIP3    H135011   1.550   0.506   1.578 -1.1816 -1.9355 -0.6339
11686TIP3    H235012   1.640   0.608   1.512 -1.5461  0.0243  1.8368
11687TIP3   OH235013   3.091   1.414   2.100 -0.4227 -0.4077 -0.0678
11687TIP3    H135014   3.037   1.467   2.041  0.3965  0.6146  0.0942
11687TIP3    H235015   3.181   1.444   2.084 -0.0168 -1.3002  0.4912
11688TIP3   OH235016   0.969   2.311   0.306  0.5936 -0.2056  0.0734
11688TIP3    H135017   1.042   2.370   0.321 -0.7738  1.2271  1.3159
11688TIP3    H235018   0.900   2.342   0.365 -0.9310 -1.6729 -0.8673
11689TIP3   OH235019   1.556   2.519   0.053  0.2249  0.4528 -0.7500
11689TIP3    H135020   1.586   2.531   0.143  1.0451 -0.3672 -0.8999
11689TIP3    H235021   1.463   2.541   0.055  0.6296  2.2007 -0.0847
11690TIP3   OH235022   1.639   1.547   1.496  0.3908  0.4676 -0.5345
11690TIP3    H135023   1.631   1.543   1.591  2.2505 -0.2024 -0.3893
11690TIP3    H235024   1.681   1.631   1.478 -0.6517  0.9382 -0.8311
11691TIP3   OH235025   3.842   3.896   1.096  0.2949  0.3725 -0.2616
11691TIP3    H135026   3.815   3.804   1.097  0.4974  0.3150  0.2141
11691TIP3    H235027   3.937   3.894   1.090  0.1879  0.5856 -2.3127
11692TIP3   OH235028   4.744   6.259   6.178  0.1237  0.4159  0.6042
11692TIP3    H135029   4.681   6.240   6.248  0.4850  0.4276  0.9337
11692TIP3    H235030   4.716   6.204   6.105  0.7026 -0.8306  1.3016
11693TIP3   OH235031   2.821   1.714   0.765 -0.7129 -0.4903  0.1005
11693TIP3    H135032   2.826   1.647   0.833 -0.1724 -0.8777 -0.3105
11693TIP3    H235033   2.797   1.794   0.811 -2.0171 -1.1098  0.4966
11694TIP3   OH235034   1.866   2.776   3.312  0.0673 -0.2264  0.0386
11694TIP3    H135035   1.944   2.762   3.258  0.2962  0.6914  0.1219
11694TIP3    H235036   1.893   2.841   3.377 -0.9028  0.4649 -0.2333
11695TIP3   OH235037   0.872   1.223   1.744  0.2632  0.6045  0.1376
11695TIP3    H135038   0.966   1.237   1.731  0.0643  1.6683 -0.1161
11695TIP3    H235039   0.856   1.136   1.706  0.8461  1.0798 -1.2100
11696TIP3   OH235040   2.831   1.775   2.323 -0.0538  0.2488  0.0772
11696TIP3    H135041   2.893   1.702   2.321  1.1574  1.2921 -2.3003
11696TIP3    H235042   2.827   1.801   2.415 -0.9571 -3.1387  1.0803
11697TIP3   OH235043   4.280   4.467   6.312 -0.0752  0.0472 -0.2815
11697TIP3    H135044   4.230   4.385   6.314 -1.0516  0.6667  1.8227
11697TIP3    H235045   4.246   4.513   6.235  0.5131 -1.5368 -1.5029
11698TIP3   OH235046   6.591   7.246   3.322 -0.0504 -0.5283  0.4598
11698TIP3    H135047   6.497   7.257   3.308 -0.0953  0.0883  1.2295
11698TIP3    H235048   6.603   7.152   3.334 -0.2686 -0.8849 -1.7858
11699TIP3   OH235049   6.390   0.596   5.004  0.1329 -0.2304  0.2077
11699TIP3    H135050   6.350   0.528   5.058  0.3868 -0.0382  0.6399
11699TIP3    H235051   6.319   0.627   4.948  0.0135 -0.8468  0.0144
11700TIP3   OH235052   1.826   2.800   1.784  0.7158  0.0668  0.2439
11700TIP3    H135053   1.818   2.705   1.784 -1.2110  0.1879 -1.2609
11700TIP3    H235054   1.738   2.831   1.763  1.1013  2.2088  1.6762
11701TIP3   OH235055   1.932   1.939   1.308 -0.6758 -0.4142  0.1699
11701TIP3    H135056   2.004   1.990   1.346 -0.5058  0.4995 -1.3025
11701TIP3    H235057   1.886   2.002   1.253 -1.1037 -1.6045 -0.8488
11702TIP3   OH235058   0.044   7.392   1.089 -0.3024  0.0099 -0.1779
11702TIP3    H135059   0.115   7.439   1.132 -0.1870  0.3975 -0.7868
11702TIP3    H235060   0.018   7.449   1.016 -1.2302 -0.1263  0.0359
11703TIP3   OH235061   0.747   2.103   0.920 -0.3067  0.2347 -0.1391
11703TIP3    H135062   0.742   2.145   1.006  0.3889  1.1908 -0.5470
11703TIP3    H235063   0.709   2.016   0.933  1.4665 -0.3229  1.5736
11704TIP3   OH235064   1.987   2.942   0.540 -0.1988 -0.2729 -0.3543
11704TIP3    H135065   2.027   2.934   0.454  0.4413 -0.0496 -0.0837
11704TIP3    H235066   1.998   3.034   0.563  0.8819 -0.6115  0.5482
11705TIP3   OH235067   1.375   1.431   3.586 -0.2427 -0.2333 -0.0745
11705TIP3    H135068   1.309   1.444   3.517  0.5458  0.3035 -0.7437
11705TIP3    H235069   1.449   1.390   3.541 -0.0368 -0.6446  0.6288
11706TIP3   OH235070   2.193   4.703   1.278  0.2038 -0.0413  0.0437
11706TIP3    H135071   2.289   4.704   1.282  0.2347  0.5235 -0.6977
11706TIP3    H235072   2.167   4.644   1.348  1.1370 -1.1452 -0.5268
11707TIP3   OH235073   5.000   6.028   6.425 -0.1063 -0.1925  0.3965
11707TIP3    H135074   5.012   5.948   6.476  0.1418 -0.7021 -0.4382
11707TIP3    H235075   4.964   5.998   6.342  1.8640  0.3222 -0.6908
11708TIP3   OH235076   1.048   2.239   2.827 -0.2276  0.3098 -0.0285
11708TIP3    H135077   1.025   2.162   2.879  0.5862  0.0265 -0.0853
11708TIP3    H235078   1.110   2.287   2.882 -0.3707  0.6850 -0.1925
11709TIP3   OH235079   2.476   1.033   1.786  0.3512 -0.0982 -0.0650
11709TIP3    H135080   2.535   0.958   1.785  0.8248  0.2566  0.7518
11709TIP3    H235081   2.508   1.090   1.716  0.0609 -0.6054 -0.6102
11710TIP3   OH235082   3.025   1.370   1.481  0.4314  0.6852 -0.2828
11710TIP3    H135083   3.043   1.412   1.565 -0.7356 -1.2412  0.9740
11710TIP3    H235084   2.930   1.367   1.476  0.4998 -0.4359 -1.0455
11711TIP3   OH235085   2.902   0.014   1.201 -0.2116  0.1084 -0.2785
11711TIP3    H135086   2.946  -0.021   1.124  0.6005  0.2154  0.1284
11711TIP3    H235087   2.926   0.107   1.203 -0.8601  0.2794 -0.3315
11712TIP3   OH235088   7.311   1.275   2.025  0.3449  0.0611 -0.2570
11712TIP3    H135089   7.368   1.250   2.098 -0.2208  2.5757  1.1030
11712TIP3    H235090   7.371   1.298   1.955  0.9290 -1.0255 -0.1194
11713TIP3   OH235091   1.651   1.758   1.961  0.2872  0.2306  0.3992
11713TIP3    H135092   1.680   1.822   2.026 -0.1837  0.6132  0.2358
11713TIP3    H235093   1.732   1.719   1.928  0.4797 -0.6188  1.8698
11714TIP3   OH235094   0.188   3.414   1.163  0.6470  0.4926 -0.7556
11714TIP3    H135095   0.270   3.387   1.122  1.7983  0.7886  1.2759
11714TIP3    H235096   0.197   3.389   1.254 -1.4706  0.6946 -0.4611
11715TIP3   OH235097   7.034   7.015   3.523  0.1135 -0.3031 -0.2621
11715TIP3    H135098   7.118   7.058   3.538 -0.4548  0.2512  1.3512
11715TIP3    H235099   7.057   6.932   3.481  1.4143  0.1840 -0.5326
11716TIP3   OH235100   1.399   0.477   2.583  0.0929 -0.2615 -0.3779
11716TIP3    H135101   1.480   0.434   2.611 -0.9937 -2.0636  0.0723
11716TIP3    H235102   1.351   0.492   2.665 -1.0963 -1.4366 -0.8440
11717TIP3   OH235103   2.823   1.473   0.974 -0.2777 -0.1642  0.2100
11717TIP3    H135104   2.788   1.402   0.921 -0.3425 -0.2170  0.3222
11717TIP3    H235105   2.916   1.478   0.949 -0.5113  0.4042 -0.5545
11718TIP3   OH235106   0.988   0.887   1.166  0.5138  0.1431  0.3294
11718TIP3    H135107   1.064   0.834   1.141  0.6019  0.0908  0.7079
11718TIP3    H235108   1.025   0.963   1.210  0.4043  0.6951 -0.5136
11719TIP3   OH235109   1.723   0.376   2.012  0.2872  0.0165  0.1320
11719TIP3    H135110   1.783   0.408   2.080  1.6692 -0.9330 -0.6281
11719TIP3    H235111   1.666   0.314   2.058 -0.1062  0.8930  0.8496
11720TIP3   OH235112   1.781   2.212   0.229 -0.0673 -0.3758 -0.5564
11720TIP3    H135113   1.808   2.183   0.316  1.0440 -1.0894 -1.1185
11720TIP3    H235114   1.690   2.185   0.221 -0.7231  1.3074  1.0645
11721TIP3   OH235115   1.128   0.974   1.668 -0.0438 -0.1597 -0.0059
11721TIP3    H135116   1.223   0.978   1.657 -0.0701  0.5405 -0.0288
11721TIP3    H235117   1.093   1.008   1.586 -0.2923  1.0414  0.5898
11722TIP3   OH235118   1.124   1.788   1.964 -0.5751  0.2606  0.1381
11722TIP3    H135119   1.198   1.762   2.020 -0.4778  1.0374  0.3744
11722TIP3    H235120   1.058   1.720   1.979  0.5569 -1.1419 -1.0316
11723TIP3   OH235121   2.554   1.056   0.094 -0.6788  0.5525  0.2148
11723TIP3    H135122   2.638   1.101   0.105 -0.4916  0.1969  0.2416
11723TIP3    H235123   2.554   0.988   0.161 -1.2702  0.9709  0.6400
11724TIP3   OH235124   2.225   1.034   0.038 -0.1392  0.3809  0.1657
11724TIP3    H135125   2.163   1.105   0.024  1.7946  1.4513 -3.4003
11724TIP3    H235126   2.308   1.078   0.056  0.9889 -0.9752 -1.6369
11725TIP3   OH235127   3.796   7.024   6.085  0.2773 -0.2083  0.7819
11725TIP3    H135128   3.891   7.011   6.079 -0.0187 -2.7170  1.1946
11725TIP3    H235129   3.776   7.009   6.177 -0.4853  0.6376  0.7564
11726TIP3   OH235130   1.280   0.099   1.008 -0.4624  0.5870  0.3813
11726TIP3    H135131   1.252   0.173   1.062 -1.0788  0.9244 -0.3851
11726TIP3    H235132   1.298   0.029   1.070  3.1446  2.2805  1.4141
11727TIP3   OH235133   6.311   6.540   5.724 -0.5088  0.6819  0.5851
11727TIP3    H135134   6.332   6.611   5.664  0.4541  0.1111  0.2326
11727TIP3    H235135   6.230   6.502   5.690  0.7525 -0.5024 -1.1370
11728TIP3   OH235136   2.395   2.913   0.468 -0.7308 -0.2153 -0.5282
11728TIP3    H135137   2.319   2.857   0.452  1.3706 -2.6505 -2.3542
11728TIP3    H235138   2.403   2.966   0.390 -0.3232 -0.2776 -0.5327
11729TIP3   OH235139   6.075   6.383   0.255  0.2286 -0.0461  0.0294
11729TIP3    H135140   6.121   6.405   0.174 -0.4356 -1.8254 -0.8610
11729TIP3    H235141   6.102   6.450   0.317 -0.0096  1.9201 -1.9355
11730TIP3   OH235142   5.106   0.221   6.194 -0.0839 -1.0341 -0.4108
11730TIP3    H135143   5.107   0.266   6.109 -2.2612  2.2861  1.2022
11730TIP3    H235144   5.036   0.157   6.186 -0.8699 -0.1319 -0.8729
11731TIP3   OH235145   2.694   3.034   2.380 -0.1871  0.0825  1.0588
11731TIP3    H135146   2.789   3.033   2.367  0.3460  2.6841  4.0306
11731TIP3    H235147   2.658   3.029   2.291  2.7104 -0.5946 -0.1494
11732TIP3   OH235148   3.399   1.031   1.463  0.7241 -0.3655  0.4114
11732TIP3    H135149   3.338   1.016   1.535 -0.6998 -2.1944 -1.1308
11732TIP3    H235150   3.477   0.981   1.486  0.5021 -0.4553  0.9753
11733TIP3   OH235151   4.175   6.285   5.723 -0.0375  0.0538 -0.2444
11733TIP3    H135152   4.137   6.198   5.726 -0.6803  0.3276 -0.5040
11733TIP3    H235153   4.245   6.283   5.789 -0.4882 -0.4393  0.2148
11734TIP3   OH235154   0.470   6.760   0.510 -0.4937  0.3863  0.6782
11734TIP3    H135155   0.453   6.706   0.587 -1.4027  0.3785  0.4748
11734TIP3    H235156   0.390   6.754   0.458  0.3499 -0.1470 -0.5905
11735TIP3   OH235157   3.757   1.774   1.769  0.1739 -0.1142  0.2211
11735TIP3    H135158   3.689   1.727   1.817  0.6088  0.5536  1.5095
11735TIP3    H235159   3.726   1.864   1.764  1.4236  0.4418  1.7869
11736TIP3   OH235160   3.036   0.390   1.388  0.0912  0.1048  0.2820
11736TIP3    H135161   3.025   0.399   1.483  2.0506 -2.7552  0.8371
11736TIP3    H235162   3.125   0.357   1.377  0.3384  1.5912 -2.6694
11737TIP3   OH235163   2.600   3.119   1.020 -0.0949  0.1623  0.5837
11737TIP3    H135164   2.535   3.141   1.087 -0.4051  2.6658 -0.4754
11737TIP3    H235165   2.670   3.182   1.033  1.4848 -1.5980  0.7891
11738TIP3   OH235166   7.783   6.798   1.027  1.2268 -0.2289  0.3773
11738TIP3    H135167   7.843   6.823   0.957  2.0776  0.3785  1.3324
11738TIP3    H235168   7.741   6.880   1.054  0.3932 -0.5619  0.1171
11739TIP3   OH235169   4.194   6.494   2.924 -0.5672 -0.0223 -0.7861
11739TIP3    H135170   4.159   6.583   2.931 -1.8876 -0.6074  0.2940
11739TIP3    H235171   4.137   6.441   2.980  2.8724 -0.8051  2.1315
11740TIP3   OH235172   0.657   6.559   0.748  0.1524  0.4001 -0.4092
11740TIP3    H135173   0.718   6.626   0.720  0.6765  0.8687  1.7098
11740TIP3    H235174   0.695   6.524   0.829 -0.6159 -1.7477 -0.9341
11741TIP3   OH235175   0.703   7.312   0.393  0.3288  0.0183  0.3653
11741TIP3    H135176   0.672   7.350   0.311  1.8079 -2.8097 -1.5959
11741TIP3    H235177   0.798   7.314   0.387  0.4527 -1.8603  1.1574
11742TIP3   OH235178   6.336   6.305   6.371 -0.5004 -0.0139 -0.5419
11742TIP3    H135179   6.379   6.254   6.303 -1.3068  0.4947 -1.4366
11742TIP3    H235180   6.256   6.256   6.390 -0.7179  0.3225 -0.5946
11743TIP3   OH235181   0.354   0.871   0.780 -0.1019  0.5470  0.5696
11743TIP3    H135182   0.376   0.948   0.727  0.8479  0.1053  0.3213
11743TIP3    H235183   0.383   0.797   0.727  0.3305  0.0765  1.4581
11744TIP3   OH235184   4.564   6.560   6.408  0.5678  0.9442  0.3640
11744TIP3    H135185   4.494   6.611   6.449  0.5156 -1.2997  3.2682
11744TIP3    H235186   4.645   6.605   6.434  0.3959  1.0103  0.7917
11745TIP3   OH235187   2.576   2.155   1.084 -0.0748  0.1337 -0.3418
11745TIP3    H135188   2.669   2.179   1.089  0.1308 -0.3609 -1.5194
11745TIP3    H235189   2.577   2.068   1.045 -1.0843  0.4871 -1.1672
11746TIP3   OH235190   1.829   0.207   0.211 -0.0556 -0.4328 -0.8445
11746TIP3    H135191   1.752   0.264   0.203  0.4569  0.2726 -0.8065
11746TIP3    H235192   1.848   0.205   0.305 -0.1344 -0.7406 -0.8373
11747TIP3   OH235193   0.021   0.438   3.174  0.0968  0.0485  0.2959
11747TIP3    H135194   0.104   0.447   3.221  0.3053  0.2818 -0.1156
11747TIP3    H235195  -0.010   0.351   3.196 -0.4309  0.6248  1.8934
11748TIP3   OH235196   5.365   2.506   3.208 -0.1856  0.1329  0.2055
11748TIP3    H135197   5.412   2.428   3.179 -2.8367 -1.5239  0.3025
11748TIP3    H235198   5.367   2.565   3.132  0.6648 -0.5219 -0.2930
11749TIP3   OH235199   2.966   5.988   6.001 -0.7400 -0.0796 -0.0421
11749TIP3    H135200   2.974   5.896   5.977  1.4346  0.5350 -1.8600
11749TIP3    H235201   3.008   5.995   6.086  2.0787 -0.2335 -1.3616
11750TIP3   OH235202   4.420   4.916   6.324  0.5959 -0.1165 -0.3536
11750TIP3    H135203   4.329   4.941   6.305  0.3111  0.8955  2.0993
11750TIP3    H235204   4.432   4.833   6.278 -1.6303 -0.3369 -0.5988
11751TIP3   OH235205   3.173   7.170   5.400  0.0101 -0.0422  0.1770
11751TIP3    H135206   3.153   7.190   5.491  0.2314 -0.9743  0.4394
11751TIP3    H235207   3.107   7.217   5.350  0.9687  1.9144  0.7230
11752TIP3   OH235208   2.416   1.319   0.052 -0.5620 -0.0095 -0.2653
11752TIP3    H135209   2.454   1.235   0.079 -0.8256 -0.6392 -1.8254
11752TIP3    H235210   2.440   1.328  -0.040 -1.1659  1.2856 -0.3047
11753TIP3   OH235211   1.926   1.323   1.423 -0.0194  0.6380  0.1709
11753TIP3    H135212   1.832   1.302   1.424  0.0834 -0.3298 -3.0100
11753TIP3    H235213   1.933   1.394   1.358  1.3561  1.2258  0.9591
11754TIP3   OH235214   5.073   4.132   5.054 -0.3500 -0.4492 -0.0585
11754TIP3    H135215   4.981   4.153   5.069 -0.4518 -1.7054  1.3263
11754TIP3    H235216   5.121   4.192   5.111 -0.2316  0.9132 -1.5547
11755TIP3   OH235217   1.144   7.361   0.949  0.0641 -0.1800  0.1869
11755TIP3    H135218   1.090   7.282   0.945  0.2646 -0.2863 -0.5355
11755TIP3    H235219   1.198   7.350   1.027 -0.2619 -0.5221  0.3660
11756TIP3   OH235220   2.329   2.570   1.259  0.1156  0.0803  0.3551
11756TIP3    H135221   2.389   2.645   1.262  0.4890 -0.2304  0.5905
11756TIP3    H235222   2.253   2.599   1.311 -0.4841  0.9467 -0.9937
11757TIP3   OH235223   1.408   2.303   0.422 -0.4299 -0.4978 -0.1806
11757TIP3    H135224   1.424   2.211   0.441  0.2215  0.0367  2.0948
11757TIP3    H235225   1.485   2.349   0.457 -0.5720  0.8665 -1.6108
11758TIP3   OH235226   7.660   1.369   1.668 -0.1038 -0.3139 -0.1522
11758TIP3    H135227   7.718   1.396   1.597 -0.4234 -0.2853 -0.4052
11758TIP3    H235228   7.694   1.284   1.697 -0.6498 -0.8762 -1.1116
11759TIP3   OH235229   3.135   4.168   2.047 -0.1409 -0.6377  0.1300
11759TIP3    H135230   3.226   4.144   2.033  0.4705  0.1175  2.5133
11759TIP3    H235231   3.115   4.135   2.135 -2.2173 -0.9516 -0.4353
11760TIP3   OH235232   3.702   5.577   5.882 -0.2290  0.1926  0.1633
11760TIP3    H135233   3.642   5.503   5.872  0.1484 -0.5046  2.8273
11760TIP3    H235234   3.658   5.650   5.837 -1.2611 -1.2550 -1.2306
11761TIP3   OH235235   6.686   5.470   5.917  0.2167  0.0255  0.2234
11761TIP3    H135236   6.746   5.419   5.971 -0.7380 -1.7939 -0.4119
11761TIP3    H235237   6.610   5.487   5.973  0.3225  0.3264  0.2768
11762TIP3   OH235238   4.713   5.888   5.523 -0.5886 -0.1221  0.3791
11762TIP3    H135239   4.641   5.825   5.522 -0.6841 -0.0270  1.2239
11762TIP3    H235240   4.707   5.931   5.437 -0.4039 -1.3771 -0.2714
11763TIP3   OH235241   7.196   5.014   5.190 -0.2697  0.6002  0.1155
11763TIP3    H135242   7.214   4.929   5.149  1.1316  1.1006 -0.3286
11763TIP3    H235243   7.162   5.068   5.119 -1.1582  0.4193  0.3985
11764TIP3   OH235244   3.262   0.704   1.005 -0.1933 -0.0011  0.6692
11764TIP3    H135245   3.270   0.634   1.070  0.2989 -0.7468 -0.1965
11764TIP3    H235246   3.286   0.664   0.922 -0.9300  0.9188 -0.0089
11765TIP3   OH235247   1.182   2.657   1.700  0.2816  0.2254 -0.0322
11765TIP3    H135248   1.190   2.636   1.793 -0.0708  1.8850  0.4067
11765TIP3    H235249   1.166   2.752   1.699  2.5807  0.6279 -1.8929
11766TIP3   OH235250   6.314   5.494   5.188 -0.0116  1.1196 -0.3237
11766TIP3    H135251   6.240   5.541   5.226 -2.0158 -1.2615 -1.1369
11766TIP3    H235252   6.348   5.441   5.260  0.8898  2.1639  0.0327
11767TIP3   OH235253   0.988   0.823   1.850  0.2562  0.1309 -0.3550
11767TIP3    H135254   0.900   0.841   1.816  1.0692  1.3298 -1.9215
11767TIP3    H235255   1.046   0.872   1.792  2.0641 -1.6506 -0.0995
11768TIP3   OH235256   3.582   0.946   2.401  0.1613  0.0855  0.1033
11768TIP3    H135257   3.588   0.909   2.489  1.1809 -0.0145  0.0046
11768TIP3    H235258   3.670   0.934   2.365 -0.3649 -0.2851 -1.0868
11769TIP3   OH235259   3.793   1.165   2.451 -0.3448 -0.5441 -0.0415
11769TIP3    H135260   3.776   1.093   2.390 -0.7678 -0.4892  0.0114
11769TIP3    H235261   3.810   1.123   2.535  2.0144 -0.7228 -0.5638
11770TIP3   OH235262   1.710   1.297   1.966 -0.5330 -0.1088 -0.1759
11770TIP3    H135263   1.720   1.208   1.932 -0.2193  0.0215 -0.4210
11770TIP3    H235264   1.740   1.354   1.895 -0.3438  0.1799  0.1338
11771TIP3   OH235265   5.110   3.867   5.101 -0.8160 -0.3695 -0.1940
11771TIP3    H135266   5.113   3.959   5.073  0.0062 -0.4572 -0.4287
11771TIP3    H235267   5.044   3.865   5.170 -1.2317  0.2952 -0.5647
11772TIP3   OH235268   6.037   4.658   5.391  0.5657  0.0503  0.0747
11772TIP3    H135269   5.994   4.575   5.413 -1.3053  0.4531 -1.8871
11772TIP3    H235270   6.094   4.676   5.466 -1.3060 -1.4391  1.9225
11773TIP3   OH235271   2.044   0.740   0.625 -0.2870  0.1457 -0.5572
11773TIP3    H135272   2.042   0.800   0.699 -1.2368 -0.6004  0.0346
11773TIP3    H235273   2.111   0.776   0.567  1.3386  0.0453  1.2323
11774TIP3   OH235274   3.389   2.664   0.849  0.1611  0.3907 -0.4450
11774TIP3    H135275   3.455   2.671   0.780 -0.8056 -0.4004 -1.4576
11774TIP3    H235276   3.315   2.715   0.817  0.1547  1.0424  0.5610
11775TIP3   OH235277   3.472   0.241   2.122 -0.2997  0.1688  0.2454
11775TIP3    H135278   3.436   0.276   2.203 -1.2505  1.6605 -0.7976
11775TIP3    H235279   3.512   0.316   2.078  0.0715 -0.5832 -0.7328
11776TIP3   OH235280   1.824   0.183   1.570 -0.0541  0.5471 -0.3650
11776TIP3    H135281   1.904   0.138   1.541  1.3660  0.6985  3.0181
11776TIP3    H235282   1.811   0.253   1.506  2.7107  0.6797 -0.8407
11777TIP3   OH235283   3.426   1.209   2.400 -0.0558 -0.5298 -0.4850
11777TIP3    H135284   3.478   1.128   2.407 -0.1251 -0.7109 -1.8536
11777TIP3    H235285   3.336   1.179   2.392 -0.0836 -0.3248 -0.9830
11778TIP3   OH235286   4.014   1.631   0.763 -0.3518  0.4753  0.3827
11778TIP3    H135287   4.073   1.651   0.836 -1.4499  1.0007  1.1368
11778TIP3    H235288   4.000   1.537   0.768 -0.7503  0.5671  1.1203
11779TIP3   OH235289   5.812   5.712   1.961 -0.0551  0.2323  0.1106
11779TIP3    H135290   5.733   5.761   1.981  0.3798  0.5713  1.0195
11779TIP3    H235291   5.880   5.753   2.014  1.2537  1.5260 -2.4455
11780TIP3   OH235292   3.800   1.056   3.025  0.2707  0.5342 -0.0627
11780TIP3    H135293   3.854   1.135   3.031 -0.7593  1.3108 -0.7176
11780TIP3    H235294   3.844   1.002   2.960 -0.1422  1.4867 -1.1406
11781TIP3   OH235295   0.309   0.786   1.474 -0.1290  0.1770 -0.4720
11781TIP3    H135296   0.229   0.735   1.481 -1.5610  2.2297 -1.2487
11781TIP3    H235297   0.331   0.784   1.381  1.8732 -2.0296  0.0121
11782TIP3   OH235298   7.843   1.437   1.993  0.5897 -0.0869  0.5918
11782TIP3    H135299   7.879   1.514   1.949  0.7756 -0.0786  0.7633
11782TIP3    H235300   7.765   1.469   2.037  0.4097 -0.0913  0.2813
11783TIP3   OH235301   1.762   1.560   0.877 -0.6745 -0.0694 -0.1973
11783TIP3    H135302   1.827   1.585   0.811 -0.0808 -0.0412  0.3843
11783TIP3    H235303   1.686   1.532   0.827 -0.4226  0.4567 -0.8890
11784TIP3   OH235304   1.979   1.752   1.136 -0.1888  0.0922  0.1557
11784TIP3    H135305   1.944   1.664   1.151 -1.2508  0.3009 -1.0136
11784TIP3    H235306   1.939   1.806   1.205 -0.3649 -0.1334  0.2298
11785TIP3   OH235307   6.077   6.674   2.028 -0.2726  0.2249  0.0348
11785TIP3    H135308   6.035   6.664   1.942 -0.7614 -0.1271  0.3114
11785TIP3    H235309   6.077   6.768   2.044  1.1576  0.4155 -1.0154
11786TIP3   OH235310   1.689   1.944   2.184 -0.1092 -0.4327  0.3931
11786TIP3    H135311   1.661   1.931   2.275 -0.8400 -1.9682 -0.0306
11786TIP3    H235312   1.753   2.015   2.189 -0.9953  0.2860  1.9468
11787TIP3   OH235313   3.848   1.535   2.438 -0.5679 -0.5273  0.7292
11787TIP3    H135314   3.779   1.469   2.432 -1.9179  0.8728  0.6343
11787TIP3    H235315   3.821   1.592   2.510  0.3757  0.1679  0.5442
11788TIP3   OH235316   3.094   2.230   0.856 -0.7852 -0.8160 -0.1922
11788TIP3    H135317   3.073   2.253   0.946  0.4644  0.3671 -0.1864
11788TIP3    H235318   3.062   2.305   0.805  0.6086 -0.4063 -0.4847
11789TIP3   OH235319   3.560   6.746   5.570  0.1413  0.2845 -0.2343
11789TIP3    H135320   3.546   6.684   5.498 -3.4490  0.1594  0.4761
11789TIP3    H235321   3.530   6.830   5.535  1.6595  0.9359 -0.0050
11790TIP3   OH235322   6.272   3.867   5.898  0.1261  0.2104 -0.5812
11790TIP3    H135323   6.243   3.907   5.816 -1.4534  1.8407  0.7445
11790TIP3    H235324   6.362   3.839   5.880  0.3718  2.0269 -2.3569
11791TIP3   OH235325   3.798   0.926   1.279  0.1513  0.4982  0.4297
11791TIP3    H135326   3.778   0.943   1.371  0.8043  1.6594  0.3852
11791TIP3    H235327   3.887   0.890   1.281  1.5575  3.6893  0.0816
11792TIP3   OH235328   3.823   2.929   2.181 -0.5131  0.3855  0.4238
11792TIP3    H135329   3.891   2.863   2.194  1.8597  2.8243  0.9635
11792TIP3    H235330   3.820   2.941   2.086 -0.5600 -0.1322  0.3611
11793TIP3   OH235331   6.405   6.695   1.637 -0.1294 -0.4891 -0.0706
11793TIP3    H135332   6.390   6.761   1.705 -0.6609  2.0920 -2.5888
11793TIP3    H235333   6.500   6.695   1.624 -0.1529  0.0174 -0.2635
11794TIP3   OH235334   5.178   1.706   2.074  0.0461 -0.2376  0.0647
11794TIP3    H135335   5.113   1.673   2.012  1.7321 -1.8170 -0.9077
11794TIP3    H235336   5.148   1.794   2.096 -0.3962  0.5185 -3.2949
11795TIP3   OH235337   5.089   3.397   2.228  0.4750  0.5249 -0.1352
11795TIP3    H135338   5.180   3.369   2.215 -0.3522 -1.3633 -2.1747
11795TIP3    H235339   5.062   3.432   2.144 -1.8547 -2.4895 -0.7309
11796TIP3   OH235340   2.250   0.847   0.478  0.3941  0.0560  0.1447
11796TIP3    H135341   2.329   0.898   0.498  0.4253 -1.0713  3.1550
11796TIP3    H235342   2.270   0.804   0.395  3.3332 -0.9259  1.2865
11797TIP3   OH235343   2.248   0.801   0.156 -0.7238  0.6303  0.0074
11797TIP3    H135344   2.154   0.789   0.169 -0.8058  0.4390 -0.7321
11797TIP3    H235345   2.254   0.879   0.101 -0.4780  0.2649 -0.4799
11798TIP3   OH235346   3.016   1.105   0.700 -0.3543  0.5791  0.3842
11798TIP3    H135347   3.063   1.022   0.706 -1.2096 -0.0113 -0.8901
11798TIP3    H235348   2.930   1.087   0.740 -0.1807  1.1406  1.0286
11799TIP3   OH235349   0.811   0.318   1.472 -0.4241 -0.5140  1.0154
11799TIP3    H135350   0.760   0.393   1.442  1.0356  2.1172  4.6434
11799TIP3    H235351   0.845   0.278   1.392 -4.1259  0.5404 -1.2011
11800TIP3   OH235352   4.461   0.380   0.137 -0.0843 -0.1448  0.8563
11800TIP3    H135353   4.510   0.393   0.056  0.1176 -0.7869  0.8767
11800TIP3    H235354   4.372   0.359   0.108 -0.1700  0.2751  0.8115
11801TIP3   OH235355   4.423   4.783   5.902 -0.0196  0.3947  0.0314
11801TIP3    H135356   4.484   4.792   5.830 -0.9096  0.6285 -0.7056
11801TIP3    H235357   4.438   4.695   5.936 -0.0219  0.0593 -0.8295
11802TIP3   OH235358   4.586   6.159   5.638  0.3872  0.3399  0.7200
11802TIP3    H135359   4.559   6.096   5.705 -0.8167 -0.7673 -0.7752
11802TIP3    H235360   4.642   6.108   5.579  0.3213  0.9446  0.1325
11803TIP3   OH235361   1.801   0.801   0.484 -0.2025 -0.2267  0.7047
11803TIP3    H135362   1.745   0.723   0.487  0.0856 -0.5923 -1.8938
11803TIP3    H235363   1.885   0.772   0.519 -0.2150 -0.9973  0.1097
11804TIP3   OH235364   4.216   1.234   0.403  0.8558  0.4506  0.0834
11804TIP3    H135365   4.150   1.198   0.462  2.3937 -0.6231  1.1800
11804TIP3    H235366   4.177   1.315   0.370 -1.0457 -0.2208  0.6152
11805TIP3   OH235367   4.060   2.579   0.830  0.3218  0.2333 -0.0068
11805TIP3    H135368   4.047   2.529   0.911 -0.0376  0.5370  0.1286
11805TIP3    H235369   4.070   2.513   0.762  1.4719 -0.0431  0.4097
11806TIP3   OH235370   4.406   1.233   0.194 -0.3631 -0.4659  0.1279
11806TIP3    H135371   4.498   1.247   0.215 -0.8893  3.4623  0.1621
11806TIP3    H235372   4.397   1.260   0.103 -1.6398  0.0287  0.3832
11807TIP3   OH235373   1.994   2.335   0.774 -0.1860 -0.4234 -0.1692
11807TIP3    H135374   2.068   2.353   0.716 -0.8966 -0.6350 -1.1411
11807TIP3    H235375   1.953   2.421   0.786 -1.5623 -0.7775 -2.0744
11808TIP3   OH235376   5.237   3.989   6.357 -0.2802  0.1289 -0.7895
11808TIP3    H135377   5.317   3.976   6.408 -0.4531  1.9378 -0.0291
11808TIP3    H235378   5.267   3.986   6.265  0.5660  0.2303 -0.5265
11809TIP3   OH235379   6.180   5.228   5.528  0.0896  0.2027 -0.0467
11809TIP3    H135380   6.087   5.246   5.542 -0.7183 -2.3604 -1.7918
11809TIP3    H235381   6.219   5.237   5.615 -1.4943  2.7980  0.4320
11810TIP3   OH235382   7.071   3.918   5.960  0.2923  0.5182 -0.0072
11810TIP3    H135383   7.070   3.948   6.050  1.0097  2.2351 -0.5540
11810TIP3    H235384   6.983   3.934   5.927  0.1207  0.1814  0.2904
11811TIP3   OH235385   5.109   2.396   5.172  0.1144 -0.0740  0.0733
11811TIP3    H135386   5.033   2.453   5.186 -0.9009 -1.2497 -0.5476
11811TIP3    H235387   5.151   2.431   5.093 -1.3700 -1.0700 -1.1913
11812TIP3   OH235388   7.421   4.927   5.927  0.0474 -0.2611  1.0834
11812TIP3    H135389   7.471   4.986   5.872  1.5227 -0.3957  2.2524
11812TIP3    H235390   7.335   4.968   5.934  0.3024  0.5012 -0.0787
11813TIP3   OH235391   0.188   5.571   5.514 -0.2374  0.0883 -0.1325
11813TIP3    H135392   0.096   5.584   5.490 -0.4157 -3.6468 -1.7178
11813TIP3    H235393   0.220   5.504   5.454  2.3885 -1.6293  2.9955
11814TIP3   OH235394   2.018   0.598   1.056 -0.3465 -0.1175  0.2118
11814TIP3    H135395   1.960   0.600   0.980 -0.5209 -1.4582  0.3042
11814TIP3    H235396   1.982   0.664   1.115  0.5657  1.8812 -1.4094
11815TIP3   OH235397   4.154   4.814   5.829 -0.2157  0.4763 -0.0442
11815TIP3    H135398   4.120   4.808   5.918 -1.1033  0.1587 -0.4001
11815TIP3    H235399   4.249   4.820   5.840 -0.3571  0.9791  0.9409
11816TIP3   OH235400   6.963   3.277   5.795 -0.2327  0.5959  0.0404
11816TIP3    H135401   7.007   3.239   5.720  0.5892  1.3204  0.1456
11816TIP3    H235402   6.921   3.203   5.839  0.9945 -0.1247  0.0213
11817TIP3   OH235403   4.910   0.816   1.616  0.5246  0.0688 -0.0057
11817TIP3    H135404   4.974   0.747   1.637 -1.0708 -1.7170 -0.8664
11817TIP3    H235405   4.947   0.860   1.540  2.1033  0.9310  1.2194
11818TIP3   OH235406   5.248   1.872   1.289 -0.3247 -0.2324 -0.6173
11818TIP3    H135407   5.233   1.895   1.197 -0.4895  1.8276 -0.1138
11818TIP3    H235408   5.308   1.940   1.321  0.6999 -1.6321  0.4839
11819TIP3   OH235409   0.316   2.293   0.990 -0.3587  0.3707 -0.0054
11819TIP3    H135410   0.352   2.251   0.912  2.0692 -3.1854  2.8883
11819TIP3    H235411   0.389   2.341   1.028 -0.7088 -0.3864  1.6690
11820TIP3   OH235412   7.779   4.519   1.477 -0.1176 -0.4433  0.6206
11820TIP3    H135413   7.833   4.594   1.499 -1.4064  0.4614  0.7435
11820TIP3    H235414   7.745   4.488   1.560 -0.5249 -0.4524  0.4499
11821TIP3   OH235415   2.483   6.611   6.027 -0.4504 -0.0781 -0.1155
11821TIP3    H135416   2.406   6.572   5.985 -1.1352  0.9279  0.2043
11821TIP3    H235417   2.484   6.571   6.114  0.0500 -0.9555 -0.5178
11822TIP3   OH235418   4.993   7.414   1.979 -0.1873 -0.2902  0.5247
11822TIP3    H135419   5.006   7.330   1.934 -0.3467  0.3609 -0.7608
11822TIP3    H235420   4.898   7.419   1.991 -0.1381 -0.5059  1.0425
11823TIP3   OH235421   7.378   4.662   1.481 -0.5803  0.1805 -0.0993
11823TIP3    H135422   7.310   4.601   1.509 -0.6773 -0.1283 -0.9890
11823TIP3    H235423   7.407   4.704   1.561 -2.5722  1.1008  0.1649
11824TIP3   OH235424   2.045   1.460   0.235  0.1916  0.5424  0.0256
11824TIP3    H135425   1.980   1.438   0.303  0.1481 -0.5826 -0.3610
11824TIP3    H235426   2.090   1.537   0.269  0.1537  0.0075  1.3265
11825TIP3   OH235427   0.164   4.365   0.894  0.0536 -0.6529 -0.0499
11825TIP3    H135428   0.146   4.375   0.987 -1.2017 -0.9375 -0.2548
11825TIP3    H235429   0.145   4.451   0.856  1.5458 -0.2427  0.0973
11826TIP3   OH235430   6.334   0.575   0.957 -0.2687  0.0993 -0.6129
11826TIP3    H135431   6.355   0.562   0.865  0.6063  0.1480 -0.4244
11826TIP3    H235432   6.414   0.611   0.996 -1.3178  2.1152 -0.2569
11827TIP3   OH235433   7.719   2.534   0.470  0.5759 -0.3965  0.1367
11827TIP3    H135434   7.806   2.572   0.465 -0.6438  2.9173  2.0022
11827TIP3    H235435   7.663   2.596   0.422 -1.0839 -1.2717  0.8919
11828TIP3   OH235436   4.934   0.950   5.986  0.0192 -0.2206 -0.2695
11828TIP3    H135437   4.850   0.928   6.025 -0.6737  2.5291 -0.0803
11828TIP3    H235438   4.998   0.935   6.056 -0.5744 -0.2674  0.2618
11829TIP3   OH235439   1.271   3.555   0.743 -0.0746  0.0872 -0.0460
11829TIP3    H135440   1.354   3.529   0.783  0.6455  1.1914 -0.7956
11829TIP3    H235441   1.208   3.489   0.773  1.1230 -0.9078  0.3115
11830TIP3   OH235442   4.802   5.391   5.979  0.0748  0.0608  0.1933
11830TIP3    H135443   4.856   5.448   6.034  0.2328  0.3969 -0.3166
11830TIP3    H235444   4.725   5.372   6.033  0.0993  0.6128  0.4210
11831TIP3   OH235445   4.191   6.635   5.795  0.3454  0.4542  0.2308
11831TIP3    H135446   4.260   6.697   5.820  0.4090 -0.6280  2.8586
11831TIP3    H235447   4.238   6.562   5.756  0.2683  1.9980 -2.9443
11832TIP3   OH235448   2.341   4.243   6.256  0.2144  0.0267  0.4434
11832TIP3    H135449   2.362   4.187   6.182  0.3031  0.0695  0.4359
11832TIP3    H235450   2.370   4.195   6.333 -0.6015 -0.3691  0.5117
11833TIP3   OH235451   2.735   6.674   5.840  0.0849 -0.7536  0.1125
11833TIP3    H135452   2.665   6.651   5.902 -0.0145 -0.7323  0.0085
11833TIP3    H235453   2.719   6.617   5.765  0.6058 -1.2582  0.3783
11834TIP3   OH235454   7.607   2.076   1.833  0.0113  0.2398  0.2355
11834TIP3    H135455   7.531   2.082   1.890  1.1134 -2.0175  2.0331
11834TIP3    H235456   7.572   2.040   1.751 -0.6676 -2.1327  1.5198
11835TIP3   OH235457   7.313   2.327   0.815 -0.4264 -0.8011 -0.4971
11835TIP3    H135458   7.364   2.248   0.833  0.8957  0.3947  1.1984
11835TIP3    H235459   7.379   2.394   0.794 -1.4082  0.2807 -0.2271
11836TIP3   OH235460   4.671   6.509   6.158 -0.3874  0.3017  0.1073
11836TIP3    H135461   4.630   6.526   6.243  2.0164  1.4965  1.0847
11836TIP3    H235462   4.700   6.418   6.164 -0.8258  0.1722  0.2972
11837TIP3   OH235463   6.588   3.689   1.169 -0.0325  0.3485 -0.0480
11837TIP3    H135464   6.544   3.624   1.223  1.3756 -0.5049  0.0944
11837TIP3    H235465   6.517   3.745   1.136 -0.9942  0.2302  1.7888
11838TIP3   OH235466   4.566   0.337   6.399  0.2842  0.4425 -0.2171
11838TIP3    H135467   4.583   0.348   6.492  0.5891  2.9078 -0.5369
11838TIP3    H235468   4.498   0.269   6.394 -0.9411  1.4860  1.8735
11839TIP3   OH235469   6.362   2.685   2.312  0.4361  0.0119  0.1979
11839TIP3    H135470   6.294   2.629   2.276 -0.0948  0.5832  0.3004
11839TIP3    H235471   6.405   2.631   2.378 -0.1937 -0.2156  0.4268
11840TIP3   OH235472   1.531   1.049   2.116  0.3300  0.3364  0.4251
11840TIP3    H135473   1.486   0.985   2.061  0.8864  2.3081 -2.4202
11840TIP3    H235474   1.464   1.114   2.137  0.9486  1.5069 -1.0483
11841TIP3   OH235475   7.591   1.559   2.104  0.2119  0.3057 -0.1660
11841TIP3    H135476   7.594   1.504   2.182 -1.4550 -1.6841 -1.4565
11841TIP3    H235477   7.504   1.599   2.105  0.0913  0.0749 -1.1435
11842TIP3   OH235478   0.944   2.911   2.562  0.5048 -0.0193  0.0905
11842TIP3    H135479   0.972   2.875   2.477 -2.6650 -0.5252 -0.8165
11842TIP3    H235480   0.932   2.834   2.617  1.2704  0.2153  0.5823
11843TIP3   OH235481   1.510   2.899   1.182 -0.1503 -0.0300 -0.2068
11843TIP3    H135482   1.509   2.985   1.224 -0.1862  0.8662 -1.9917
11843TIP3    H235483   1.603   2.877   1.173 -0.1212  0.2891 -0.6824
11844TIP3   OH235484   4.261   6.435   5.039  0.3985  0.3696 -0.8445
11844TIP3    H135485   4.351   6.419   5.068 -0.3979 -2.7794  0.1021
11844TIP3    H235486   4.209   6.433   5.120 -0.5254  2.3868 -1.3515
11845TIP3   OH235487   3.661   0.008   6.470 -0.4520  0.1975 -0.0082
11845TIP3    H135488   3.586   0.067   6.468 -1.3755 -0.9855 -1.5502
11845TIP3    H235489   3.724   0.047   6.409 -1.0641 -0.3897 -1.0300
11846TIP3   OH235490   3.545   1.663   0.626 -0.4688  0.0218 -0.9374
11846TIP3    H135491   3.601   1.634   0.553  0.0268  0.9280 -0.9129
11846TIP3    H235492   3.474   1.599   0.627  0.5455 -1.1280 -0.9821
11847TIP3   OH235493   5.827   0.260   6.324 -0.0300  0.2422 -0.3123
11847TIP3    H135494   5.775   0.267   6.244 -0.9389  2.1044  0.3968
11847TIP3    H235495   5.894   0.328   6.315  0.2916 -0.0070  0.1930
11848TIP3   OH235496   4.285   0.089   6.014 -0.2724 -0.3648 -0.1746
11848TIP3    H135497   4.197   0.108   5.983 -0.0587 -1.6201 -1.5729
11848TIP3    H235498   4.329   0.174   6.014 -1.4902  0.2776  0.5969
11849TIP3   OH235499   0.953   2.077   1.956  0.1699  0.0579 -0.0709
11849TIP3    H135500   1.040   2.085   1.993 -0.6306  1.8041  1.5215
11849TIP3    H235501   0.968   2.052   1.864  2.2995 -0.1884  0.3198
11850TIP3   OH235502   0.451   3.314   1.778  0.6547 -0.2415 -0.1304
11850TIP3    H135503   0.505   3.368   1.836  1.5612 -0.3970 -0.8231
11850TIP3    H235504   0.441   3.231   1.825 -1.0917  0.6576  1.1257
11851TIP3   OH235505   5.104   1.255   5.700  0.3914  0.2075  0.1656
11851TIP3    H135506   5.143   1.323   5.755  0.0614  0.2260  0.3789
11851TIP3    H235507   5.033   1.220   5.753 -0.3093  0.6344 -0.4869
11852TIP3   OH235508   2.566   5.930   5.390 -0.0682 -0.4440 -0.3828
11852TIP3    H135509   2.615   5.864   5.439  0.4748 -0.6951 -1.2528
11852TIP3    H235510   2.475   5.901   5.396 -0.1772  0.2428  1.5884
11853TIP3   OH235511   2.133   6.391   6.223 -0.1313  0.3186 -0.2564
11853TIP3    H135512   2.122   6.307   6.266 -0.3380 -1.2102 -3.1414
11853TIP3    H235513   2.049   6.406   6.178 -0.5936  2.7515  1.3224
11854TIP3   OH235514   7.529   3.763   0.418  0.3152 -0.0865  0.3415
11854TIP3    H135515   7.573   3.843   0.390  0.2997  0.1066  0.8577
11854TIP3    H235516   7.536   3.704   0.343  2.6917 -0.5716  0.9116
11855TIP3   OH235517   4.763   6.726   6.000 -0.1820 -0.3265  0.4067
11855TIP3    H135518   4.751   6.796   6.064  0.6806 -0.3251  0.5669
11855TIP3    H235519   4.734   6.647   6.047 -1.0481 -0.1015  0.2627
11856TIP3   OH235520   2.132   2.874   1.071  0.0954  0.2825  0.0153
11856TIP3    H135521   2.102   2.871   0.980 -2.3428 -0.2578  0.7935
11856TIP3    H235522   2.137   2.967   1.092  0.2184  0.3994 -0.5192
11857TIP3   OH235523   7.029   2.686   1.849 -0.8602 -0.0292 -0.0114
11857TIP3    H135524   6.973   2.616   1.816  0.7378 -0.9388 -0.9008
11857TIP3    H235525   7.114   2.670   1.806 -0.0968  1.6426  0.8387
11858TIP3   OH235526   2.606   6.562   5.259  0.7986  0.0386 -0.4177
11858TIP3    H135527   2.680   6.508   5.289  0.0932 -0.1432  1.0630
11858TIP3    H235528   2.627   6.649   5.292  0.2005 -0.0819  0.2887
11859TIP3   OH235529   6.589   2.286   0.008 -0.0781 -0.2343  0.4808
11859TIP3    H135530   6.604   2.378   0.030 -1.2820  0.9073 -3.0653
11859TIP3    H235531   6.677   2.252  -0.012  0.4570 -0.0824  2.4656
11860TIP3   OH235532   6.643   0.397   5.030 -0.1069  0.0498 -0.2487
11860TIP3    H135533   6.684   0.380   4.946  0.5185 -1.0890  0.2736
11860TIP3    H235534   6.554   0.424   5.009  0.1878  0.2230 -1.2876
11861TIP3   OH235535   6.363   0.211   5.442  0.4020  0.1346  0.2320
11861TIP3    H135536   6.337   0.192   5.532  0.9590  0.7138  0.5218
11861TIP3    H235537   6.303   0.280   5.413  1.7543  1.6755  0.9993
11862TIP3   OH235538   0.487   2.086   1.410 -0.8456  0.2721 -0.1286
11862TIP3    H135539   0.448   2.010   1.366 -1.1553  0.9083 -0.9618
11862TIP3    H235540   0.546   2.123   1.344  1.9649 -1.2467  1.4340
11863TIP3   OH235541   1.176   2.107   0.632  0.1623 -0.0961  0.5029
11863TIP3    H135542   1.191   2.038   0.567  0.2402  1.0895 -0.7514
11863TIP3    H235543   1.241   2.174   0.612 -0.9629  1.0694  0.6862
11864TIP3   OH235544   2.472   5.413   6.274 -0.5112  0.3924  0.3558
11864TIP3    H135545   2.542   5.358   6.238 -0.0401 -0.7034  2.8904
11864TIP3    H235546   2.398   5.401   6.214  1.0491  0.5732 -1.6363
11865TIP3   OH235547   1.710   4.137   0.488  0.5079  0.7049  0.2639
11865TIP3    H135548   1.752   4.088   0.417 -0.6014  0.2541 -0.0961
11865TIP3    H235549   1.635   4.180   0.446  0.2011  0.9383  1.0424
11866TIP3   OH235550   2.392   3.408   0.731 -0.0509  0.6147 -0.6329
11866TIP3    H135551   2.314   3.352   0.728  0.0616  0.5209 -2.2842
11866TIP3    H235552   2.460   3.352   0.767 -0.2584  0.0715 -1.0671
11867TIP3   OH235553   0.393   2.421   0.148 -0.3826 -0.4727  0.1616
11867TIP3    H135554   0.308   2.426   0.192 -0.6662  0.2433 -0.4541
11867TIP3    H235555   0.430   2.338   0.177 -0.9930 -0.4628  0.9818
11868TIP3   OH235556   2.485   7.297   6.406  0.2096  0.0264  0.0798
11868TIP3    H135557   2.524   7.249   6.479  0.3932  1.2755  0.8196
11868TIP3    H235558   2.514   7.250   6.328 -0.2141 -1.4924  0.8146
11869TIP3   OH235559   3.954  -0.009   6.248  0.4401 -0.1362 -0.5841
11869TIP3    H135560   3.937   0.063   6.309  1.0335 -0.4381 -0.0577
11869TIP3    H235561   3.969   0.034   6.163 -2.4604  0.1822 -0.9924
11870TIP3   OH235562   0.019   1.782   0.209  0.4421  0.6647 -0.3046
11870TIP3    H135563   0.056   1.869   0.192 -0.8552  0.9825 -1.5547
11870TIP3    H235564  -0.058   1.777   0.153 -0.8179 -0.4147  1.4569
11871TIP3   OH235565   3.123   6.341   6.131  0.3236 -0.4573 -0.0317
11871TIP3    H135566   3.157   6.431   6.123  0.3169 -0.5333 -1.0821
11871TIP3    H235567   3.098   6.333   6.223 -2.6593  1.7005 -0.5636
11872TIP3   OH235568   7.565   3.650   0.173  0.1641 -0.3651  0.0703
11872TIP3    H135569   7.504   3.582   0.143 -1.3129  0.8710  0.1975
11872TIP3    H235570   7.617   3.671   0.096 -0.3192 -0.6619 -0.3412
11873TIP3   OH235571   0.178   3.089   0.082 -0.5507 -0.0819 -0.1372
11873TIP3    H135572   0.193   3.020   0.147  0.0980 -2.3544 -2.6395
11873TIP3    H235573   0.252   3.148   0.092 -0.0008 -0.8776  0.5889
11874TIP3   OH235574   1.181   3.082   0.934  0.2078 -0.4148  0.4749
11874TIP3    H135575   1.274   3.107   0.932 -0.5720  2.8458  1.9951
11874TIP3    H235576   1.167   3.048   1.022 -0.0784 -0.8215  0.2749
11875TIP3   OH235577   0.328   1.904   1.750 -0.3968 -1.0757 -0.5170
11875TIP3    H135578   0.410   1.889   1.703 -0.4816  0.2214 -1.1010
11875TIP3    H235579   0.327   1.838   1.819  1.9369 -0.0010  0.5733
11876TIP3   OH235580   6.564   1.458   1.839 -0.4871 -0.2566 -0.2141
11876TIP3    H135581   6.515   1.469   1.758  1.3066 -0.6250 -1.3731
11876TIP3    H235582   6.534   1.529   1.896 -2.2874 -0.4405 -0.9138
11877TIP3   OH235583   7.564   2.314   1.637 -0.0777 -0.1802  0.8172
11877TIP3    H135584   7.614   2.296   1.558  0.7164 -1.1471  1.5193
11877TIP3    H235585   7.552   2.228   1.678 -2.0435  0.0649  0.8309
11878TIP3   OH235586   4.422   6.604   6.003 -0.1611  0.2546  0.3223
11878TIP3    H135587   4.497   6.550   6.027 -0.5182 -0.2157  0.3720
11878TIP3    H235588   4.361   6.594   6.075 -0.0156  1.1407  0.5820
11879TIP3   OH235589   6.775   3.966   2.908 -0.0361 -0.5610 -0.2776
11879TIP3    H135590   6.763   3.876   2.937  0.9480 -1.1885 -1.7652
11879TIP3    H235591   6.845   4.000   2.964  0.4845 -1.1324 -0.5808
11880TIP3   OH235592   1.442   0.677   2.881 -0.2740 -0.4923  0.2821
11880TIP3    H135593   1.391   0.652   2.958 -0.7336  0.9839  0.4553
11880TIP3    H235594   1.396   0.752   2.844  1.0418  0.0352 -0.3176
11881TIP3   OH235595   1.089   0.579   1.903 -0.2045  0.5360 -0.6453
11881TIP3    H135596   1.031   0.655   1.904 -0.8390  0.0687  1.0240
11881TIP3    H235597   1.029   0.504   1.903  0.4005  0.0531 -0.8792
11882TIP3   OH235598   7.386   4.056   1.210  0.4816 -0.5431 -0.1297
11882TIP3    H135599   7.400   4.005   1.130  0.4778 -0.4689 -0.1768
11882TIP3    H235600   7.367   3.989   1.277 -2.2188 -0.4748 -0.7550
11883TIP3   OH235601   5.750   2.059   0.568  1.0700 -0.4175 -0.4062
11883TIP3    H135602   5.759   2.145   0.526  0.6811  0.6618  1.6231
11883TIP3    H235603   5.659   2.034   0.553  0.7982  0.1919  0.1684
11884TIP3   OH235604   3.929   4.637   5.505  0.9426  0.9960  0.1643
11884TIP3    H135605   3.909   4.731   5.506 -1.9382  0.4435  0.3205
11884TIP3    H235606   3.848   4.596   5.536  2.0629 -1.5632 -0.2190
11885TIP3   OH235607   5.950   2.364   0.596  0.1673  0.9078 -0.3857
11885TIP3    H135608   6.018   2.298   0.584 -1.5387 -1.1956  1.2155
11885TIP3    H235609   5.883   2.341   0.531 -1.3440 -0.1752  1.5363
11886TIP3   OH235610   1.296   2.624   0.047  0.2868  0.0704 -0.0684
11886TIP3    H135611   1.238   2.617   0.123  0.4091  1.0604  0.1196
11886TIP3    H235612   1.237   2.620  -0.029 -0.0154  0.8593  0.1189
11887TIP3   OH235613   2.485   4.418   0.334 -0.2393 -0.0820  0.0344
11887TIP3    H135614   2.538   4.341   0.356  0.8494  0.7396  0.3441
11887TIP3    H235615   2.415   4.384   0.279  0.0222 -1.3537  0.4621
11888TIP3   OH235616   6.784   0.286   4.814  0.2625  0.0730  0.6438
11888TIP3    H135617   6.725   0.274   4.739  0.1575  2.0052  0.3897
11888TIP3    H235618   6.865   0.319   4.775  0.7787 -0.4864  1.2292
11889TIP3   OH235619   5.433   2.360   6.328  0.3174  0.3889  0.1166
11889TIP3    H135620   5.506   2.365   6.390  0.0396  0.9839  0.3982
11889TIP3    H235621   5.374   2.430   6.355 -0.5440 -0.3401  0.1146
11890TIP3   OH235622   2.978   7.233   5.902  0.1653 -0.3724 -0.1506
11890TIP3    H135623   3.025   7.154   5.928  0.5254 -0.1107 -0.0006
11890TIP3    H235624   2.970   7.285   5.982 -2.3122 -1.3807  0.3018
11891TIP3   OH235625   6.004   0.172   5.575  0.2446  0.1058  1.1426
11891TIP3    H135626   5.995   0.085   5.536 -0.9095  0.4595  0.5826
11891TIP3    H235627   6.092   0.173   5.611  0.6023 -0.9708  0.3411
11892TIP3   OH235628   0.629   2.678   0.734  0.6174  0.2292 -0.2485
11892TIP3    H135629   0.609   2.766   0.702  2.3186  0.8454  0.3000
11892TIP3    H235630   0.724   2.670   0.722  0.7108 -0.9230  1.1876
11893TIP3   OH235631   1.058   3.278   1.476  0.5426  0.0087  0.5362
11893TIP3    H135632   0.997   3.205   1.470 -0.7231  0.8887  2.3795
11893TIP3    H235633   1.135   3.242   1.521 -0.1417 -0.1443  1.5805
11894TIP3   OH235634   2.787   1.827   0.200  0.6446  0.6049  0.0126
11894TIP3    H135635   2.732   1.759   0.160  1.3445 -0.0758  0.2019
11894TIP3    H235636   2.729   1.903   0.206 -0.1491  0.0318 -0.2082
11895TIP3   OH235637   0.089   2.524   0.768  0.2269  0.0562 -0.1782
11895TIP3    H135638   0.173   2.570   0.764  0.1942  0.0451 -1.5321
11895TIP3    H235639   0.030   2.579   0.716 -0.3467 -0.4398 -0.0573
11896TIP3   OH235640   7.610   0.142   4.885  0.0732  0.1823 -0.1863
11896TIP3    H135641   7.602   0.223   4.934 -0.6569 -0.3589  0.6051
11896TIP3    H235642   7.690   0.101   4.919  1.8559  1.7384 -2.3599
11897TIP3   OH235643   1.804   2.378   2.565 -0.1029  0.4749  0.3419
11897TIP3    H135644   1.769   2.463   2.591  0.9105  0.9936  0.0238
11897TIP3    H235645   1.728   2.320   2.565 -0.7940  1.3698  0.5973
11898TIP3   OH235646   1.742   5.668   2.872  0.2410  0.0356 -0.1204
11898TIP3    H135647   1.686   5.613   2.928 -0.1194  1.0331  0.5210
11898TIP3    H235648   1.756   5.615   2.793 -0.8853 -0.5886  0.0799
11899TIP3   OH235649   1.342   2.313   1.447  0.0072  0.2529 -0.4656
11899TIP3    H135650   1.424   2.271   1.421  0.1604 -1.5882  2.8046
11899TIP3    H235651   1.367   2.375   1.515 -0.9090  2.1856 -1.8281
11900TIP3   OH235652   5.066   0.283   5.209  0.1174  0.2311  0.3282
11900TIP3    H135653   5.041   0.345   5.140  1.3310  0.9928  0.5566
11900TIP3    H235654   5.161   0.292   5.216 -0.0706  0.7848  2.6956
11901TIP3   OH235655   5.577   3.969   6.173  0.1106  0.0820  0.7869
11901TIP3    H135656   5.633   3.900   6.208 -0.6801 -0.3636  1.1828
11901TIP3    H235657   5.537   4.009   6.250 -2.1606 -1.3519  0.3908
11902TIP3   OH235658   2.186   4.095   0.726 -0.4409 -0.4677 -0.3300
11902TIP3    H135659   2.235   4.024   0.768 -0.7642 -0.5720 -0.1181
11902TIP3    H235660   2.122   4.121   0.792  2.5098  3.0493  1.3054
11903TIP3   OH235661   2.205   2.508   2.529  0.4853 -0.8433  0.0629
11903TIP3    H135662   2.284   2.560   2.516  0.3379 -0.1250  1.8593
11903TIP3    H235663   2.217   2.467   2.615 -0.8390 -1.1573  0.1106
11904TIP3   OH235664   0.485   3.327   1.476  0.7268 -0.5304 -0.3755
11904TIP3    H135665   0.481   3.330   1.572  0.5812  2.2622 -0.4207
11904TIP3    H235666   0.394   3.316   1.449  0.6534 -0.3612 -0.2036
11905TIP3   OH235667   0.238   3.230   0.660 -0.3677  0.2852  0.2142
11905TIP3    H135668   0.218   3.307   0.713 -0.9562  1.6461 -1.9095
11905TIP3    H235669   0.321   3.252   0.617 -1.5522  0.6509 -1.9818
11906TIP3   OH235670   6.777   0.097   6.462  0.0849 -0.5204  0.4667
11906TIP3    H135671   6.863   0.066   6.434 -0.1744  1.1042 -2.3242
11906TIP3    H235672   6.717   0.068   6.393 -1.0943  0.9716  0.8291
11907TIP3   OH235673   3.829   2.567   0.199 -0.3236 -0.4454 -0.3917
11907TIP3    H135674   3.803   2.655   0.228  0.2848 -0.3219 -0.2133
11907TIP3    H235675   3.832   2.574   0.103 -1.6661 -0.6700 -0.4667
11908TIP3   OH235676   3.415   2.808   2.459 -0.1369 -0.5754 -0.2341
11908TIP3    H135677   3.365   2.741   2.412  2.4859 -2.8256  0.0606
11908TIP3    H235678   3.466   2.851   2.391  0.6449 -1.1116  0.0128
11909TIP3   OH235679   0.171   2.558   1.420 -0.4009 -0.7734 -0.0757
11909TIP3    H135680   0.081   2.529   1.436 -0.8373 -0.6016 -2.0892
11909TIP3    H235681   0.165   2.610   1.340  1.5648 -1.1450 -0.4728
11910TIP3   OH235682   2.587   2.907   0.102  0.3107 -0.3243  0.2584
11910TIP3    H135683   2.600   2.963   0.026  1.1821  1.5966  1.7778
11910TIP3    H235684   2.656   2.933   0.163 -1.1078 -0.9884  2.2000
11911TIP3   OH235685   0.499   4.259   0.573  0.1631 -0.2613  0.5806
11911TIP3    H135686   0.575   4.233   0.522 -0.9051 -1.2920 -0.5105
11911TIP3    H235687   0.436   4.290   0.508 -0.5839  0.0054  1.4259
11912TIP3   OH235688   3.185   7.210   6.397 -0.4343 -0.2130 -0.3314
11912TIP3    H135689   3.238   7.133   6.418 -0.4262  0.3651  1.8613
11912TIP3    H235690   3.119   7.213   6.466 -0.9692  1.2523 -0.8939
11913TIP3   OH235691   3.702   3.564   0.752  0.1167  0.0720 -0.3540
11913TIP3    H135692   3.777   3.564   0.693 -0.1984 -1.4202 -0.7567
11913TIP3    H235693   3.658   3.647   0.733  1.0692  0.4799 -0.8489
11914TIP3   OH235694   2.492   2.534   0.403 -0.0889 -0.2188 -0.1019
11914TIP3    H135695   2.492   2.445   0.366  3.2798 -0.4166  0.1799
11914TIP3    H235696   2.493   2.591   0.326 -0.9252 -0.4469 -0.2875
11915TIP3   OH235697   6.582   1.325   5.503 -0.4533  0.3331  0.5010
11915TIP3    H135698   6.500   1.307   5.458 -0.7304  1.7336  0.4394
11915TIP3    H235699   6.586   1.420   5.510  0.9318  0.2572  0.9407
11916TIP3   OH235700   0.391   2.030   2.884  0.1836  0.5422  0.3546
11916TIP3    H135701   0.323   2.096   2.872  0.2727  0.4552 -0.6996
11916TIP3    H235702   0.367   1.959   2.823  0.1501 -0.3459  1.3864
11917TIP3   OH235703   6.178   1.549   4.813 -0.1493 -0.3796  0.4176
11917TIP3    H135704   6.139   1.468   4.846  0.2271 -0.3854  0.8520
11917TIP3    H235705   6.110   1.615   4.823 -0.3530 -0.5763  0.3403
11918TIP3   OH235706   1.009   2.909   0.783 -0.8598 -0.0035 -0.1654
11918TIP3    H135707   1.083   2.959   0.818  0.2278 -1.3765 -0.4915
11918TIP3    H235708   0.966   2.970   0.722 -0.3297  0.9875  0.4444
11919TIP3   OH235709   1.229   2.402   2.935 -0.4402 -0.1566 -0.2543
11919TIP3    H135710   1.169   2.475   2.951  1.0333  0.8935  0.6283
11919TIP3    H235711   1.316   2.439   2.951  0.4322 -1.7201 -1.2552
11920TIP3   OH235712   2.008   2.034   2.791  0.9226 -0.0368 -0.1379
11920TIP3    H135713   2.013   2.080   2.708  0.3996  0.6355  0.2022
11920TIP3    H235714   2.047   2.094   2.855 -0.0161  0.0522  0.3569
11921TIP3   OH235715   6.698   0.639   5.853  0.4655 -0.2010  0.3355
11921TIP3    H135716   6.678   0.701   5.922  0.4468 -0.0424  0.1876
11921TIP3    H235717   6.623   0.580   5.850  0.4683 -0.2111  0.4519
11922TIP3   OH235718   0.781   5.449   5.633 -0.2384  0.1591 -0.5287
11922TIP3    H135719   0.750   5.538   5.620 -0.3432  0.0278 -1.1786
11922TIP3    H235720   0.835   5.454   5.712  1.0492  1.1269 -1.4361
11923TIP3   OH235721   7.087   0.839   3.849 -0.6741  0.5663 -0.0721
11923TIP3    H135722   7.083   0.881   3.763 -2.6284  1.3356  0.3536
11923TIP3    H235723   7.095   0.746   3.830  1.6746  0.9337 -1.0495
11924TIP3   OH235724   0.806   5.280   0.567  0.2912  0.7728  0.3650
11924TIP3    H135725   0.817   5.375   0.574  0.4480  0.8292 -0.6821
11924TIP3    H235726   0.890   5.248   0.536 -0.6080  0.5915 -1.9743
11925TIP3   OH235727   3.242   3.722   0.481  0.1558 -0.8833  0.0001
11925TIP3    H135728   3.190   3.645   0.504  0.1953 -1.2930 -1.2299
11925TIP3    H235729   3.195   3.762   0.408  0.8450 -0.5033 -0.2414
11926TIP3   OH235730   0.964   0.494   4.006 -0.4951 -0.8461 -0.1061
11926TIP3    H135731   1.002   0.539   4.081  0.7047 -0.8849 -0.6753
11926TIP3    H235732   1.039   0.457   3.960 -1.2468 -1.1044 -1.1378
11927TIP3   OH235733   0.917   4.561   0.141  0.3058 -0.3029 -0.0466
11927TIP3    H135734   0.933   4.632   0.080  0.7567  0.0746  0.5087
11927TIP3    H235735   0.822   4.545   0.136  0.1572  0.5387  0.0560
11928TIP3   OH235736   1.013   1.723   0.334  0.1552 -0.1383 -0.2774
11928TIP3    H135737   1.028   1.782   0.260  1.7180 -1.8843 -1.3789
11928TIP3    H235738   1.010   1.636   0.296 -2.8171 -0.7889  1.2522
11929TIP3   OH235739   7.136   0.113   3.623  0.0809  0.4876 -0.3524
11929TIP3    H135740   7.060   0.168   3.602  1.0759  1.2521 -2.1263
11929TIP3    H235741   7.182   0.104   3.539  1.7673 -0.2357  0.6284
11930TIP3   OH235742   4.330   4.175   0.536  0.2795 -0.2083 -0.4045
11930TIP3    H135743   4.295   4.163   0.624 -0.6035 -3.1523 -1.1178
11930TIP3    H235744   4.257   4.212   0.486  0.5257  0.6584 -0.1503
11931TIP3   OH235745   1.585   1.986   1.340  0.3917  0.0039 -0.0417
11931TIP3    H135746   1.497   1.987   1.303  0.8522  0.6253 -1.1388
11931TIP3    H235747   1.608   1.893   1.344  0.5628 -0.0396 -1.8584
11932TIP3   OH235748   5.352   0.801   5.872 -0.2508  0.3446 -0.1607
11932TIP3    H135749   5.292   0.791   5.799  0.3515 -3.0330 -0.2673
11932TIP3    H235750   5.349   0.717   5.917  1.0280  1.6511  2.4318
11933TIP3   OH235751   2.264   0.779   4.251 -0.4663  0.0384  0.4176
11933TIP3    H135752   2.197   0.843   4.277 -0.7509  0.6432 -1.7344
11933TIP3    H235753   2.309   0.820   4.177  1.2714 -1.0410  0.8360
11934TIP3   OH235754   3.277   0.598   0.044 -0.0892 -0.7485 -0.1090
11934TIP3    H135755   3.328   0.554   0.111  1.9497  1.0290 -0.4155
11934TIP3    H235756   3.220   0.530   0.008  0.2404 -2.1878  2.0024
11935TIP3   OH235757   2.833   2.460   0.966 -0.7659  0.1491  0.3216
11935TIP3    H135758   2.813   2.496   0.880 -0.0402  1.4600  0.6783
11935TIP3    H235759   2.748   2.441   1.005 -1.0972 -0.4064 -0.6565
11936TIP3   OH235760   2.474   5.945   4.685  0.3539 -0.8513 -0.0402
11936TIP3    H135761   2.398   5.999   4.663  0.3220 -0.7671  0.2843
11936TIP3    H235762   2.497   5.901   4.602 -0.6140 -1.5930  0.0808
11937TIP3   OH235763   2.801   2.371   2.330 -0.0985  0.2026  0.1240
11937TIP3    H135764   2.840   2.321   2.402 -2.5310  1.2660  2.2429
11937TIP3    H235765   2.766   2.304   2.271  0.5376 -0.6536  0.6980
11938TIP3   OH235766   2.116   3.101   1.706 -0.2603  0.4594  0.1336
11938TIP3    H135767   2.084   3.146   1.784  0.3145  0.8481  0.1508
11938TIP3    H235768   2.158   3.170   1.654 -2.6999  0.6618 -1.6550
11939TIP3   OH235769   1.418   6.748   2.350 -0.5618 -0.0936 -0.4423
11939TIP3    H135770   1.421   6.843   2.361  0.6363  0.0368 -1.8584
11939TIP3    H235771   1.326   6.730   2.328 -0.9362  0.6502  0.4655
11940TIP3   OH235772   4.142   4.482   5.405  0.0055  0.1048 -0.0920
11940TIP3    H135773   4.063   4.527   5.433 -1.6817 -3.0680  0.4345
11940TIP3    H235774   4.119   4.440   5.321  2.1105  1.7114 -1.5391
11941TIP3   OH235775   2.394   3.871   3.061  0.8647 -0.1654  0.1066
11941TIP3    H135776   2.321   3.855   3.002 -0.1935 -1.2842  1.6710
11941TIP3    H235777   2.352   3.896   3.144  2.2276 -1.1852  1.1285
11942TIP3   OH235778   4.413   2.197   4.931 -0.3393 -0.2089 -0.4328
11942TIP3    H135779   4.492   2.191   4.878 -0.1687 -0.9187 -0.1043
11942TIP3    H235780   4.376   2.283   4.909 -0.0839 -0.3446 -1.4214
11943TIP3   OH235781   7.163   4.592   0.359  0.0690  0.1484  0.4908
11943TIP3    H135782   7.198   4.647   0.289  1.9895 -0.6497  0.7986
11943TIP3    H235783   7.069   4.584   0.339  0.1711  1.7559 -0.7324
11944TIP3   OH235784   1.378   4.143   0.194  0.1835  0.0684  0.2552
11944TIP3    H135785   1.350   4.219   0.245  2.2689 -0.1431  1.8194
11944TIP3    H235786   1.350   4.068   0.246  1.0899 -0.1735  0.4041
11945TIP3   OH235787   4.547   1.028   5.433  0.2995  0.3818 -0.0199
11945TIP3    H135788   4.549   1.079   5.352 -0.1945  0.4632  0.0204
11945TIP3    H235789   4.638   1.003   5.447  0.0982 -1.5960 -1.8757
   7.90000   7.44819   6.45032   0.00000   0.00000  -2.63333   0.00000  -2.63333  -3.72410
