Title t= 232.00000 step= 116000
19942
    1ASP      N    1   2.081   2.478   2.613
    1ASP    HT1    2   2.079   2.394   2.551
    1ASP    HT2    3   2.142   2.461   2.695
    1ASP    HT3    4   2.117   2.557   2.555
    1ASP     CA    5   1.932   2.498   2.656
    1ASP     HA    6   1.949   2.555   2.747
    1ASP     CB    7   1.860   2.576   2.550
    1ASP    HB1    8   1.824   2.513   2.465
    1ASP    HB2    9   1.921   2.660   2.512
    1ASP     CG   10   1.738   2.644   2.615
    1ASP    OD1   11   1.655   2.689   2.539
    1ASP    OD2   12   1.727   2.648   2.740
    1ASP      C   13   1.873   2.362   2.705
    1ASP      O   14   1.942   2.267   2.734
    2ALA      N   15   1.739   2.353   2.722
    2ALA     HN   16   1.692   2.438   2.701
    2ALA     CA   17   1.669   2.230   2.761
    2ALA     HA   18   1.736   2.145   2.761
    2ALA     CB   19   1.608   2.242   2.899
    2ALA    HB1   20   1.565   2.146   2.934
    2ALA    HB2   21   1.530   2.321   2.902
    2ALA    HB3   22   1.688   2.262   2.974
    2ALA      C   23   1.564   2.206   2.666
    2ALA      O   24   1.488   2.295   2.633
    3ASP      N   25   1.563   2.078   2.615
    3ASP     HN   26   1.637   2.012   2.629
    3ASP     CA   27   1.464   2.026   2.520
    3ASP     HA   28   1.443   2.099   2.443
    3ASP     CB   29   1.524   1.899   2.451
    3ASP    HB1   30   1.451   1.856   2.378
    3ASP    HB2   31   1.541   1.815   2.522
    3ASP     CG   32   1.659   1.923   2.387
    3ASP    OD1   33   1.755   1.847   2.410
    3ASP    OD2   34   1.669   2.028   2.314
    3ASP      C   35   1.336   1.990   2.594
    3ASP      O   36   1.318   1.965   2.710
    4GLY      N   37   1.223   1.991   2.522
    4GLY     HN   38   1.238   1.998   2.423
    4GLY     CA   39   1.086   1.972   2.569
    4GLY    HA1   40   1.019   2.003   2.491
    4GLY    HA2   41   1.082   2.042   2.651
    4GLY      C   42   1.049   1.827   2.617
    4GLY      O   43   1.134   1.739   2.606
    5PRO      N   44   0.926   1.799   2.675
    5PRO     CD   45   0.825   1.896   2.693
    5PRO    HD1   46   0.799   1.940   2.594
    5PRO    HD2   47   0.857   1.986   2.749
    5PRO     CA   48   0.876   1.670   2.714
    5PRO     HA   49   0.932   1.662   2.806
    5PRO     CB   50   0.728   1.682   2.733
    5PRO    HB1   51   0.694   1.614   2.814
    5PRO    HB2   52   0.679   1.668   2.635
    5PRO     CG   53   0.717   1.828   2.779
    5PRO    HG1   54   0.613   1.868   2.775
    5PRO    HG2   55   0.746   1.822   2.886
    5PRO      C   56   0.903   1.554   2.628
    5PRO      O   57   0.901   1.563   2.504
    6GLY      N   58   0.925   1.433   2.689
    6GLY     HN   59   0.928   1.427   2.788
    6GLY     CA   60   0.927   1.307   2.623
    6GLY    HA1   61   0.994   1.237   2.671
    6GLY    HA2   62   0.949   1.315   2.518
    6GLY      C   63   0.794   1.240   2.618
    6GLY      O   64   0.691   1.294   2.651
    7ASP      N   65   0.799   1.115   2.575
    7ASP     HN   66   0.890   1.079   2.556
    7ASP     CA   67   0.690   1.026   2.546
    7ASP     HA   68   0.600   1.078   2.575
    7ASP     CB   69   0.691   0.983   2.398
    7ASP    HB1   70   0.759   0.901   2.365
    7ASP    HB2   71   0.708   1.071   2.332
    7ASP     CG   72   0.548   0.944   2.361
    7ASP    OD1   73   0.529   0.846   2.283
    7ASP    OD2   74   0.451   1.011   2.405
    7ASP      C   75   0.717   0.905   2.631
    7ASP      O   76   0.834   0.872   2.652
    8PRO      N   77   0.622   0.841   2.704
    8PRO     CD   78   0.483   0.880   2.704
    8PRO    HD1   79   0.422   0.806   2.649
    8PRO    HD2   80   0.463   0.986   2.676
    8PRO     CA   81   0.657   0.757   2.819
    8PRO     HA   82   0.737   0.815   2.864
    8PRO     CB   83   0.517   0.743   2.888
    8PRO    HB1   84   0.510   0.715   2.995
    8PRO    HB2   85   0.463   0.660   2.838
    8PRO     CG   86   0.440   0.866   2.854
    8PRO    HG1   87   0.332   0.843   2.859
    8PRO    HG2   88   0.466   0.955   2.914
    8PRO      C   89   0.715   0.628   2.782
    8PRO      O   90   0.820   0.585   2.831
    9ASP      N   91   0.657   0.554   2.692
    9ASP     HN   92   0.580   0.588   2.638
    9ASP     CA   93   0.698   0.417   2.664
    9ASP     HA   94   0.746   0.376   2.752
    9ASP     CB   95   0.572   0.325   2.640
    9ASP    HB1   96   0.611   0.224   2.618
    9ASP    HB2   97   0.520   0.374   2.555
    9ASP     CG   98   0.486   0.318   2.765
    9ASP    OD1   99   0.376   0.257   2.750
    9ASP    OD2  100   0.521   0.363   2.878
    9ASP      C  101   0.799   0.417   2.554
    9ASP      O  102   0.844   0.310   2.515
   10ALA      N  103   0.848   0.531   2.498
   10ALA     HN  104   0.799   0.615   2.521
   10ALA     CA  105   0.954   0.530   2.400
   10ALA     HA  106   0.931   0.482   2.306
   10ALA     CB  107   1.004   0.672   2.361
   10ALA    HB1  108   0.933   0.716   2.287
   10ALA    HB2  109   1.102   0.674   2.310
   10ALA    HB3  110   1.013   0.737   2.451
   10ALA      C  111   1.078   0.461   2.439
   10ALA      O  112   1.122   0.461   2.551
   11GLY      N  113   1.143   0.391   2.343
   11GLY     HN  114   1.125   0.376   2.246
   11GLY     CA  115   1.277   0.334   2.363
   11GLY    HA1  116   1.344   0.400   2.415
   11GLY    HA2  117   1.312   0.309   2.264
   11GLY      C  118   1.273   0.198   2.431
   11GLY    OT1  119   1.189   0.104   2.393
   11GLY    OT2  120   1.349   0.180   2.527
   12LIT    LIT  121   3.580   5.314   2.005
   13LIT    LIT  122   1.477   3.192   2.274
   14LIT    LIT  123   6.325   3.715   2.440
   15LIT    LIT  124   0.347   2.114   2.400
   16LIT    LIT  125   5.296   5.537   4.291
   17LIT    LIT  126   3.872   4.466   4.315
   18LIT    LIT  127   4.521   3.286   0.299
   19LIT    LIT  128   4.508   5.825   2.343
   20LIT    LIT  129   3.345   1.603   4.126
   21LIT    LIT  130   3.833   0.238   1.386
   22LIT    LIT  131   5.793   3.924   1.287
   23LIT    LIT  132   2.855   3.452   2.032
   24LIT    LIT  133   4.606   2.656   2.954
   25LIT    LIT  134   4.685   1.758   5.061
   26LIT    LIT  135   2.440   0.279   3.348
   27LIT    LIT  136   0.716   0.753   3.899
   28LIT    LIT  137   0.939   1.944   3.872
   29LIT    LIT  138   2.964   4.595   0.503
   30LIT    LIT  139   2.119   4.215   2.455
   31LIT    LIT  140   6.095   0.255   0.069
   32LIT    LIT  141   4.462   5.976   1.535
   33LIT    LIT  142   3.864   0.471   0.527
   34CLA    CLA  143   2.753   3.458   2.494
   35CLA    CLA  144   2.327   1.957   4.922
   36CLA    CLA  145   5.682   3.810   2.381
   37CLA    CLA  146   5.394   4.869   2.360
   38CLA    CLA  147   4.433   5.531   1.027
   39CLA    CLA  148   4.351   4.551   3.826
   40CLA    CLA  149   0.551   3.488   2.677
   41CLA    CLA  150   1.499   3.498   0.622
   42CLA    CLA  151   5.367   3.681   0.170
   43CLA    CLA  152   5.705   0.235   5.080
   44CLA    CLA  153   4.777   1.446   4.588
   45CLA    CLA  154   0.183   5.335   0.706
   46CLA    CLA  155   4.287   3.285   0.289
   47CLA    CLA  156   2.285   0.130   3.262
   48CLA    CLA  157   2.009   4.545   3.975
   49CLA    CLA  158   1.405   1.960   3.830
   50CLA    CLA  159   1.803   2.897   0.977
   51CLA    CLA  160   4.115   0.262   1.766
   52TIP3   OH2  161   1.193   4.452   5.073
   52TIP3    H1  162   1.213   4.421   5.161
   52TIP3    H2  163   1.235   4.389   5.015
   53TIP3   OH2  164   3.950   2.335   0.389
   53TIP3    H1  165   3.976   2.422   0.358
   53TIP3    H2  166   3.872   2.351   0.441
   54TIP3   OH2  167   1.901   1.566   4.695
   54TIP3    H1  168   1.921   1.655   4.666
   54TIP3    H2  169   1.915   1.568   4.790
   55TIP3   OH2  170   5.146   1.735   2.454
   55TIP3    H1  171   5.118   1.817   2.413
   55TIP3    H2  172   5.078   1.672   2.431
   56TIP3   OH2  173   3.283   5.369   1.638
   56TIP3    H1  174   3.264   5.461   1.622
   56TIP3    H2  175   3.276   5.359   1.733
   57TIP3   OH2  176   2.229   2.548   1.519
   57TIP3    H1  177   2.254   2.640   1.525
   57TIP3    H2  178   2.288   2.511   1.453
   58TIP3   OH2  179   1.373   4.696   2.483
   58TIP3    H1  180   1.293   4.730   2.523
   58TIP3    H2  181   1.440   4.709   2.550
   59TIP3   OH2  182   1.530   0.452   4.560
   59TIP3    H1  183   1.470   0.378   4.561
   59TIP3    H2  184   1.554   0.465   4.651
   60TIP3   OH2  185   3.287   4.296   1.932
   60TIP3    H1  186   3.231   4.357   1.981
   60TIP3    H2  187   3.233   4.267   1.859
   61TIP3   OH2  188   5.300   3.113   1.321
   61TIP3    H1  189   5.391   3.139   1.328
   61TIP3    H2  190   5.276   3.133   1.230
   62TIP3   OH2  191   0.255   3.076   3.820
   62TIP3    H1  192   0.293   3.084   3.907
   62TIP3    H2  193   0.328   3.052   3.764
   63TIP3   OH2  194   1.989   4.445   4.262
   63TIP3    H1  195   1.983   4.532   4.302
   63TIP3    H2  196   1.997   4.462   4.168
   64TIP3   OH2  197   0.563   2.542   0.953
   64TIP3    H1  198   0.655   2.515   0.957
   64TIP3    H2  199   0.565   2.636   0.970
   65TIP3   OH2  200   4.067   1.461   4.118
   65TIP3    H1  201   4.062   1.557   4.118
   65TIP3    H2  202   4.020   1.435   4.038
   66TIP3   OH2  203   5.896   2.588   0.928
   66TIP3    H1  204   5.976   2.607   0.977
   66TIP3    H2  205   5.925   2.582   0.837
   67TIP3   OH2  206   2.216   0.667   0.884
   67TIP3    H1  207   2.206   0.589   0.830
   67TIP3    H2  208   2.134   0.715   0.873
   68TIP3   OH2  209   1.719   1.136   4.015
   68TIP3    H1  210   1.802   1.089   4.021
   68TIP3    H2  211   1.658   1.084   4.068
   69TIP3   OH2  212   2.238   5.299   0.521
   69TIP3    H1  213   2.321   5.322   0.564
   69TIP3    H2  214   2.173   5.305   0.591
   70TIP3   OH2  215   0.091   1.391   1.809
   70TIP3    H1  216   0.162   1.391   1.873
   70TIP3    H2  217   0.083   1.483   1.782
   71TIP3   OH2  218   3.096   1.566   4.803
   71TIP3    H1  219   3.128   1.654   4.825
   71TIP3    H2  220   3.001   1.574   4.802
   72TIP3   OH2  221   4.414   2.857   0.508
   72TIP3    H1  222   4.393   2.814   0.590
   72TIP3    H2  223   4.509   2.853   0.501
   73TIP3   OH2  224   3.836   5.645   1.931
   73TIP3    H1  225   3.817   5.737   1.949
   73TIP3    H2  226   3.860   5.642   1.839
   74TIP3   OH2  227   2.537   1.470   1.842
   74TIP3    H1  228   2.614   1.416   1.856
   74TIP3    H2  229   2.568   1.543   1.788
   75TIP3   OH2  230   0.704   1.032   1.973
   75TIP3    H1  231   0.727   1.124   1.986
   75TIP3    H2  232   0.611   1.028   1.995
   76TIP3   OH2  233   0.111   5.771   2.692
   76TIP3    H1  234   0.036   5.711   2.694
   76TIP3    H2  235   0.154   5.752   2.609
   77TIP3   OH2  236   3.270   3.089   1.826
   77TIP3    H1  237   3.180   3.100   1.797
   77TIP3    H2  238   3.317   3.162   1.787
   78TIP3   OH2  239   0.040   5.441   0.441
   78TIP3    H1  240   0.100   5.396   0.501
   78TIP3    H2  241  -0.039   5.456   0.493
   79TIP3   OH2  242   2.971   4.594   2.672
   79TIP3    H1  243   2.901   4.613   2.735
   79TIP3    H2  244   3.049   4.635   2.709
   80TIP3   OH2  245   1.056   1.640   4.670
   80TIP3    H1  246   0.974   1.600   4.700
   80TIP3    H2  247   1.110   1.645   4.749
   81TIP3   OH2  248   1.158   5.788   0.573
   81TIP3    H1  249   1.080   5.775   0.518
   81TIP3    H2  250   1.134   5.861   0.631
   82TIP3   OH2  251   4.671   0.101   1.714
   82TIP3    H1  252   4.728   0.165   1.671
   82TIP3    H2  253   4.661   0.031   1.649
   83TIP3   OH2  254   4.517   0.479   4.259
   83TIP3    H1  255   4.540   0.519   4.343
   83TIP3    H2  256   4.554   0.538   4.194
   84TIP3   OH2  257   2.391   2.282   3.725
   84TIP3    H1  258   2.383   2.243   3.812
   84TIP3    H2  259   2.314   2.254   3.677
   85TIP3   OH2  260   0.884   5.620   1.695
   85TIP3    H1  261   0.796   5.654   1.682
   85TIP3    H2  262   0.921   5.612   1.607
   86TIP3   OH2  263   4.805   2.831   0.904
   86TIP3    H1  264   4.884   2.876   0.934
   86TIP3    H2  265   4.764   2.893   0.844
   87TIP3   OH2  266   2.389   3.234   3.050
   87TIP3    H1  267   2.300   3.200   3.056
   87TIP3    H2  268   2.393   3.303   3.117
   88TIP3   OH2  269   2.678   0.366   3.654
   88TIP3    H1  270   2.725   0.373   3.738
   88TIP3    H2  271   2.723   0.429   3.597
   89TIP3   OH2  272   5.852   5.292   0.946
   89TIP3    H1  273   5.892   5.298   1.032
   89TIP3    H2  274   5.768   5.339   0.955
   90TIP3   OH2  275   1.426   0.658   4.415
   90TIP3    H1  276   1.476   0.591   4.461
   90TIP3    H2  277   1.486   0.732   4.408
   91TIP3   OH2  278   5.929   3.418   0.751
   91TIP3    H1  279   5.947   3.411   0.844
   91TIP3    H2  280   5.861   3.485   0.744
   92TIP3   OH2  281   4.047   4.373   2.195
   92TIP3    H1  282   3.972   4.420   2.230
   92TIP3    H2  283   4.121   4.433   2.205
   93TIP3   OH2  284   6.034   1.581   0.533
   93TIP3    H1  285   6.086   1.612   0.458
   93TIP3    H2  286   6.065   1.491   0.548
   94TIP3   OH2  287   4.017   4.928   2.853
   94TIP3    H1  288   4.011   4.857   2.918
   94TIP3    H2  289   4.090   4.903   2.797
   95TIP3   OH2  290   4.724   0.947   3.755
   95TIP3    H1  291   4.644   0.935   3.705
   95TIP3    H2  292   4.774   0.867   3.739
   96TIP3   OH2  293   0.411   0.484   0.515
   96TIP3    H1  294   0.383   0.574   0.501
   96TIP3    H2  295   0.505   0.489   0.528
   97TIP3   OH2  296   0.318  -0.011   4.857
   97TIP3    H1  297   0.402   0.016   4.894
   97TIP3    H2  298   0.260   0.064   4.873
   98TIP3   OH2  299   0.222   4.840   4.741
   98TIP3    H1  300   0.213   4.781   4.816
   98TIP3    H2  301   0.132   4.858   4.713
   99TIP3   OH2  302   5.239   3.858   1.045
   99TIP3    H1  303   5.304   3.799   1.085
   99TIP3    H2  304   5.167   3.800   1.019
  100TIP3   OH2  305   3.193   1.899   3.921
  100TIP3    H1  306   3.142   1.968   3.879
  100TIP3    H2  307   3.187   1.825   3.861
  101TIP3   OH2  308   4.168   1.218   1.856
  101TIP3    H1  309   4.078   1.191   1.871
  101TIP3    H2  310   4.208   1.220   1.943
  102TIP3   OH2  311   5.752   4.460   0.543
  102TIP3    H1  312   5.675   4.460   0.600
  102TIP3    H2  313   5.717   4.451   0.455
  103TIP3   OH2  314   4.009   5.153   1.369
  103TIP3    H1  315   4.054   5.134   1.287
  103TIP3    H2  316   3.927   5.104   1.364
  104TIP3   OH2  317   0.733   5.357   2.140
  104TIP3    H1  318   0.691   5.298   2.078
  104TIP3    H2  319   0.669   5.428   2.153
  105TIP3   OH2  320   1.977   4.988   2.327
  105TIP3    H1  321   1.920   4.938   2.269
  105TIP3    H2  322   2.003   5.064   2.275
  106TIP3   OH2  323   0.136   4.374   2.646
  106TIP3    H1  324   0.210   4.414   2.691
  106TIP3    H2  325   0.099   4.445   2.592
  107TIP3   OH2  326   3.564   4.106   3.946
  107TIP3    H1  327   3.544   4.147   4.030
  107TIP3    H2  328   3.657   4.126   3.931
  108TIP3   OH2  329   3.846   5.933   3.132
  108TIP3    H1  330   3.811   5.953   3.219
  108TIP3    H2  331   3.919   5.994   3.121
  109TIP3   OH2  332   2.132   3.078   3.073
  109TIP3    H1  333   2.079   3.004   3.044
  109TIP3    H2  334   2.084   3.155   3.044
  110TIP3   OH2  335   3.202   0.107   0.689
  110TIP3    H1  336   3.231   0.194   0.716
  110TIP3    H2  337   3.229   0.100   0.598
  111TIP3   OH2  338   4.263   4.848   4.927
  111TIP3    H1  339   4.304   4.795   4.859
  111TIP3    H2  340   4.170   4.847   4.906
  112TIP3   OH2  341   5.481   5.585   3.206
  112TIP3    H1  342   5.484   5.490   3.195
  112TIP3    H2  343   5.418   5.614   3.140
  113TIP3   OH2  344   2.961   5.602   3.297
  113TIP3    H1  345   2.900   5.676   3.288
  113TIP3    H2  346   2.905   5.526   3.313
  114TIP3   OH2  347   3.567   5.764   0.512
  114TIP3    H1  348   3.590   5.710   0.588
  114TIP3    H2  349   3.477   5.739   0.490
  115TIP3   OH2  350   5.606   4.790   1.446
  115TIP3    H1  351   5.517   4.826   1.451
  115TIP3    H2  352   5.598   4.700   1.477
  116TIP3   OH2  353   4.364   2.385   3.151
  116TIP3    H1  354   4.353   2.467   3.102
  116TIP3    H2  355   4.331   2.317   3.092
  117TIP3   OH2  356   5.933   1.367   4.770
  117TIP3    H1  357   5.932   1.325   4.856
  117TIP3    H2  358   5.931   1.294   4.708
  118TIP3   OH2  359   4.127   5.574   1.768
  118TIP3    H1  360   4.112   5.618   1.684
  118TIP3    H2  361   4.189   5.631   1.814
  119TIP3   OH2  362   5.841   3.107   2.104
  119TIP3    H1  363   5.853   3.045   2.033
  119TIP3    H2  364   5.894   3.072   2.176
  120TIP3   OH2  365   4.815   4.815   4.074
  120TIP3    H1  366   4.844   4.746   4.134
  120TIP3    H2  367   4.876   4.809   4.000
  121TIP3   OH2  368   6.049   0.476   0.363
  121TIP3    H1  369   6.092   0.539   0.305
  121TIP3    H2  370   6.096   0.394   0.349
  122TIP3   OH2  371   6.314   2.685   0.851
  122TIP3    H1  372   6.266   2.732   0.783
  122TIP3    H2  373   6.403   2.676   0.815
  123TIP3   OH2  374   2.343   5.482   3.563
  123TIP3    H1  375   2.323   5.510   3.474
  123TIP3    H2  376   2.436   5.463   3.562
  124TIP3   OH2  377   3.746   2.890   3.118
  124TIP3    H1  378   3.732   2.912   3.210
  124TIP3    H2  379   3.750   2.975   3.073
  125TIP3   OH2  380   1.418   1.692   0.728
  125TIP3    H1  381   1.499   1.640   0.734
  125TIP3    H2  382   1.361   1.639   0.672
  126TIP3   OH2  383   3.981   3.850   3.866
  126TIP3    H1  384   4.017   3.904   3.796
  126TIP3    H2  385   4.057   3.813   3.910
  127TIP3   OH2  386   2.113   3.335   2.580
  127TIP3    H1  387   2.180   3.271   2.600
  127TIP3    H2  388   2.158   3.402   2.528
  128TIP3   OH2  389   5.325   2.243   1.374
  128TIP3    H1  390   5.240   2.285   1.381
  128TIP3    H2  391   5.380   2.290   1.437
  129TIP3   OH2  392   4.071   3.107   3.997
  129TIP3    H1  393   3.982   3.106   4.032
  129TIP3    H2  394   4.095   3.200   3.995
  130TIP3   OH2  395   4.370   0.059   1.740
  130TIP3    H1  396   4.450   0.111   1.742
  130TIP3    H2  397   4.300   0.123   1.738
  131TIP3   OH2  398   2.078   2.130   0.354
  131TIP3    H1  399   2.063   2.148   0.262
  131TIP3    H2  400   2.169   2.099   0.358
  132TIP3   OH2  401   3.933   1.939   0.925
  132TIP3    H1  402   3.930   1.921   0.831
  132TIP3    H2  403   4.010   1.994   0.937
  133TIP3   OH2  404   3.400   1.922   0.076
  133TIP3    H1  405   3.437   2.010   0.080
  133TIP3    H2  406   3.451   1.877   0.009
  134TIP3   OH2  407   4.180   0.232   3.799
  134TIP3    H1  408   4.271   0.205   3.788
  134TIP3    H2  409   4.185   0.312   3.851
  135TIP3   OH2  410   3.965   2.360   3.794
  135TIP3    H1  411   3.949   2.384   3.702
  135TIP3    H2  412   3.969   2.444   3.840
  136TIP3   OH2  413   3.840   1.529   4.654
  136TIP3    H1  414   3.822   1.489   4.739
  136TIP3    H2  415   3.923   1.575   4.666
  137TIP3   OH2  416   3.187   1.711   3.735
  137TIP3    H1  417   3.242   1.655   3.681
  137TIP3    H2  418   3.131   1.651   3.784
  138TIP3   OH2  419   2.290   5.701   3.042
  138TIP3    H1  420   2.204   5.735   3.069
  138TIP3    H2  421   2.275   5.666   2.955
  139TIP3   OH2  422   1.028   0.864   4.525
  139TIP3    H1  423   1.005   0.771   4.522
  139TIP3    H2  424   1.123   0.865   4.532
  140TIP3   OH2  425   0.706   2.538   2.364
  140TIP3    H1  426   0.624   2.540   2.413
  140TIP3    H2  427   0.689   2.480   2.290
  141TIP3   OH2  428   3.620   4.852   1.538
  141TIP3    H1  429   3.588   4.933   1.498
  141TIP3    H2  430   3.715   4.858   1.534
  142TIP3   OH2  431   4.538   2.942   1.943
  142TIP3    H1  432   4.549   2.863   1.891
  142TIP3    H2  433   4.617   2.948   1.996
  143TIP3   OH2  434   4.805   5.774   1.393
  143TIP3    H1  435   4.725   5.729   1.366
  143TIP3    H2  436   4.868   5.756   1.323
  144TIP3   OH2  437   0.456   0.391   2.290
  144TIP3    H1  438   0.402   0.336   2.346
  144TIP3    H2  439   0.431   0.369   2.201
  145TIP3   OH2  440   4.491   3.775   4.058
  145TIP3    H1  441   4.416   3.833   4.068
  145TIP3    H2  442   4.510   3.745   4.147
  146TIP3   OH2  443   4.203   3.400   1.072
  146TIP3    H1  444   4.271   3.339   1.044
  146TIP3    H2  445   4.190   3.382   1.165
  147TIP3   OH2  446   4.434   3.064   2.470
  147TIP3    H1  447   4.507   3.066   2.532
  147TIP3    H2  448   4.371   3.004   2.511
  148TIP3   OH2  449   1.142   1.168   1.375
  148TIP3    H1  450   1.053   1.200   1.357
  148TIP3    H2  451   1.199   1.231   1.330
  149TIP3   OH2  452   4.454   4.691   2.106
  149TIP3    H1  453   4.376   4.689   2.051
  149TIP3    H2  454   4.431   4.639   2.183
  150TIP3   OH2  455   2.023   4.022   5.103
  150TIP3    H1  456   1.983   4.065   5.026
  150TIP3    H2  457   2.036   3.932   5.075
  151TIP3   OH2  458   4.265   2.872   2.566
  151TIP3    H1  459   4.208   2.860   2.642
  151TIP3    H2  460   4.245   2.798   2.510
  152TIP3   OH2  461   3.593   4.058   2.809
  152TIP3    H1  462   3.536   4.054   2.732
  152TIP3    H2  463   3.554   4.124   2.865
  153TIP3   OH2  464   3.750   5.971   4.237
  153TIP3    H1  465   3.818   5.906   4.222
  153TIP3    H2  466   3.668   5.923   4.224
  154TIP3   OH2  467   0.166   3.674   3.077
  154TIP3    H1  468   0.077   3.644   3.095
  154TIP3    H2  469   0.155   3.748   3.018
  155TIP3   OH2  470   1.415   3.471   4.198
  155TIP3    H1  471   1.497   3.423   4.205
  155TIP3    H2  472   1.364   3.424   4.132
  156TIP3   OH2  473   4.346   1.415   3.926
  156TIP3    H1  474   4.341   1.464   4.008
  156TIP3    H2  475   4.322   1.479   3.858
  157TIP3   OH2  476   5.660   5.493   4.565
  157TIP3    H1  477   5.698   5.562   4.618
  157TIP3    H2  478   5.575   5.474   4.606
  158TIP3   OH2  479   2.435   0.363   1.276
  158TIP3    H1  480   2.465   0.432   1.335
  158TIP3    H2  481   2.374   0.312   1.329
  159TIP3   OH2  482   1.845   2.111   0.532
  159TIP3    H1  483   1.808   2.196   0.555
  159TIP3    H2  484   1.902   2.130   0.457
  160TIP3   OH2  485   4.560   1.635   4.750
  160TIP3    H1  486   4.570   1.724   4.718
  160TIP3    H2  487   4.628   1.585   4.704
  161TIP3   OH2  488   4.527   3.438   1.328
  161TIP3    H1  489   4.487   3.417   1.412
  161TIP3    H2  490   4.590   3.368   1.313
  162TIP3   OH2  491   1.092   5.836   2.324
  162TIP3    H1  492   1.028   5.799   2.264
  162TIP3    H2  493   1.166   5.861   2.268
  163TIP3   OH2  494   3.309   4.237   1.094
  163TIP3    H1  495   3.367   4.298   1.141
  163TIP3    H2  496   3.255   4.198   1.163
  164TIP3   OH2  497   5.141   0.126   3.129
  164TIP3    H1  498   5.143   0.217   3.101
  164TIP3    H2  499   5.120   0.077   3.049
  165TIP3   OH2  500   4.057   0.605   4.287
  165TIP3    H1  501   4.137   0.553   4.283
  165TIP3    H2  502   4.078   0.685   4.238
  166TIP3   OH2  503   3.633   0.816   5.116
  166TIP3    H1  504   3.626   0.910   5.133
  166TIP3    H2  505   3.713   0.806   5.065
  167TIP3   OH2  506   5.033   1.039   0.159
  167TIP3    H1  507   5.111   1.091   0.140
  167TIP3    H2  508   4.965   1.104   0.176
  168TIP3   OH2  509   1.373   0.244   0.068
  168TIP3    H1  510   1.323   0.164   0.088
  168TIP3    H2  511   1.420   0.264   0.148
  169TIP3   OH2  512   4.400   3.854   1.709
  169TIP3    H1  513   4.405   3.826   1.800
  169TIP3    H2  514   4.439   3.782   1.660
  170TIP3   OH2  515   4.248   0.148   4.273
  170TIP3    H1  516   4.235   0.108   4.359
  170TIP3    H2  517   4.210   0.085   4.212
  171TIP3   OH2  518   0.207   2.676   2.573
  171TIP3    H1  519   0.191   2.637   2.659
  171TIP3    H2  520   0.227   2.768   2.592
  172TIP3   OH2  521   0.983   5.554   1.160
  172TIP3    H1  522   0.902   5.512   1.132
  172TIP3    H2  523   1.051   5.516   1.103
  173TIP3   OH2  524   0.558   4.922   3.814
  173TIP3    H1  525   0.611   4.906   3.736
  173TIP3    H2  526   0.506   5.000   3.792
  174TIP3   OH2  527   2.930   5.422   4.067
  174TIP3    H1  528   2.943   5.338   4.023
  174TIP3    H2  529   3.016   5.464   4.065
  175TIP3   OH2  530   2.590   5.452   2.744
  175TIP3    H1  531   2.572   5.407   2.827
  175TIP3    H2  532   2.530   5.412   2.682
  176TIP3   OH2  533   6.314   5.866   0.591
  176TIP3    H1  534   6.233   5.856   0.541
  176TIP3    H2  535   6.298   5.818   0.672
  177TIP3   OH2  536   6.084   0.031   3.883
  177TIP3    H1  537   6.003   0.064   3.921
  177TIP3    H2  538   6.063  -0.057   3.853
  178TIP3   OH2  539   2.508   4.538   2.717
  178TIP3    H1  540   2.502   4.615   2.773
  178TIP3    H2  541   2.418   4.509   2.705
  179TIP3   OH2  542   4.028   0.479   1.099
  179TIP3    H1  543   4.104   0.422   1.086
  179TIP3    H2  544   4.065   0.567   1.109
  180TIP3   OH2  545   6.084   5.717   3.760
  180TIP3    H1  546   5.997   5.708   3.721
  180TIP3    H2  547   6.144   5.717   3.686
  181TIP3   OH2  548   5.532   5.138   1.970
  181TIP3    H1  549   5.559   5.063   2.022
  181TIP3    H2  550   5.559   5.214   2.022
  182TIP3   OH2  551   1.682   5.904   4.643
  182TIP3    H1  552   1.708   5.875   4.556
  182TIP3    H2  553   1.746   5.865   4.703
  183TIP3   OH2  554   4.395   1.566   2.836
  183TIP3    H1  555   4.397   1.657   2.867
  183TIP3    H2  556   4.449   1.518   2.898
  184TIP3   OH2  557   2.587   1.193   1.548
  184TIP3    H1  558   2.557   1.212   1.460
  184TIP3    H2  559   2.569   1.273   1.598
  185TIP3   OH2  560   2.024   0.756   2.978
  185TIP3    H1  561   1.976   0.687   3.023
  185TIP3    H2  562   1.958   0.799   2.923
  186TIP3   OH2  563   1.442   2.985   0.086
  186TIP3    H1  564   1.395   2.921   0.033
  186TIP3    H2  565   1.456   3.060   0.028
  187TIP3   OH2  566   3.899   1.244   1.119
  187TIP3    H1  567   3.903   1.306   1.047
  187TIP3    H2  568   3.807   1.238   1.142
  188TIP3   OH2  569   3.641   4.614   0.630
  188TIP3    H1  570   3.590   4.591   0.552
  188TIP3    H2  571   3.633   4.709   0.637
  189TIP3   OH2  572   3.126   0.966   0.241
  189TIP3    H1  573   3.068   0.975   0.316
  189TIP3    H2  574   3.182   1.044   0.244
  190TIP3   OH2  575   3.514   2.945   2.774
  190TIP3    H1  576   3.566   2.965   2.852
  190TIP3    H2  577   3.550   3.000   2.705
  191TIP3   OH2  578   5.120   0.769   0.129
  191TIP3    H1  579   5.143   0.798   0.041
  191TIP3    H2  580   5.095   0.849   0.175
  192TIP3   OH2  581   6.280   2.435   0.629
  192TIP3    H1  582   6.308   2.470   0.544
  192TIP3    H2  583   6.359   2.438   0.683
  193TIP3   OH2  584   5.167   5.056   1.910
  193TIP3    H1  585   5.215   5.134   1.881
  193TIP3    H2  586   5.091   5.052   1.852
  194TIP3   OH2  587   2.449   2.599   2.815
  194TIP3    H1  588   2.487   2.646   2.890
  194TIP3    H2  589   2.387   2.537   2.855
  195TIP3   OH2  590   3.211   1.549   2.477
  195TIP3    H1  591   3.139   1.489   2.456
  195TIP3    H2  592   3.227   1.534   2.570
  196TIP3   OH2  593   0.912   3.416   2.574
  196TIP3    H1  594   0.873   3.362   2.505
  196TIP3    H2  595   0.904   3.506   2.540
  197TIP3   OH2  596   5.701   1.972   0.632
  197TIP3    H1  597   5.631   2.015   0.584
  197TIP3    H2  598   5.685   1.996   0.724
  198TIP3   OH2  599   3.607   2.247   4.093
  198TIP3    H1  600   3.644   2.331   4.064
  198TIP3    H2  601   3.631   2.185   4.025
  199TIP3   OH2  602   2.411   0.849   0.828
  199TIP3    H1  603   2.393   0.931   0.874
  199TIP3    H2  604   2.336   0.793   0.849
  200TIP3   OH2  605   0.018   1.505   2.754
  200TIP3    H1  606  -0.069   1.543   2.755
  200TIP3    H2  607   0.054   1.524   2.841
  201TIP3   OH2  608   5.011   5.301   4.732
  201TIP3    H1  609   5.036   5.342   4.815
  201TIP3    H2  610   4.961   5.369   4.686
  202TIP3   OH2  611   1.346   3.734   3.181
  202TIP3    H1  612   1.263   3.768   3.214
  202TIP3    H2  613   1.379   3.805   3.125
  203TIP3   OH2  614   0.829   3.542   4.659
  203TIP3    H1  615   0.841   3.452   4.628
  203TIP3    H2  616   0.765   3.534   4.730
  204TIP3   OH2  617   2.783   2.567   0.527
  204TIP3    H1  618   2.715   2.609   0.474
  204TIP3    H2  619   2.738   2.493   0.569
  205TIP3   OH2  620   0.251   4.899   0.901
  205TIP3    H1  621   0.334   4.939   0.927
  205TIP3    H2  622   0.186   4.968   0.913
  206TIP3   OH2  623   1.934   2.116   4.610
  206TIP3    H1  624   1.981   2.183   4.561
  206TIP3    H2  625   1.970   2.121   4.698
  207TIP3   OH2  626   0.192   4.068   4.593
  207TIP3    H1  627   0.117   4.081   4.651
  207TIP3    H2  628   0.194   4.147   4.539
  208TIP3   OH2  629   5.618   1.693   0.760
  208TIP3    H1  630   5.683   1.745   0.806
  208TIP3    H2  631   5.534   1.720   0.797
  209TIP3   OH2  632   1.261   4.988   2.822
  209TIP3    H1  633   1.233   5.076   2.849
  209TIP3    H2  634   1.356   4.996   2.808
  210TIP3   OH2  635   2.432   0.298   2.816
  210TIP3    H1  636   2.411   0.236   2.746
  210TIP3    H2  637   2.524   0.321   2.801
  211TIP3   OH2  638   3.576   0.587   4.739
  211TIP3    H1  639   3.627   0.525   4.791
  211TIP3    H2  640   3.513   0.533   4.692
  212TIP3   OH2  641   1.913   0.248   1.628
  212TIP3    H1  642   1.922   0.153   1.632
  212TIP3    H2  643   1.853   0.270   1.700
  213TIP3   OH2  644   4.442   2.517   5.146
  213TIP3    H1  645   4.499   2.590   5.123
  213TIP3    H2  646   4.419   2.533   5.237
  214TIP3   OH2  647   4.168   1.965   0.063
  214TIP3    H1  648   4.212   1.892   0.105
  214TIP3    H2  649   4.154   2.028   0.134
  215TIP3   OH2  650   5.436   0.947   4.330
  215TIP3    H1  651   5.500   0.875   4.331
  215TIP3    H2  652   5.353   0.905   4.349
  216TIP3   OH2  653   6.261   4.593   1.902
  216TIP3    H1  654   6.212   4.585   1.984
  216TIP3    H2  655   6.315   4.514   1.898
  217TIP3   OH2  656   2.925   2.076   1.899
  217TIP3    H1  657   2.878   2.063   1.981
  217TIP3    H2  658   2.878   2.147   1.855
  218TIP3   OH2  659   5.443   2.480   3.694
  218TIP3    H1  660   5.524   2.437   3.721
  218TIP3    H2  661   5.465   2.573   3.687
  219TIP3   OH2  662   4.654   1.740   4.499
  219TIP3    H1  663   4.714   1.674   4.535
  219TIP3    H2  664   4.703   1.822   4.505
  220TIP3   OH2  665   1.427   1.006   1.127
  220TIP3    H1  666   1.394   0.933   1.181
  220TIP3    H2  667   1.520   1.010   1.147
  221TIP3   OH2  668   5.008   3.113  -0.035
  221TIP3    H1  669   4.935   3.083   0.019
  221TIP3    H2  670   5.086   3.095   0.018
  222TIP3   OH2  671   0.169   4.516   1.116
  222TIP3    H1  672   0.078   4.519   1.147
  222TIP3    H2  673   0.211   4.592   1.156
  223TIP3   OH2  674   3.422   1.601   3.016
  223TIP3    H1  675   3.481   1.619   2.943
  223TIP3    H2  676   3.467   1.636   3.092
  224TIP3   OH2  677   4.982   5.406   3.638
  224TIP3    H1  678   5.024   5.372   3.559
  224TIP3    H2  679   4.888   5.398   3.620
  225TIP3   OH2  680   2.148   5.036   3.843
  225TIP3    H1  681   2.124   5.125   3.867
  225TIP3    H2  682   2.084   4.981   3.888
  226TIP3   OH2  683   5.230   3.365   3.078
  226TIP3    H1  684   5.308   3.404   3.039
  226TIP3    H2  685   5.263   3.288   3.125
  227TIP3   OH2  686   5.010   1.751   4.278
  227TIP3    H1  687   5.080   1.686   4.275
  227TIP3    H2  688   5.039   1.819   4.216
  228TIP3   OH2  689   4.573   2.467   2.929
  228TIP3    H1  690   4.597   2.382   2.965
  228TIP3    H2  691   4.563   2.452   2.835
  229TIP3   OH2  692   3.354   5.308   5.098
  229TIP3    H1  693   3.410   5.380   5.127
  229TIP3    H2  694   3.400   5.229   5.127
  230TIP3   OH2  695   6.185   5.193   1.531
  230TIP3    H1  696   6.197   5.163   1.441
  230TIP3    H2  697   6.225   5.124   1.585
  231TIP3   OH2  698   5.371   3.415   2.074
  231TIP3    H1  699   5.456   3.426   2.117
  231TIP3    H2  700   5.331   3.339   2.117
  232TIP3   OH2  701   3.357   2.325   4.749
  232TIP3    H1  702   3.416   2.289   4.815
  232TIP3    H2  703   3.292   2.256   4.734
  233TIP3   OH2  704   5.361   2.537   4.337
  233TIP3    H1  705   5.290   2.491   4.383
  233TIP3    H2  706   5.321   2.564   4.254
  234TIP3   OH2  707   4.617   0.681   4.098
  234TIP3    H1  708   4.597   0.713   4.009
  234TIP3    H2  709   4.659   0.756   4.141
  235TIP3   OH2  710   1.524   5.271   1.255
  235TIP3    H1  711   1.464   5.331   1.299
  235TIP3    H2  712   1.484   5.255   1.169
  236TIP3   OH2  713   1.445   3.745   4.142
  236TIP3    H1  714   1.356   3.778   4.133
  236TIP3    H2  715   1.434   3.653   4.164
  237TIP3   OH2  716   1.596   3.007   4.961
  237TIP3    H1  717   1.571   2.946   5.030
  237TIP3    H2  718   1.596   2.954   4.881
  238TIP3   OH2  719   3.931   5.656   0.546
  238TIP3    H1  720   3.860   5.637   0.486
  238TIP3    H2  721   3.991   5.583   0.537
  239TIP3   OH2  722   5.613   0.491   4.864
  239TIP3    H1  723   5.622   0.579   4.899
  239TIP3    H2  724   5.661   0.435   4.926
  240TIP3   OH2  725   2.939   1.376   1.584
  240TIP3    H1  726   2.935   1.420   1.668
  240TIP3    H2  727   3.013   1.417   1.538
  241TIP3   OH2  728   4.944   5.930   3.873
  241TIP3    H1  729   4.976   5.986   3.943
  241TIP3    H2  730   4.960   5.980   3.793
  242TIP3   OH2  731   0.422   3.598   0.220
  242TIP3    H1  732   0.427   3.633   0.131
  242TIP3    H2  733   0.404   3.505   0.208
  243TIP3   OH2  734   4.848   0.279   3.148
  243TIP3    H1  735   4.780   0.339   3.120
  243TIP3    H2  736   4.858   0.217   3.076
  244TIP3   OH2  737   2.231   4.571   4.781
  244TIP3    H1  738   2.255   4.638   4.718
  244TIP3    H2  739   2.209   4.620   4.860
  245TIP3   OH2  740   5.853   4.394   5.026
  245TIP3    H1  741   5.915   4.458   4.990
  245TIP3    H2  742   5.852   4.413   5.120
  246TIP3   OH2  743   1.606   0.864   4.395
  246TIP3    H1  744   1.612   0.938   4.456
  246TIP3    H2  745   1.694   0.854   4.361
  247TIP3   OH2  746   1.169   1.830   0.029
  247TIP3    H1  747   1.218   1.754  -0.002
  247TIP3    H2  748   1.172   1.822   0.125
  248TIP3   OH2  749   3.249   4.935   3.959
  248TIP3    H1  750   3.193   4.861   3.979
  248TIP3    H2  751   3.261   4.931   3.864
  249TIP3   OH2  752   0.658   0.349   3.573
  249TIP3    H1  753   0.599   0.378   3.504
  249TIP3    H2  754   0.619   0.383   3.654
  250TIP3   OH2  755   2.700   2.911   4.332
  250TIP3    H1  756   2.637   2.977   4.360
  250TIP3    H2  757   2.751   2.891   4.410
  251TIP3   OH2  758   0.401   2.874   4.996
  251TIP3    H1  759   0.451   2.851   5.075
  251TIP3    H2  760   0.424   2.965   4.979
  252TIP3   OH2  761   1.551   3.883   0.265
  252TIP3    H1  762   1.498   3.925   0.332
  252TIP3    H2  763   1.576   3.799   0.303
  253TIP3   OH2  764   4.584   1.964   3.326
  253TIP3    H1  765   4.644   1.984   3.398
  253TIP3    H2  766   4.581   2.044   3.274
  254TIP3   OH2  767   6.103   5.113   3.111
  254TIP3    H1  768   6.119   5.177   3.181
  254TIP3    H2  769   6.180   5.057   3.112
  255TIP3   OH2  770   3.616   3.068   2.346
  255TIP3    H1  771   3.624   2.974   2.330
  255TIP3    H2  772   3.580   3.104   2.265
  256TIP3   OH2  773   4.205   4.355   4.611
  256TIP3    H1  774   4.244   4.413   4.677
  256TIP3    H2  775   4.241   4.385   4.528
  257TIP3   OH2  776   0.989   3.025   1.845
  257TIP3    H1  777   0.998   3.105   1.793
  257TIP3    H2  778   0.972   3.055   1.934
  258TIP3   OH2  779   3.635   3.619   4.005
  258TIP3    H1  780   3.695   3.557   3.962
  258TIP3    H2  781   3.548   3.590   3.977
  259TIP3   OH2  782   0.869   2.549   2.619
  259TIP3    H1  783   0.903   2.543   2.530
  259TIP3    H2  784   0.806   2.621   2.615
  260TIP3   OH2  785   0.496   0.274   0.751
  260TIP3    H1  786   0.565   0.232   0.803
  260TIP3    H2  787   0.532   0.277   0.662
  261TIP3   OH2  788   3.361   2.492   4.976
  261TIP3    H1  789   3.396   2.580   4.992
  261TIP3    H2  790   3.431   2.433   5.004
  262TIP3   OH2  791   4.501   1.397   2.367
  262TIP3    H1  792   4.539   1.410   2.280
  262TIP3    H2  793   4.409   1.380   2.350
  263TIP3   OH2  794   0.657   4.983   4.499
  263TIP3    H1  795   0.589   4.934   4.546
  263TIP3    H2  796   0.675   4.931   4.421
  264TIP3   OH2  797   4.590   5.863   4.596
  264TIP3    H1  798   4.506   5.822   4.577
  264TIP3    H2  799   4.573   5.919   4.672
  265TIP3   OH2  800   2.840   2.770   1.778
  265TIP3    H1  801   2.786   2.718   1.837
  265TIP3    H2  802   2.893   2.825   1.835
  266TIP3   OH2  803   5.173   4.513   2.250
  266TIP3    H1  804   5.160   4.607   2.260
  266TIP3    H2  805   5.246   4.505   2.189
  267TIP3   OH2  806   0.971   0.768   1.043
  267TIP3    H1  807   1.009   0.832   1.104
  267TIP3    H2  808   1.004   0.794   0.957
  268TIP3   OH2  809   2.059   5.464   2.961
  268TIP3    H1  810   2.062   5.540   2.903
  268TIP3    H2  811   1.969   5.461   2.992
  269TIP3   OH2  812   2.947   3.892   1.184
  269TIP3    H1  813   2.963   3.804   1.217
  269TIP3    H2  814   3.029   3.916   1.140
  270TIP3   OH2  815   2.296   3.842   2.618
  270TIP3    H1  816   2.339   3.874   2.698
  270TIP3    H2  817   2.359   3.862   2.548
  271TIP3   OH2  818   0.917   4.315   0.349
  271TIP3    H1  819   0.870   4.390   0.313
  271TIP3    H2  820   0.995   4.352   0.390
  272TIP3   OH2  821   2.844   4.742   0.453
  272TIP3    H1  822   2.799   4.731   0.369
  272TIP3    H2  823   2.826   4.832   0.478
  273TIP3   OH2  824   1.133   0.733   4.800
  273TIP3    H1  825   1.040   0.708   4.800
  273TIP3    H2  826   1.179   0.653   4.773
  274TIP3   OH2  827   0.388   1.028   0.052
  274TIP3    H1  828   0.308   1.073   0.023
  274TIP3    H2  829   0.374   0.936   0.030
  275TIP3   OH2  830   3.980   2.489   2.203
  275TIP3    H1  831   3.965   2.441   2.121
  275TIP3    H2  832   4.075   2.501   2.206
  276TIP3   OH2  833   1.652   0.232   3.793
  276TIP3    H1  834   1.680   0.208   3.704
  276TIP3    H2  835   1.588   0.301   3.780
  277TIP3   OH2  836   2.073   0.556   3.769
  277TIP3    H1  837   2.028   0.641   3.762
  277TIP3    H2  838   2.032   0.514   3.845
  278TIP3   OH2  839   3.227   1.170   3.681
  278TIP3    H1  840   3.220   1.157   3.586
  278TIP3    H2  841   3.150   1.127   3.717
  279TIP3   OH2  842   3.154   2.852   3.215
  279TIP3    H1  843   3.083   2.903   3.177
  279TIP3    H2  844   3.213   2.917   3.253
  280TIP3   OH2  845   4.577   0.573   4.802
  280TIP3    H1  846   4.493   0.596   4.841
  280TIP3    H2  847   4.601   0.490   4.845
  281TIP3   OH2  848   4.086   0.029   1.994
  281TIP3    H1  849   4.012  -0.021   1.960
  281TIP3    H2  850   4.102   0.096   1.928
  282TIP3   OH2  851   2.380   4.814   4.438
  282TIP3    H1  852   2.425   4.895   4.462
  282TIP3    H2  853   2.345   4.780   4.520
  283TIP3   OH2  854   5.028   5.169   1.316
  283TIP3    H1  855   5.088   5.218   1.373
  283TIP3    H2  856   5.081   5.098   1.281
  284TIP3   OH2  857   1.627   4.874   1.169
  284TIP3    H1  858   1.655   4.862   1.078
  284TIP3    H2  859   1.672   4.953   1.198
  285TIP3   OH2  860   5.795   1.827   2.149
  285TIP3    H1  861   5.750   1.791   2.072
  285TIP3    H2  862   5.751   1.910   2.165
  286TIP3   OH2  863   0.597   4.830   0.247
  286TIP3    H1  864   0.531   4.775   0.289
  286TIP3    H2  865   0.553   4.914   0.234
  287TIP3   OH2  866   2.635   0.396   0.767
  287TIP3    H1  867   2.601   0.473   0.813
  287TIP3    H2  868   2.557   0.355   0.728
  288TIP3   OH2  869   2.008   3.946   1.633
  288TIP3    H1  870   2.042   4.033   1.650
  288TIP3    H2  871   1.989   3.910   1.719
  289TIP3   OH2  872   0.894   1.657   3.082
  289TIP3    H1  873   0.814   1.636   3.035
  289TIP3    H2  874   0.867   1.718   3.150
  290TIP3   OH2  875   0.791   2.158   2.329
  290TIP3    H1  876   0.822   2.207   2.405
  290TIP3    H2  877   0.871   2.121   2.290
  291TIP3   OH2  878   2.275   3.731   1.555
  291TIP3    H1  879   2.314   3.663   1.501
  291TIP3    H2  880   2.218   3.780   1.496
  292TIP3   OH2  881   0.958   1.869   1.005
  292TIP3    H1  882   0.886   1.911   1.051
  292TIP3    H2  883   1.033   1.926   1.021
  293TIP3   OH2  884   1.249   0.491   4.747
  293TIP3    H1  885   1.221   0.461   4.833
  293TIP3    H2  886   1.344   0.485   4.749
  294TIP3   OH2  887   1.383   1.924   1.698
  294TIP3    H1  888   1.405   1.856   1.762
  294TIP3    H2  889   1.467   1.948   1.659
  295TIP3   OH2  890   2.247   2.921   2.258
  295TIP3    H1  891   2.297   3.002   2.250
  295TIP3    H2  892   2.217   2.919   2.349
  296TIP3   OH2  893   1.257   1.700   2.842
  296TIP3    H1  894   1.230   1.711   2.751
  296TIP3    H2  895   1.249   1.787   2.881
  297TIP3   OH2  896   3.480   4.591   2.820
  297TIP3    H1  897   3.407   4.532   2.800
  297TIP3    H2  898   3.462   4.669   2.767
  298TIP3   OH2  899   2.520   4.141   2.527
  298TIP3    H1  900   2.496   4.051   2.547
  298TIP3    H2  901   2.615   4.141   2.523
  299TIP3   OH2  902   1.526   2.516   2.357
  299TIP3    H1  903   1.577   2.581   2.405
  299TIP3    H2  904   1.558   2.432   2.388
  300TIP3   OH2  905   1.846   4.944   2.804
  300TIP3    H1  906   1.914   5.010   2.787
  300TIP3    H2  907   1.837   4.897   2.721
  301TIP3   OH2  908   4.529   4.472   2.283
  301TIP3    H1  909   4.597   4.504   2.224
  301TIP3    H2  910   4.465   4.429   2.225
  302TIP3   OH2  911   5.610   4.816   0.149
  302TIP3    H1  912   5.660   4.776   0.078
  302TIP3    H2  913   5.605   4.749   0.216
  303TIP3   OH2  914   2.444   0.508   3.887
  303TIP3    H1  915   2.477   0.540   3.971
  303TIP3    H2  916   2.487   0.564   3.822
  304TIP3   OH2  917   0.013   3.354   3.826
  304TIP3    H1  918   0.033   3.282   3.766
  304TIP3    H2  919   0.094   3.368   3.875
  305TIP3   OH2  920   5.822   5.125   3.399
  305TIP3    H1  921   5.777   5.106   3.481
  305TIP3    H2  922   5.838   5.040   3.359
  306TIP3   OH2  923   2.225   0.309   2.602
  306TIP3    H1  924   2.256   0.286   2.515
  306TIP3    H2  925   2.240   0.231   2.655
  307TIP3   OH2  926   3.606   2.349   3.202
  307TIP3    H1  927   3.525   2.357   3.151
  307TIP3    H2  928   3.666   2.302   3.145
  308TIP3   OH2  929   3.896   5.480   3.475
  308TIP3    H1  930   3.985   5.492   3.508
  308TIP3    H2  931   3.902   5.405   3.415
  309TIP3   OH2  932   5.662   0.637   3.554
  309TIP3    H1  933   5.734   0.632   3.490
  309TIP3    H2  934   5.596   0.692   3.511
  310TIP3   OH2  935   0.596   4.359   4.423
  310TIP3    H1  936   0.504   4.334   4.414
  310TIP3    H2  937   0.604   4.443   4.378
  311TIP3   OH2  938   2.849   3.006   4.115
  311TIP3    H1  939   2.933   3.025   4.156
  311TIP3    H2  940   2.801   2.955   4.180
  312TIP3   OH2  941   5.627   2.194   1.236
  312TIP3    H1  942   5.678   2.158   1.163
  312TIP3    H2  943   5.654   2.142   1.312
  313TIP3   OH2  944   5.916   2.756   1.263
  313TIP3    H1  945   5.880   2.843   1.245
  313TIP3    H2  946   5.975   2.738   1.189
  314TIP3   OH2  947   3.719   4.531   3.412
  314TIP3    H1  948   3.788   4.503   3.352
  314TIP3    H2  949   3.766   4.563   3.489
  315TIP3   OH2  950   4.399   4.527   3.494
  315TIP3    H1  951   4.490   4.545   3.471
  315TIP3    H2  952   4.395   4.541   3.589
  316TIP3   OH2  953   2.735   5.762   3.262
  316TIP3    H1  954   2.652   5.769   3.216
  316TIP3    H2  955   2.740   5.842   3.315
  317TIP3   OH2  956   2.134   3.442   0.971
  317TIP3    H1  957   2.190   3.512   1.004
  317TIP3    H2  958   2.194   3.381   0.929
  318TIP3   OH2  959   5.822   4.847   4.878
  318TIP3    H1  960   5.761   4.777   4.902
  318TIP3    H2  961   5.828   4.842   4.783
  319TIP3   OH2  962   3.817   0.502   2.674
  319TIP3    H1  963   3.803   0.567   2.743
  319TIP3    H2  964   3.912   0.495   2.667
  320TIP3   OH2  965   1.802   3.589   4.370
  320TIP3    H1  966   1.787   3.648   4.296
  320TIP3    H2  967   1.729   3.606   4.430
  321TIP3   OH2  968   2.992   0.783   0.538
  321TIP3    H1  969   3.014   0.876   0.530
  321TIP3    H2  970   2.901   0.778   0.508
  322TIP3   OH2  971   5.015   2.460   0.580
  322TIP3    H1  972   5.039   2.487   0.669
  322TIP3    H2  973   4.919   2.458   0.581
  323TIP3   OH2  974   1.890   2.632   2.073
  323TIP3    H1  975   1.897   2.653   1.980
  323TIP3    H2  976   1.814   2.681   2.103
  324TIP3   OH2  977   6.070   0.885   3.614
  324TIP3    H1  978   6.006   0.911   3.547
  324TIP3    H2  979   6.017   0.839   3.680
  325TIP3   OH2  980   2.308   4.455   1.530
  325TIP3    H1  981   2.242   4.479   1.465
  325TIP3    H2  982   2.390   4.490   1.495
  326TIP3   OH2  983   1.105   1.555   1.785
  326TIP3    H1  984   1.072   1.642   1.763
  326TIP3    H2  985   1.122   1.514   1.700
  327TIP3   OH2  986   3.179   1.781   0.561
  327TIP3    H1  987   3.098   1.831   0.570
  327TIP3    H2  988   3.222   1.790   0.646
  328TIP3   OH2  989   3.901   4.891   1.502
  328TIP3    H1  990   3.966   4.822   1.521
  328TIP3    H2  991   3.899   4.897   1.407
  329TIP3   OH2  992   4.918   5.895   2.502
  329TIP3    H1  993   4.965   5.813   2.515
  329TIP3    H2  994   4.987   5.961   2.497
  330TIP3   OH2  995   6.009   0.301   5.032
  330TIP3    H1  996   5.933   0.306   5.091
  330TIP3    H2  997   5.978   0.339   4.950
  331TIP3   OH2  998   0.029   3.618   2.259
  331TIP3    H1  999   0.123   3.603   2.245
  331TIP3    H2 1000  -0.008   3.619   2.171
  332TIP3   OH2 1001   0.687   2.911   0.413
  332TIP3    H1 1002   0.605   2.905   0.363
  332TIP3    H2 1003   0.734   2.984   0.373
  333TIP3   OH2 1004   3.417   5.101   1.582
  333TIP3    H1 1005   3.471   5.084   1.660
  333TIP3    H2 1006   3.385   5.190   1.595
  334TIP3   OH2 1007   2.244   5.978   0.264
  334TIP3    H1 1008   2.230   5.903   0.206
  334TIP3    H2 1009   2.267   5.939   0.348
  335TIP3   OH2 1010   3.235   4.466   0.094
  335TIP3    H1 1011   3.269   4.555   0.096
  335TIP3    H2 1012   3.146   4.474   0.130
  336TIP3   OH2 1013   0.886   3.852   2.920
  336TIP3    H1 1014   0.970   3.805   2.916
  336TIP3    H2 1015   0.820   3.782   2.918
  337TIP3   OH2 1016   1.396   0.908   1.480
  337TIP3    H1 1017   1.304   0.923   1.501
  337TIP3    H2 1018   1.422   0.837   1.538
  338TIP3   OH2 1019   5.497   4.926   4.741
  338TIP3    H1 1020   5.518   4.933   4.834
  338TIP3    H2 1021   5.401   4.932   4.737
  339TIP3   OH2 1022   2.015   3.271   4.029
  339TIP3    H1 1023   2.047   3.341   3.973
  339TIP3    H2 1024   2.081   3.264   4.099
  340TIP3   OH2 1025   6.170   4.980   0.989
  340TIP3    H1 1026   6.244   4.937   1.032
  340TIP3    H2 1027   6.102   4.982   1.056
  341TIP3   OH2 1028   3.720   1.511   0.116
  341TIP3    H1 1029   3.791   1.447   0.122
  341TIP3    H2 1030   3.705   1.537   0.207
  342TIP3   OH2 1031   1.300   4.590   1.969
  342TIP3    H1 1032   1.215   4.618   1.936
  342TIP3    H2 1033   1.309   4.633   2.054
  343TIP3   OH2 1034   2.715   0.139   0.638
  343TIP3    H1 1035   2.663   0.218   0.622
  343TIP3    H2 1036   2.664   0.068   0.599
  344TIP3   OH2 1037   1.192   5.276   2.988
  344TIP3    H1 1038   1.100   5.281   3.011
  344TIP3    H2 1039   1.213   5.363   2.953
  345TIP3   OH2 1040   4.637   1.166   0.854
  345TIP3    H1 1041   4.627   1.182   0.761
  345TIP3    H2 1042   4.719   1.210   0.878
  346TIP3   OH2 1043   2.898   4.556   1.395
  346TIP3    H1 1044   2.854   4.572   1.479
  346TIP3    H2 1045   2.916   4.462   1.396
  347TIP3   OH2 1046   6.188   2.832   4.847
  347TIP3    H1 1047   6.253   2.768   4.817
  347TIP3    H2 1048   6.104   2.788   4.836
  348TIP3   OH2 1049   0.580   4.829   3.542
  348TIP3    H1 1050   0.669   4.804   3.565
  348TIP3    H2 1051   0.525   4.783   3.605
  349TIP3   OH2 1052   1.385   3.736   0.791
  349TIP3    H1 1053   1.458   3.690   0.749
  349TIP3    H2 1054   1.423   3.819   0.820
  350TIP3   OH2 1055   1.208   4.837   4.743
  350TIP3    H1 1056   1.183   4.797   4.826
  350TIP3    H2 1057   1.199   4.766   4.679
  351TIP3   OH2 1058   3.531   1.605   2.558
  351TIP3    H1 1059   3.535   1.591   2.463
  351TIP3    H2 1060   3.447   1.566   2.584
  352TIP3   OH2 1061   2.153   0.562   0.621
  352TIP3    H1 1062   2.113   0.475   0.618
  352TIP3    H2 1063   2.142   0.597   0.533
  353TIP3   OH2 1064   4.232   3.751   3.917
  353TIP3    H1 1065   4.300   3.787   3.861
  353TIP3    H2 1066   4.279   3.712   3.990
  354TIP3   OH2 1067   3.569   3.316   1.665
  354TIP3    H1 1068   3.523   3.245   1.620
  354TIP3    H2 1069   3.647   3.331   1.611
  355TIP3   OH2 1070   6.335   1.911   4.546
  355TIP3    H1 1071   6.416   1.867   4.519
  355TIP3    H2 1072   6.265   1.849   4.526
  356TIP3   OH2 1073   3.759   0.146   5.145
  356TIP3    H1 1074   3.680   0.111   5.106
  356TIP3    H2 1075   3.803   0.192   5.073
  357TIP3   OH2 1076   3.755   4.273   3.689
  357TIP3    H1 1077   3.829   4.333   3.690
  357TIP3    H2 1078   3.786   4.198   3.637
  358TIP3   OH2 1079   5.562   1.086   0.140
  358TIP3    H1 1080   5.564   0.991   0.132
  358TIP3    H2 1081   5.549   1.117   0.050
  359TIP3   OH2 1082   1.113   0.628   1.378
  359TIP3    H1 1083   1.046   0.616   1.311
  359TIP3    H2 1084   1.067   0.671   1.450
  360TIP3   OH2 1085   6.018   1.833   2.560
  360TIP3    H1 1086   5.970   1.801   2.484
  360TIP3    H2 1087   5.953   1.841   2.629
  361TIP3   OH2 1088   4.603   4.324   3.025
  361TIP3    H1 1089   4.630   4.291   3.111
  361TIP3    H2 1090   4.677   4.376   2.994
  362TIP3   OH2 1091   0.042   3.907   4.428
  362TIP3    H1 1092   0.094   3.932   4.351
  362TIP3    H2 1093   0.091   3.941   4.502
  363TIP3   OH2 1094   4.483   1.074   2.212
  363TIP3    H1 1095   4.443   1.027   2.286
  363TIP3    H2 1096   4.573   1.088   2.239
  364TIP3   OH2 1097   1.582   1.250   0.237
  364TIP3    H1 1098   1.602   1.244   0.143
  364TIP3    H2 1099   1.488   1.271   0.239
  365TIP3   OH2 1100   3.937   3.836   0.970
  365TIP3    H1 1101   4.029   3.856   0.957
  365TIP3    H2 1102   3.937   3.765   1.034
  366TIP3   OH2 1103   4.819   5.982   4.911
  366TIP3    H1 1104   4.828   5.928   4.989
  366TIP3    H2 1105   4.904   5.977   4.868
  367TIP3   OH2 1106   3.425   4.311   2.379
  367TIP3    H1 1107   3.500   4.297   2.436
  367TIP3    H2 1108   3.461   4.354   2.302
  368TIP3   OH2 1109   3.100   1.189   2.873
  368TIP3    H1 1110   3.011   1.194   2.908
  368TIP3    H2 1111   3.110   1.268   2.820
  369TIP3   OH2 1112   2.115   1.104   2.775
  369TIP3    H1 1113   2.173   1.043   2.728
  369TIP3    H2 1114   2.115   1.071   2.865
  370TIP3   OH2 1115   5.087   1.948   3.389
  370TIP3    H1 1116   5.178   1.921   3.398
  370TIP3    H2 1117   5.038   1.865   3.385
  371TIP3   OH2 1118   2.034   2.538   2.287
  371TIP3    H1 1119   2.089   2.603   2.330
  371TIP3    H2 1120   1.983   2.589   2.224
  372TIP3   OH2 1121   2.992   3.017   2.566
  372TIP3    H1 1122   2.922   2.953   2.552
  372TIP3    H2 1123   3.057   2.997   2.498
  373TIP3   OH2 1124   5.843   5.852   1.636
  373TIP3    H1 1125   5.765   5.885   1.591
  373TIP3    H2 1126   5.809   5.806   1.713
  374TIP3   OH2 1127   0.903   3.557   0.972
  374TIP3    H1 1128   0.843   3.511   0.913
  374TIP3    H2 1129   0.908   3.501   1.049
  375TIP3   OH2 1130   3.824   0.706   2.913
  375TIP3    H1 1131   3.779   0.790   2.902
  375TIP3    H2 1132   3.806   0.681   3.004
  376TIP3   OH2 1133   5.375   2.999   3.002
  376TIP3    H1 1134   5.353   2.906   2.991
  376TIP3    H2 1135   5.396   3.029   2.914
  377TIP3   OH2 1136   1.559   3.704   5.114
  377TIP3    H1 1137   1.532   3.686   5.204
  377TIP3    H2 1138   1.554   3.619   5.069
  378TIP3   OH2 1139   0.503   2.181   3.809
  378TIP3    H1 1140   0.426   2.214   3.763
  378TIP3    H2 1141   0.577   2.217   3.760
  379TIP3   OH2 1142   5.959   4.175   0.528
  379TIP3    H1 1143   5.905   4.188   0.450
  379TIP3    H2 1144   6.032   4.237   0.516
  380TIP3   OH2 1145   2.364   3.104   1.739
  380TIP3    H1 1146   2.314   3.183   1.718
  380TIP3    H2 1147   2.306   3.032   1.714
  381TIP3   OH2 1148   1.051   4.897   3.358
  381TIP3    H1 1149   1.084   4.978   3.319
  381TIP3    H2 1150   0.961   4.890   3.325
  382TIP3   OH2 1151   3.068   3.416   3.601
  382TIP3    H1 1152   3.013   3.490   3.578
  382TIP3    H2 1153   3.015   3.365   3.663
  383TIP3   OH2 1154   6.295   2.385   2.206
  383TIP3    H1 1155   6.335   2.427   2.130
  383TIP3    H2 1156   6.353   2.408   2.279
  384TIP3   OH2 1157   3.054   0.626   4.024
  384TIP3    H1 1158   3.089   0.701   4.070
  384TIP3    H2 1159   3.128   0.591   3.975
  385TIP3   OH2 1160   3.574   4.482   2.166
  385TIP3    H1 1161   3.541   4.485   2.076
  385TIP3    H2 1162   3.654   4.429   2.161
  386TIP3   OH2 1163   1.158   0.364   4.944
  386TIP3    H1 1164   1.072   0.367   4.985
  386TIP3    H2 1165   1.199   0.285   4.979
  387TIP3   OH2 1166   4.763   1.056   4.962
  387TIP3    H1 1167   4.709   0.978   4.966
  387TIP3    H2 1168   4.740   1.098   4.879
  388TIP3   OH2 1169   0.468   3.123   4.451
  388TIP3    H1 1170   0.519   3.111   4.531
  388TIP3    H2 1171   0.518   3.188   4.401
  389TIP3   OH2 1172   0.872   1.304   2.968
  389TIP3    H1 1173   0.912   1.296   3.055
  389TIP3    H2 1174   0.875   1.215   2.933
  390TIP3   OH2 1175   1.934   4.025   3.046
  390TIP3    H1 1176   1.930   3.949   3.104
  390TIP3    H2 1177   1.996   4.084   3.088
  391TIP3   OH2 1178   3.496   5.099   4.135
  391TIP3    H1 1179   3.455   5.016   4.159
  391TIP3    H2 1180   3.483   5.155   4.211
  392TIP3   OH2 1181   3.023   5.544   5.020
  392TIP3    H1 1182   3.114   5.571   5.033
  392TIP3    H2 1183   2.983   5.555   5.106
  393TIP3   OH2 1184   3.270   0.086   4.993
  393TIP3    H1 1185   3.249   0.025   4.922
  393TIP3    H2 1186   3.231   0.169   4.965
  394TIP3   OH2 1187   2.551   2.283   4.028
  394TIP3    H1 1188   2.584   2.194   4.019
  394TIP3    H2 1189   2.461   2.272   4.059
  395TIP3   OH2 1190   2.034   4.016   0.715
  395TIP3    H1 1191   2.021   4.072   0.638
  395TIP3    H2 1192   2.060   3.931   0.678
  396TIP3   OH2 1193   0.464   1.945   0.114
  396TIP3    H1 1194   0.410   1.941   0.035
  396TIP3    H2 1195   0.524   2.018   0.099
  397TIP3   OH2 1196   2.667   5.234   4.379
  397TIP3    H1 1197   2.626   5.284   4.309
  397TIP3    H2 1198   2.749   5.202   4.341
  398TIP3   OH2 1199   5.269   2.354   3.944
  398TIP3    H1 1200   5.184   2.385   3.913
  398TIP3    H2 1201   5.297   2.291   3.877
  399TIP3   OH2 1202   4.179   3.890   0.037
  399TIP3    H1 1203   4.095   3.934   0.050
  399TIP3    H2 1204   4.208   3.868   0.126
  400TIP3   OH2 1205   5.526   2.539   0.830
  400TIP3    H1 1206   5.562   2.577   0.750
  400TIP3    H2 1207   5.598   2.486   0.865
  401TIP3   OH2 1208   2.879   4.505   2.213
  401TIP3    H1 1209   2.867   4.493   2.307
  401TIP3    H2 1210   2.798   4.469   2.174
  402TIP3   OH2 1211   4.054   0.775   1.170
  402TIP3    H1 1212   4.150   0.776   1.172
  402TIP3    H2 1213   4.030   0.857   1.126
  403TIP3   OH2 1214   2.336   1.832   3.956
  403TIP3    H1 1215   2.374   1.823   3.869
  403TIP3    H2 1216   2.262   1.771   3.957
  404TIP3   OH2 1217   1.853   0.952   2.823
  404TIP3    H1 1218   1.941   0.946   2.785
  404TIP3    H2 1219   1.794   0.938   2.748
  405TIP3   OH2 1220   1.270   4.149   1.799
  405TIP3    H1 1221   1.364   4.161   1.812
  405TIP3    H2 1222   1.236   4.132   1.887
  406TIP3   OH2 1223   2.253   2.380   2.846
  406TIP3    H1 1224   2.321   2.314   2.859
  406TIP3    H2 1225   2.191   2.365   2.918
  407TIP3   OH2 1226   0.205   3.050   1.155
  407TIP3    H1 1227   0.125   3.074   1.106
  407TIP3    H2 1228   0.192   3.088   1.242
  408TIP3   OH2 1229   0.750   5.503   4.191
  408TIP3    H1 1230   0.695   5.561   4.140
  408TIP3    H2 1231   0.710   5.502   4.278
  409TIP3   OH2 1232   3.286   2.081   4.110
  409TIP3    H1 1233   3.302   2.031   4.190
  409TIP3    H2 1234   3.256   2.016   4.046
  410TIP3   OH2 1235   0.309   2.479   3.035
  410TIP3    H1 1236   0.357   2.396   3.044
  410TIP3    H2 1237   0.376   2.546   3.045
  411TIP3   OH2 1238   3.323   1.126   1.001
  411TIP3    H1 1239   3.264   1.092   0.934
  411TIP3    H2 1240   3.406   1.140   0.955
  412TIP3   OH2 1241   0.793   1.250   4.921
  412TIP3    H1 1242   0.822   1.206   4.842
  412TIP3    H2 1243   0.842   1.209   4.992
  413TIP3   OH2 1244   4.075   3.820   2.405
  413TIP3    H1 1245   4.111   3.906   2.384
  413TIP3    H2 1246   4.083   3.770   2.324
  414TIP3   OH2 1247   0.996   0.685   0.728
  414TIP3    H1 1248   0.914   0.639   0.743
  414TIP3    H2 1249   0.978   0.744   0.655
  415TIP3   OH2 1250   2.490   3.131   2.331
  415TIP3    H1 1251   2.561   3.071   2.306
  415TIP3    H2 1252   2.526   3.183   2.403
  416TIP3   OH2 1253   1.528   1.565   0.014
  416TIP3    H1 1254   1.591   1.599   0.077
  416TIP3    H2 1255   1.579   1.547  -0.065
  417TIP3   OH2 1256   4.810   2.734   4.609
  417TIP3    H1 1257   4.758   2.757   4.532
  417TIP3    H2 1258   4.751   2.749   4.683
  418TIP3   OH2 1259   3.498   1.009   2.038
  418TIP3    H1 1260   3.476   1.077   2.101
  418TIP3    H2 1261   3.448   0.933   2.067
  419TIP3   OH2 1262   0.670   3.717   4.470
  419TIP3    H1 1263   0.751   3.712   4.520
  419TIP3    H2 1264   0.601   3.696   4.533
  420TIP3   OH2 1265   4.032   2.310   2.421
  420TIP3    H1 1266   3.956   2.316   2.480
  420TIP3    H2 1267   4.003   2.350   2.340
  421TIP3   OH2 1268   0.778   3.053   2.961
  421TIP3    H1 1269   0.844   3.059   2.892
  421TIP3    H2 1270   0.698   3.087   2.921
  422TIP3   OH2 1271   6.332   0.336   0.536
  422TIP3    H1 1272   6.273   0.396   0.582
  422TIP3    H2 1273   6.382   0.294   0.606
  423TIP3   OH2 1274   3.911   4.261   0.709
  423TIP3    H1 1275   3.844   4.194   0.695
  423TIP3    H2 1276   3.921   4.303   0.623
  424TIP3   OH2 1277   4.162   0.181   4.649
  424TIP3    H1 1278   4.095   0.231   4.603
  424TIP3    H2 1279   4.116   0.138   4.720
  425TIP3   OH2 1280   1.861   1.858   4.946
  425TIP3    H1 1281   1.920   1.928   4.919
  425TIP3    H2 1282   1.893   1.781   4.900
  426TIP3   OH2 1283   3.679   0.329   3.388
  426TIP3    H1 1284   3.750   0.274   3.422
  426TIP3    H2 1285   3.710   0.357   3.302
  427TIP3   OH2 1286   4.019   5.652   1.514
  427TIP3    H1 1287   4.076   5.674   1.441
  427TIP3    H2 1288   3.931   5.646   1.476
  428TIP3   OH2 1289   1.117   5.107   2.010
  428TIP3    H1 1290   1.113   5.112   2.106
  428TIP3    H2 1291   1.083   5.192   1.981
  429TIP3   OH2 1292   5.532   5.268   2.838
  429TIP3    H1 1293   5.472   5.282   2.911
  429TIP3    H2 1294   5.581   5.350   2.830
  430TIP3   OH2 1295   3.093   5.926   4.237
  430TIP3    H1 1296   3.071   6.014   4.206
  430TIP3    H2 1297   3.093   5.934   4.333
  431TIP3   OH2 1298   0.820   3.010   3.998
  431TIP3    H1 1299   0.729   3.037   3.982
  431TIP3    H2 1300   0.859   3.083   4.044
  432TIP3   OH2 1301   0.736   5.345   3.351
  432TIP3    H1 1302   0.826   5.378   3.352
  432TIP3    H2 1303   0.687   5.411   3.303
  433TIP3   OH2 1304   1.840   2.997   1.653
  433TIP3    H1 1305   1.881   2.987   1.567
  433TIP3    H2 1306   1.898   3.056   1.701
  434TIP3   OH2 1307   2.561   2.337   3.520
  434TIP3    H1 1308   2.608   2.270   3.569
  434TIP3    H2 1309   2.484   2.356   3.574
  435TIP3   OH2 1310   1.666   4.343   0.135
  435TIP3    H1 1311   1.599   4.276   0.122
  435TIP3    H2 1312   1.748   4.295   0.138
  436TIP3   OH2 1313   2.672   4.701   4.244
  436TIP3    H1 1314   2.695   4.766   4.178
  436TIP3    H2 1315   2.579   4.683   4.229
  437TIP3   OH2 1316   3.746   0.953   2.856
  437TIP3    H1 1317   3.722   0.992   2.772
  437TIP3    H2 1318   3.760   1.028   2.914
  438TIP3   OH2 1319   4.195   1.959   3.156
  438TIP3    H1 1320   4.112   1.978   3.113
  438TIP3    H2 1321   4.193   2.011   3.236
  439TIP3   OH2 1322   1.177   0.375   3.683
  439TIP3    H1 1323   1.137   0.418   3.759
  439TIP3    H2 1324   1.271   0.379   3.699
  440TIP3   OH2 1325   1.704   0.123   3.526
  440TIP3    H1 1326   1.682   0.035   3.496
  440TIP3    H2 1327   1.646   0.181   3.477
  441TIP3   OH2 1328   3.568   1.610   4.727
  441TIP3    H1 1329   3.486   1.658   4.721
  441TIP3    H2 1330   3.604   1.612   4.639
  442TIP3   OH2 1331   0.753   4.162   3.221
  442TIP3    H1 1332   0.758   4.078   3.268
  442TIP3    H2 1333   0.682   4.209   3.264
  443TIP3   OH2 1334   3.300   2.465   0.915
  443TIP3    H1 1335   3.311   2.469   0.820
  443TIP3    H2 1336   3.205   2.466   0.928
  444TIP3   OH2 1337   4.816   2.999   0.187
  444TIP3    H1 1338   4.887   2.983   0.249
  444TIP3    H2 1339   4.837   2.945   0.111
  445TIP3   OH2 1340   2.717   4.488   4.467
  445TIP3    H1 1341   2.744   4.404   4.431
  445TIP3    H2 1342   2.730   4.550   4.395
  446TIP3   OH2 1343   4.245   3.915   0.313
  446TIP3    H1 1344   4.198   3.885   0.391
  446TIP3    H2 1345   4.306   3.981   0.346
  447TIP3   OH2 1346   5.912   4.175   3.051
  447TIP3    H1 1347   5.869   4.101   3.094
  447TIP3    H2 1348   5.981   4.135   2.997
  448TIP3   OH2 1349   4.683   4.521   3.404
  448TIP3    H1 1350   4.710   4.613   3.400
  448TIP3    H2 1351   4.737   4.483   3.473
  449TIP3   OH2 1352   6.078   5.543   1.314
  449TIP3    H1 1353   6.071   5.527   1.408
  449TIP3    H2 1354   6.094   5.637   1.307
  450TIP3   OH2 1355   5.246   2.607   4.661
  450TIP3    H1 1356   5.191   2.684   4.674
  450TIP3    H2 1357   5.313   2.614   4.729
  451TIP3   OH2 1358   4.016   3.870   2.659
  451TIP3    H1 1359   4.057   3.951   2.691
  451TIP3    H2 1360   4.038   3.867   2.566
  452TIP3   OH2 1361   0.474   4.181   0.697
  452TIP3    H1 1362   0.494   4.273   0.678
  452TIP3    H2 1363   0.428   4.150   0.618
  453TIP3   OH2 1364   5.907   2.095   2.265
  453TIP3    H1 1365   5.921   2.003   2.246
  453TIP3    H2 1366   5.910   2.138   2.179
  454TIP3   OH2 1367   5.941   2.395   0.429
  454TIP3    H1 1368   5.860   2.388   0.479
  454TIP3    H2 1369   5.911   2.409   0.339
  455TIP3   OH2 1370   5.822   3.255   3.069
  455TIP3    H1 1371   5.902   3.280   3.022
  455TIP3    H2 1372   5.778   3.194   3.010
  456TIP3   OH2 1373   4.885   4.027   5.129
  456TIP3    H1 1374   4.980   4.031   5.136
  456TIP3    H2 1375   4.861   3.947   5.176
  457TIP3   OH2 1376   3.710   5.184   1.467
  457TIP3    H1 1377   3.762   5.186   1.547
  457TIP3    H2 1378   3.734   5.101   1.425
  458TIP3   OH2 1379   2.127   3.405   1.973
  458TIP3    H1 1380   2.080   3.323   1.986
  458TIP3    H2 1381   2.134   3.443   2.061
  459TIP3   OH2 1382   3.843   2.155   4.661
  459TIP3    H1 1383   3.768   2.107   4.626
  459TIP3    H2 1384   3.919   2.115   4.620
  460TIP3   OH2 1385   0.306   2.930   2.496
  460TIP3    H1 1386   0.394   2.905   2.467
  460TIP3    H2 1387   0.317   2.956   2.587
  461TIP3   OH2 1388   1.103   2.196   4.143
  461TIP3    H1 1389   1.025   2.232   4.185
  461TIP3    H2 1390   1.101   2.103   4.166
  462TIP3   OH2 1391   1.596   5.037   2.837
  462TIP3    H1 1392   1.680   5.001   2.864
  462TIP3    H2 1393   1.561   5.080   2.915
  463TIP3   OH2 1394   5.616   0.232   4.716
  463TIP3    H1 1395   5.625   0.254   4.809
  463TIP3    H2 1396   5.532   0.187   4.710
  464TIP3   OH2 1397   0.706   1.899   5.147
  464TIP3    H1 1398   0.797   1.901   5.176
  464TIP3    H2 1399   0.707   1.843   5.069
  465TIP3   OH2 1400   0.088   3.289   0.383
  465TIP3    H1 1401   0.046   3.277   0.468
  465TIP3    H2 1402   0.172   3.243   0.391
  466TIP3   OH2 1403   4.320   1.725   1.695
  466TIP3    H1 1404   4.313   1.779   1.616
  466TIP3    H2 1405   4.350   1.640   1.663
  467TIP3   OH2 1406   3.189   4.478   2.450
  467TIP3    H1 1407   3.117   4.421   2.421
  467TIP3    H2 1408   3.265   4.421   2.451
  468TIP3   OH2 1409   0.163   2.458   0.808
  468TIP3    H1 1410   0.247   2.417   0.826
  468TIP3    H2 1411   0.180   2.552   0.816
  469TIP3   OH2 1412   3.480   1.041   2.922
  469TIP3    H1 1413   3.506   1.124   2.963
  469TIP3    H2 1414   3.559   1.010   2.879
  470TIP3   OH2 1415   2.434   2.855   4.629
  470TIP3    H1 1416   2.523   2.855   4.664
  470TIP3    H2 1417   2.444   2.820   4.540
  471TIP3   OH2 1418   4.411   3.041   5.090
  471TIP3    H1 1419   4.341   3.105   5.078
  471TIP3    H2 1420   4.389   2.971   5.028
  472TIP3   OH2 1421   1.708   3.643   0.057
  472TIP3    H1 1422   1.613   3.632   0.044
  472TIP3    H2 1423   1.728   3.589   0.134
  473TIP3   OH2 1424   2.314   4.300   2.905
  473TIP3    H1 1425   2.263   4.380   2.889
  473TIP3    H2 1426   2.267   4.255   2.976
  474TIP3   OH2 1427   0.622   4.088   4.676
  474TIP3    H1 1428   0.697   4.146   4.666
  474TIP3    H2 1429   0.625   4.031   4.599
  475TIP3   OH2 1430   1.133   2.966   1.138
  475TIP3    H1 1431   1.087   3.022   1.075
  475TIP3    H2 1432   1.097   2.990   1.223
  476TIP3   OH2 1433   4.141   4.932   0.913
  476TIP3    H1 1434   4.080   4.858   0.915
  476TIP3    H2 1435   4.184   4.924   0.828
  477TIP3   OH2 1436   4.964   4.149   0.257
  477TIP3    H1 1437   4.882   4.100   0.263
  477TIP3    H2 1438   5.025   4.089   0.213
  478TIP3   OH2 1439   2.552   4.445   2.278
  478TIP3    H1 1440   2.473   4.498   2.263
  478TIP3    H2 1441   2.605   4.498   2.339
  479TIP3   OH2 1442   0.670   5.928   0.053
  479TIP3    H1 1443   0.739   5.968   0.106
  479TIP3    H2 1444   0.685   5.834   0.061
  480TIP3   OH2 1445   3.658   5.053   2.380
  480TIP3    H1 1446   3.577   5.013   2.412
  480TIP3    H2 1447   3.696   5.096   2.457
  481TIP3   OH2 1448   1.710   5.286   1.998
  481TIP3    H1 1449   1.786   5.343   2.009
  481TIP3    H2 1450   1.703   5.240   2.082
  482TIP3   OH2 1451   2.724   0.899   3.849
  482TIP3    H1 1452   2.720   0.806   3.873
  482TIP3    H2 1453   2.738   0.944   3.933
  483TIP3   OH2 1454   5.321   0.170   0.337
  483TIP3    H1 1455   5.388   0.235   0.316
  483TIP3    H2 1456   5.321   0.166   0.433
  484TIP3   OH2 1457   0.504   4.372   3.715
  484TIP3    H1 1458   0.478   4.281   3.726
  484TIP3    H2 1459   0.598   4.373   3.734
  485TIP3   OH2 1460   4.898   5.799   5.129
  485TIP3    H1 1461   4.897   5.723   5.186
  485TIP3    H2 1462   4.977   5.789   5.076
  486TIP3   OH2 1463   2.132   4.901   0.551
  486TIP3    H1 1464   2.121   4.848   0.630
  486TIP3    H2 1465   2.045   4.934   0.532
  487TIP3   OH2 1466   4.364   2.879   4.847
  487TIP3    H1 1467   4.440   2.928   4.816
  487TIP3    H2 1468   4.328   2.838   4.769
  488TIP3   OH2 1469   2.496   4.028   1.438
  488TIP3    H1 1470   2.525   4.007   1.527
  488TIP3    H2 1471   2.546   4.106   1.415
  489TIP3   OH2 1472   0.145   2.524   0.440
  489TIP3    H1 1473   0.172   2.460   0.374
  489TIP3    H2 1474   0.226   2.572   0.460
  490TIP3   OH2 1475   5.674   2.884   4.023
  490TIP3    H1 1476   5.735   2.844   4.084
  490TIP3    H2 1477   5.727   2.907   3.947
  491TIP3   OH2 1478   2.686   1.783   1.447
  491TIP3    H1 1479   2.781   1.785   1.436
  491TIP3    H2 1480   2.652   1.757   1.361
  492TIP3   OH2 1481   0.570   5.342   2.843
  492TIP3    H1 1482   0.616   5.347   2.759
  492TIP3    H2 1483   0.543   5.250   2.850
  493TIP3   OH2 1484   2.395   4.705   0.726
  493TIP3    H1 1485   2.326   4.653   0.684
  493TIP3    H2 1486   2.416   4.657   0.806
  494TIP3   OH2 1487   4.058   1.078   3.769
  494TIP3    H1 1488   4.138   1.123   3.740
  494TIP3    H2 1489   4.055   1.092   3.864
  495TIP3   OH2 1490   5.485   1.541   0.483
  495TIP3    H1 1491   5.507   1.448   0.477
  495TIP3    H2 1492   5.567   1.582   0.511
  496TIP3   OH2 1493   1.240   2.037   4.799
  496TIP3    H1 1494   1.152   2.070   4.782
  496TIP3    H2 1495   1.246   1.957   4.746
  497TIP3   OH2 1496   1.989   0.608   1.699
  497TIP3    H1 1497   1.923   0.538   1.701
  497TIP3    H2 1498   2.049   0.587   1.770
  498TIP3   OH2 1499   3.007   0.752   3.579
  498TIP3    H1 1500   3.095   0.723   3.602
  498TIP3    H2 1501   2.976   0.800   3.656
  499TIP3   OH2 1502   4.247   0.337   1.188
  499TIP3    H1 1503   4.311   0.375   1.128
  499TIP3    H2 1504   4.288   0.345   1.274
  500TIP3   OH2 1505   1.142   2.244   1.600
  500TIP3    H1 1506   1.083   2.293   1.657
  500TIP3    H2 1507   1.110   2.154   1.603
  501TIP3   OH2 1508   3.817   5.207   2.553
  501TIP3    H1 1509   3.836   5.272   2.485
  501TIP3    H2 1510   3.778   5.258   2.624
  502TIP3   OH2 1511   3.782   0.250   2.198
  502TIP3    H1 1512   3.835   0.322   2.233
  502TIP3    H2 1513   3.752   0.282   2.113
  503TIP3   OH2 1514   3.242   1.589   1.792
  503TIP3    H1 1515   3.304   1.541   1.846
  503TIP3    H2 1516   3.165   1.532   1.786
  504TIP3   OH2 1517   4.822   3.666   3.740
  504TIP3    H1 1518   4.752   3.600   3.739
  504TIP3    H2 1519   4.819   3.705   3.652
  505TIP3   OH2 1520   5.577   5.877   0.949
  505TIP3    H1 1521   5.513   5.942   0.919
  505TIP3    H2 1522   5.524   5.812   0.995
  506TIP3   OH2 1523   1.915   5.405   1.253
  506TIP3    H1 1524   1.913   5.317   1.290
  506TIP3    H2 1525   1.959   5.458   1.319
  507TIP3   OH2 1526   3.157   5.561   2.849
  507TIP3    H1 1527   3.064   5.542   2.843
  507TIP3    H2 1528   3.200   5.478   2.830
  508TIP3   OH2 1529   5.126   1.508   3.191
  508TIP3    H1 1530   5.044   1.502   3.240
  508TIP3    H2 1531   5.113   1.452   3.114
  509TIP3   OH2 1532   5.121   4.238   0.496
  509TIP3    H1 1533   5.077   4.171   0.443
  509TIP3    H2 1534   5.208   4.202   0.512
  510TIP3   OH2 1535   0.723   3.943   5.068
  510TIP3    H1 1536   0.786   3.991   5.014
  510TIP3    H2 1537   0.725   3.987   5.153
  511TIP3   OH2 1538   6.214   3.263   5.031
  511TIP3    H1 1539   6.189   3.347   4.992
  511TIP3    H2 1540   6.254   3.214   4.959
  512TIP3   OH2 1541   3.662   5.317   0.676
  512TIP3    H1 1542   3.727   5.265   0.723
  512TIP3    H2 1543   3.688   5.312   0.584
  513TIP3   OH2 1544   2.003   0.749   3.414
  513TIP3    H1 1545   2.067   0.744   3.343
  513TIP3    H2 1546   2.007   0.664   3.456
  514TIP3   OH2 1547   1.835   2.957   2.545
  514TIP3    H1 1548   1.780   2.895   2.497
  514TIP3    H2 1549   1.810   2.945   2.637
  515TIP3   OH2 1550   4.684   2.642   2.263
  515TIP3    H1 1551   4.607   2.614   2.214
  515TIP3    H2 1552   4.720   2.714   2.212
  516TIP3   OH2 1553   4.022   1.957   2.948
  516TIP3    H1 1554   3.986   2.007   2.875
  516TIP3    H2 1555   3.948   1.945   3.008
  517TIP3   OH2 1556   1.180   5.905   1.431
  517TIP3    H1 1557   1.202   5.840   1.498
  517TIP3    H2 1558   1.257   5.962   1.427
  518TIP3   OH2 1559   5.105   5.243   4.035
  518TIP3    H1 1560   5.059   5.327   4.045
  518TIP3    H2 1561   5.062   5.201   3.961
  519TIP3   OH2 1562   5.534   4.848   3.888
  519TIP3    H1 1563   5.626   4.822   3.898
  519TIP3    H2 1564   5.492   4.820   3.969
  520TIP3   OH2 1565   6.307   3.689   1.971
  520TIP3    H1 1566   6.247   3.728   1.908
  520TIP3    H2 1567   6.271   3.602   1.987
  521TIP3   OH2 1568   2.064   2.273   2.166
  521TIP3    H1 1569   2.004   2.213   2.211
  521TIP3    H2 1570   2.054   2.356   2.212
  522TIP3   OH2 1571   3.258   3.794   4.784
  522TIP3    H1 1572   3.244   3.784   4.690
  522TIP3    H2 1573   3.297   3.711   4.812
  523TIP3   OH2 1574   0.735   1.033   3.122
  523TIP3    H1 1575   0.741   1.008   3.029
  523TIP3    H2 1576   0.657   0.988   3.154
  524TIP3   OH2 1577   0.084   3.995   0.365
  524TIP3    H1 1578   0.087   4.025   0.275
  524TIP3    H2 1579   0.147   3.923   0.368
  525TIP3   OH2 1580   4.704   0.518   0.406
  525TIP3    H1 1581   4.702   0.545   0.498
  525TIP3    H2 1582   4.702   0.423   0.409
  526TIP3   OH2 1583   2.953   2.651   3.057
  526TIP3    H1 1584   2.939   2.625   3.148
  526TIP3    H2 1585   3.016   2.589   3.023
  527TIP3   OH2 1586   6.129   1.319   2.541
  527TIP3    H1 1587   6.185   1.339   2.616
  527TIP3    H2 1588   6.126   1.224   2.538
  528TIP3   OH2 1589   1.156   1.041   1.614
  528TIP3    H1 1590   1.217   1.107   1.646
  528TIP3    H2 1591   1.133   1.071   1.526
  529TIP3   OH2 1592   5.151   2.374   1.824
  529TIP3    H1 1593   5.159   2.467   1.843
  529TIP3    H2 1594   5.090   2.370   1.751
  530TIP3   OH2 1595   3.653   5.972   0.273
  530TIP3    H1 1596   3.680   5.983   0.364
  530TIP3    H2 1597   3.559   5.951   0.279
  531TIP3   OH2 1598   4.105   3.999   3.698
  531TIP3    H1 1599   4.114   4.089   3.665
  531TIP3    H2 1600   4.154   3.946   3.636
  532TIP3   OH2 1601   0.525   0.634   1.450
  532TIP3    H1 1602   0.447   0.593   1.411
  532TIP3    H2 1603   0.519   0.726   1.425
  533TIP3   OH2 1604   4.039   3.094   0.226
  533TIP3    H1 1605   4.071   3.065   0.140
  533TIP3    H2 1606   4.090   3.173   0.245
  534TIP3   OH2 1607   3.770   1.678   2.305
  534TIP3    H1 1608   3.792   1.726   2.385
  534TIP3    H2 1609   3.679   1.700   2.288
  535TIP3   OH2 1610   2.219   3.084   4.993
  535TIP3    H1 1611   2.157   3.153   5.017
  535TIP3    H2 1612   2.275   3.075   5.070
  536TIP3   OH2 1613   1.257   2.167   2.867
  536TIP3    H1 1614   1.218   2.230   2.806
  536TIP3    H2 1615   1.299   2.102   2.811
  537TIP3   OH2 1616   0.878   5.178   3.690
  537TIP3    H1 1617   0.886   5.143   3.601
  537TIP3    H2 1618   0.962   5.221   3.707
  538TIP3   OH2 1619   5.626   5.299   3.104
  538TIP3    H1 1620   5.533   5.318   3.087
  538TIP3    H2 1621   5.625   5.217   3.154
  539TIP3   OH2 1622   4.204   0.620   0.335
  539TIP3    H1 1623   4.242   0.708   0.339
  539TIP3    H2 1624   4.275   0.562   0.358
  540TIP3   OH2 1625   5.618   5.626   1.812
  540TIP3    H1 1626   5.556   5.678   1.863
  540TIP3    H2 1627   5.599   5.647   1.721
  541TIP3   OH2 1628   5.161   0.234   1.810
  541TIP3    H1 1629   5.188   0.199   1.895
  541TIP3    H2 1630   5.070   0.260   1.822
  542TIP3   OH2 1631   3.948   1.680   0.062
  542TIP3    H1 1632   3.972   1.754   0.119
  542TIP3    H2 1633   3.853   1.675   0.069
  543TIP3   OH2 1634   3.384   1.791   4.072
  543TIP3    H1 1635   3.459   1.821   4.021
  543TIP3    H2 1636   3.308   1.825   4.025
  544TIP3   OH2 1637   2.550   3.407   4.263
  544TIP3    H1 1638   2.625   3.379   4.210
  544TIP3    H2 1639   2.579   3.395   4.354
  545TIP3   OH2 1640   4.443   3.949   0.956
  545TIP3    H1 1641   4.408   3.967   0.869
  545TIP3    H2 1642   4.534   3.978   0.951
  546TIP3   OH2 1643   5.265   4.206   2.051
  546TIP3    H1 1644   5.235   4.116   2.038
  546TIP3    H2 1645   5.217   4.236   2.128
  547TIP3   OH2 1646   0.873   5.286   2.375
  547TIP3    H1 1647   0.802   5.288   2.310
  547TIP3    H2 1648   0.829   5.299   2.458
  548TIP3   OH2 1649   4.384   2.057   0.966
  548TIP3    H1 1650   4.467   2.043   0.920
  548TIP3    H2 1651   4.363   1.971   1.003
  549TIP3   OH2 1652   2.716   4.347   4.980
  549TIP3    H1 1653   2.728   4.293   5.059
  549TIP3    H2 1654   2.673   4.288   4.918
  550TIP3   OH2 1655   0.652   1.469   3.024
  550TIP3    H1 1656   0.733   1.433   2.986
  550TIP3    H2 1657   0.587   1.460   2.954
  551TIP3   OH2 1658   2.006  -0.005   1.030
  551TIP3    H1 1659   2.097   0.002   1.000
  551TIP3    H2 1660   1.983   0.083   1.060
  552TIP3   OH2 1661   1.202   4.027   3.230
  552TIP3    H1 1662   1.201   4.083   3.153
  552TIP3    H2 1663   1.271   4.064   3.286
  553TIP3   OH2 1664   5.264   0.365   4.914
  553TIP3    H1 1665   5.325   0.335   4.982
  553TIP3    H2 1666   5.321   0.399   4.845
  554TIP3   OH2 1667   1.387   2.154   1.193
  554TIP3    H1 1668   1.321   2.204   1.240
  554TIP3    H2 1669   1.470   2.194   1.219
  555TIP3   OH2 1670   2.463   4.872   3.133
  555TIP3    H1 1671   2.400   4.943   3.148
  555TIP3    H2 1672   2.408   4.794   3.122
  556TIP3   OH2 1673   6.030   3.836   2.821
  556TIP3    H1 1674   6.034   3.921   2.865
  556TIP3    H2 1675   6.116   3.825   2.781
  557TIP3   OH2 1676   5.612   2.156   0.806
  557TIP3    H1 1677   5.649   2.178   0.891
  557TIP3    H2 1678   5.517   2.164   0.818
  558TIP3   OH2 1679   5.091   2.851   2.279
  558TIP3    H1 1680   5.042   2.848   2.197
  558TIP3    H2 1681   5.054   2.781   2.332
  559TIP3   OH2 1682   3.331   5.963   4.780
  559TIP3    H1 1683   3.263   5.920   4.729
  559TIP3    H2 1684   3.285   6.001   4.855
  560TIP3   OH2 1685   3.161   2.804   3.782
  560TIP3    H1 1686   3.233   2.790   3.721
  560TIP3    H2 1687   3.196   2.780   3.868
  561TIP3   OH2 1688   5.787   2.208   3.889
  561TIP3    H1 1689   5.840   2.155   3.948
  561TIP3    H2 1690   5.706   2.157   3.877
  562TIP3   OH2 1691   5.535   5.016   2.941
  562TIP3    H1 1692   5.610   5.022   3.001
  562TIP3    H2 1693   5.543   5.093   2.885
  563TIP3   OH2 1694   1.208   2.294   2.290
  563TIP3    H1 1695   1.175   2.341   2.213
  563TIP3    H2 1696   1.292   2.257   2.261
  564TIP3   OH2 1697   0.836   0.320   3.333
  564TIP3    H1 1698   0.910   0.371   3.366
  564TIP3    H2 1699   0.773   0.320   3.405
  565TIP3   OH2 1700   3.436   4.944   2.970
  565TIP3    H1 1701   3.507   5.001   2.938
  565TIP3    H2 1702   3.460   4.857   2.938
  566TIP3   OH2 1703   5.679   4.367   4.032
  566TIP3    H1 1704   5.590   4.346   4.061
  566TIP3    H2 1705   5.698   4.302   3.964
  567TIP3   OH2 1706   1.138   0.144   3.980
  567TIP3    H1 1707   1.148   0.238   3.994
  567TIP3    H2 1708   1.111   0.136   3.889
  568TIP3   OH2 1709   2.118   2.886   0.991
  568TIP3    H1 1710   2.098   2.969   0.948
  568TIP3    H2 1711   2.032   2.850   1.013
  569TIP3   OH2 1712   1.918   5.750   2.136
  569TIP3    H1 1713   1.828   5.764   2.166
  569TIP3    H2 1714   1.959   5.836   2.144
  570TIP3   OH2 1715   2.026   4.384   5.082
  570TIP3    H1 1716   2.095   4.333   5.040
  570TIP3    H2 1717   1.965   4.404   5.011
  571TIP3   OH2 1718   2.270   4.745   0.369
  571TIP3    H1 1719   2.215   4.791   0.432
  571TIP3    H2 1720   2.359   4.758   0.400
  572TIP3   OH2 1721   0.921   5.433   0.479
  572TIP3    H1 1722   0.896   5.341   0.490
  572TIP3    H2 1723   0.953   5.459   0.566
  573TIP3   OH2 1724   1.144   4.688   0.479
  573TIP3    H1 1725   1.049   4.683   0.477
  573TIP3    H2 1726   1.172   4.612   0.530
  574TIP3   OH2 1727   5.932   0.249   3.116
  574TIP3    H1 1728   5.858   0.215   3.067
  574TIP3    H2 1729   6.006   0.243   3.055
  575TIP3   OH2 1730   4.793   2.860   3.261
  575TIP3    H1 1731   4.861   2.856   3.194
  575TIP3    H2 1732   4.799   2.949   3.296
  576TIP3   OH2 1733   5.530   3.256   0.834
  576TIP3    H1 1734   5.563   3.327   0.779
  576TIP3    H2 1735   5.483   3.199   0.774
  577TIP3   OH2 1736   5.321   4.757   3.754
  577TIP3    H1 1737   5.373   4.824   3.798
  577TIP3    H2 1738   5.363   4.674   3.776
  578TIP3   OH2 1739   1.137   5.884   4.778
  578TIP3    H1 1740   1.071   5.817   4.760
  578TIP3    H2 1741   1.206   5.868   4.713
  579TIP3   OH2 1742   0.579   0.198   1.780
  579TIP3    H1 1743   0.666   0.236   1.767
  579TIP3    H2 1744   0.529   0.226   1.704
  580TIP3   OH2 1745   1.445   3.705   3.553
  580TIP3    H1 1746   1.429   3.792   3.590
  580TIP3    H2 1747   1.386   3.647   3.602
  581TIP3   OH2 1748   2.188   1.705   0.653
  581TIP3    H1 1749   2.231   1.767   0.712
  581TIP3    H2 1750   2.156   1.636   0.711
  582TIP3   OH2 1751   4.121   1.061   2.675
  582TIP3    H1 1752   4.210   1.027   2.667
  582TIP3    H2 1753   4.093   1.078   2.585
  583TIP3   OH2 1754   5.764   1.417   0.602
  583TIP3    H1 1755   5.852   1.447   0.624
  583TIP3    H2 1756   5.707   1.461   0.665
  584TIP3   OH2 1757   3.922   3.249   5.080
  584TIP3    H1 1758   3.833   3.234   5.114
  584TIP3    H2 1759   3.954   3.324   5.130
  585TIP3   OH2 1760   3.385   2.752   3.969
  585TIP3    H1 1761   3.408   2.799   3.888
  585TIP3    H2 1762   3.398   2.817   4.038
  586TIP3   OH2 1763   0.833   4.751   2.134
  586TIP3    H1 1764   0.859   4.731   2.044
  586TIP3    H2 1765   0.781   4.676   2.161
  587TIP3   OH2 1766   1.169   4.386   0.430
  587TIP3    H1 1767   1.194   4.410   0.519
  587TIP3    H2 1768   1.249   4.399   0.378
  588TIP3   OH2 1769   4.450   3.752   0.218
  588TIP3    H1 1770   4.372   3.756   0.273
  588TIP3    H2 1771   4.435   3.816   0.149
  589TIP3   OH2 1772   1.469   0.377   2.914
  589TIP3    H1 1773   1.382   0.410   2.888
  589TIP3    H2 1774   1.455   0.284   2.928
  590TIP3   OH2 1775   4.580   1.379   5.051
  590TIP3    H1 1776   4.595   1.299   5.103
  590TIP3    H2 1777   4.496   1.412   5.083
  591TIP3   OH2 1778   2.813   2.522   0.037
  591TIP3    H1 1779   2.742   2.464   0.064
  591TIP3    H2 1780   2.878   2.514   0.107
  592TIP3   OH2 1781   5.329   3.032   1.912
  592TIP3    H1 1782   5.238   3.009   1.891
  592TIP3    H2 1783   5.344   2.994   1.998
  593TIP3   OH2 1784   0.978   1.674   3.368
  593TIP3    H1 1785   0.887   1.695   3.389
  593TIP3    H2 1786   1.028   1.710   3.442
  594TIP3   OH2 1787   2.043   2.370   4.443
  594TIP3    H1 1788   2.136   2.382   4.423
  594TIP3    H2 1789   2.016   2.453   4.482
  595TIP3   OH2 1790   2.571   2.352   0.085
  595TIP3    H1 1791   2.540   2.262   0.070
  595TIP3    H2 1792   2.550   2.398   0.004
  596TIP3   OH2 1793   2.204   5.768   1.445
  596TIP3    H1 1794   2.146   5.710   1.396
  596TIP3    H2 1795   2.148   5.809   1.511
  597TIP3   OH2 1796   5.407   1.560   1.390
  597TIP3    H1 1797   5.488   1.565   1.441
  597TIP3    H2 1798   5.436   1.551   1.300
  598TIP3   OH2 1799   4.753   4.628   4.761
  598TIP3    H1 1800   4.761   4.696   4.694
  598TIP3    H2 1801   4.686   4.661   4.821
  599TIP3   OH2 1802   5.430   4.028   0.071
  599TIP3    H1 1803   5.414   3.954   0.129
  599TIP3    H2 1804   5.412   3.994  -0.017
  600TIP3   OH2 1805   2.066   4.152   4.471
  600TIP3    H1 1806   2.151   4.152   4.514
  600TIP3    H2 1807   2.075   4.087   4.401
  601TIP3   OH2 1808   6.238   0.064   4.698
  601TIP3    H1 1809   6.328   0.097   4.687
  601TIP3    H2 1810   6.183   0.136   4.667
  602TIP3   OH2 1811   2.912   0.204   1.743
  602TIP3    H1 1812   2.845   0.200   1.675
  602TIP3    H2 1813   2.987   0.158   1.706
  603TIP3   OH2 1814   0.946   0.270   5.147
  603TIP3    H1 1815   0.861   0.253   5.106
  603TIP3    H2 1816   0.925   0.319   5.227
  604TIP3   OH2 1817   6.055   0.983   1.751
  604TIP3    H1 1818   6.143   1.004   1.783
  604TIP3    H2 1819   6.043   1.041   1.676
  605TIP3   OH2 1820   2.450   0.800   2.034
  605TIP3    H1 1821   2.523   0.814   2.094
  605TIP3    H2 1822   2.420   0.889   2.013
  606TIP3   OH2 1823   3.178   4.104   1.336
  606TIP3    H1 1824   3.096   4.153   1.345
  606TIP3    H2 1825   3.233   4.137   1.406
  607TIP3   OH2 1826   3.467  -0.006   4.148
  607TIP3    H1 1827   3.501   0.064   4.204
  607TIP3    H2 1828   3.541  -0.028   4.091
  608TIP3   OH2 1829   3.252   3.939   3.016
  608TIP3    H1 1830   3.293   4.015   2.975
  608TIP3    H2 1831   3.284   3.864   2.966
  609TIP3   OH2 1832   5.880   2.988   5.121
  609TIP3    H1 1833   5.824   2.924   5.077
  609TIP3    H2 1834   5.856   3.072   5.082
  610TIP3   OH2 1835   5.719   4.495   3.423
  610TIP3    H1 1836   5.641   4.477   3.371
  610TIP3    H2 1837   5.686   4.514   3.511
  611TIP3   OH2 1838   5.797   4.592   4.630
  611TIP3    H1 1839   5.817   4.677   4.590
  611TIP3    H2 1840   5.728   4.611   4.694
  612TIP3   OH2 1841   1.007   2.507   2.376
  612TIP3    H1 1842   1.062   2.432   2.353
  612TIP3    H2 1843   0.971   2.538   2.293
  613TIP3   OH2 1844   4.639   3.523   1.745
  613TIP3    H1 1845   4.621   3.541   1.837
  613TIP3    H2 1846   4.656   3.429   1.741
  614TIP3   OH2 1847   2.241   3.020   3.697
  614TIP3    H1 1848   2.182   3.085   3.657
  614TIP3    H2 1849   2.268   3.060   3.780
  615TIP3   OH2 1850   0.064   1.483   0.109
  615TIP3    H1 1851   0.036   1.575   0.103
  615TIP3    H2 1852  -0.003   1.435   0.061
  616TIP3   OH2 1853   5.838   0.434   4.363
  616TIP3    H1 1854   5.931   0.412   4.355
  616TIP3    H2 1855   5.792   0.352   4.344
  617TIP3   OH2 1856   0.513   5.233   4.326
  617TIP3    H1 1857   0.462   5.243   4.245
  617TIP3    H2 1858   0.546   5.144   4.322
  618TIP3   OH2 1859   1.296   0.936   3.280
  618TIP3    H1 1860   1.284   1.025   3.248
  618TIP3    H2 1861   1.325   0.886   3.204
  619TIP3   OH2 1862   2.679   4.322   2.695
  619TIP3    H1 1863   2.616   4.258   2.662
  619TIP3    H2 1864   2.631   4.404   2.699
  620TIP3   OH2 1865   0.780   5.719   3.879
  620TIP3    H1 1866   0.767   5.769   3.799
  620TIP3    H2 1867   0.870   5.687   3.873
  621TIP3   OH2 1868   5.058   1.035   0.924
  621TIP3    H1 1869   5.128   1.082   0.970
  621TIP3    H2 1870   5.077   1.050   0.831
  622TIP3   OH2 1871   5.451   4.046   2.446
  622TIP3    H1 1872   5.391   3.971   2.454
  622TIP3    H2 1873   5.538   4.007   2.435
  623TIP3   OH2 1874   2.797   2.214   1.502
  623TIP3    H1 1875   2.706   2.231   1.477
  623TIP3    H2 1876   2.847   2.233   1.423
  624TIP3   OH2 1877   1.012   4.776   0.174
  624TIP3    H1 1878   0.965   4.798   0.254
  624TIP3    H2 1879   0.946   4.739   0.116
  625TIP3   OH2 1880   0.997   4.149   1.190
  625TIP3    H1 1881   0.964   4.238   1.198
  625TIP3    H2 1882   0.987   4.128   1.097
  626TIP3   OH2 1883   2.466   5.305   2.965
  626TIP3    H1 1884   2.431   5.284   3.052
  626TIP3    H2 1885   2.390   5.329   2.913
  627TIP3   OH2 1886   5.657   0.176   2.953
  627TIP3    H1 1887   5.632   0.142   3.039
  627TIP3    H2 1888   5.679   0.098   2.902
  628TIP3   OH2 1889   3.307   2.311   3.951
  628TIP3    H1 1890   3.321   2.228   3.997
  628TIP3    H2 1891   3.294   2.375   4.021
  629TIP3   OH2 1892   2.356   2.189   5.120
  629TIP3    H1 1893   2.354   2.123   5.051
  629TIP3    H2 1894   2.293   2.255   5.091
  630TIP3   OH2 1895   4.358   3.445   3.223
  630TIP3    H1 1896   4.264   3.466   3.221
  630TIP3    H2 1897   4.361   3.353   3.248
  631TIP3   OH2 1898   1.937   2.736   1.233
  631TIP3    H1 1899   1.885   2.656   1.229
  631TIP3    H2 1900   1.888   2.800   1.181
  632TIP3   OH2 1901   3.794   3.624   4.771
  632TIP3    H1 1902   3.756   3.589   4.690
  632TIP3    H2 1903   3.719   3.649   4.824
  633TIP3   OH2 1904   4.950   0.736   3.816
  633TIP3    H1 1905   5.025   0.790   3.789
  633TIP3    H2 1906   4.928   0.768   3.904
  634TIP3   OH2 1907   1.680   1.383   4.931
  634TIP3    H1 1908   1.771   1.410   4.945
  634TIP3    H2 1909   1.630   1.436   4.993
  635TIP3   OH2 1910   6.191   3.360   4.067
  635TIP3    H1 1911   6.249   3.361   3.991
  635TIP3    H2 1912   6.238   3.412   4.133
  636TIP3   OH2 1913   0.716   4.716   0.579
  636TIP3    H1 1914   0.620   4.722   0.585
  636TIP3    H2 1915   0.742   4.676   0.662
  637TIP3   OH2 1916   0.452   1.679   4.368
  637TIP3    H1 1917   0.490   1.722   4.291
  637TIP3    H2 1918   0.418   1.596   4.334
  638TIP3   OH2 1919   5.210   5.868   2.134
  638TIP3    H1 1920   5.188   5.931   2.203
  638TIP3    H2 1921   5.146   5.797   2.146
  639TIP3   OH2 1922   0.689   5.973   1.182
  639TIP3    H1 1923   0.705   5.910   1.112
  639TIP3    H2 1924   0.657   6.051   1.138
  640TIP3   OH2 1925   4.592   1.381   1.365
  640TIP3    H1 1926   4.682   1.372   1.396
  640TIP3    H2 1927   4.598   1.365   1.271
  641TIP3   OH2 1928   4.576   5.737   3.982
  641TIP3    H1 1929   4.577   5.644   4.003
  641TIP3    H2 1930   4.617   5.743   3.895
  642TIP3   OH2 1931   3.765   0.095   2.454
  642TIP3    H1 1932   3.799   0.031   2.516
  642TIP3    H2 1933   3.812   0.077   2.372
  643TIP3   OH2 1934   2.755   3.455   4.666
  643TIP3    H1 1935   2.781   3.519   4.732
  643TIP3    H2 1936   2.752   3.505   4.584
  644TIP3   OH2 1937   1.599   3.040   4.278
  644TIP3    H1 1938   1.608   3.120   4.227
  644TIP3    H2 1939   1.610   2.969   4.214
  645TIP3   OH2 1940   3.835   0.968   2.320
  645TIP3    H1 1941   3.817   0.875   2.329
  645TIP3    H2 1942   3.797   0.991   2.235
  646TIP3   OH2 1943   2.233   3.591   3.506
  646TIP3    H1 1944   2.311   3.631   3.544
  646TIP3    H2 1945   2.169   3.591   3.577
  647TIP3   OH2 1946   1.363   4.737   0.957
  647TIP3    H1 1947   1.437   4.706   0.906
  647TIP3    H2 1948   1.313   4.791   0.896
  648TIP3   OH2 1949   6.253   1.075   4.050
  648TIP3    H1 1950   6.255   1.077   4.146
  648TIP3    H2 1951   6.336   1.033   4.026
  649TIP3   OH2 1952   3.039   0.020   3.749
  649TIP3    H1 1953   2.995  -0.031   3.681
  649TIP3    H2 1954   2.969   0.047   3.808
  650TIP3   OH2 1955   0.690   5.799   2.912
  650TIP3    H1 1956   0.641   5.728   2.952
  650TIP3    H2 1957   0.753   5.827   2.978
  651TIP3   OH2 1958   4.794   1.622   4.183
  651TIP3    H1 1959   4.857   1.694   4.196
  651TIP3    H2 1960   4.829   1.551   4.237
  652TIP3   OH2 1961   4.715   5.705   0.204
  652TIP3    H1 1962   4.753   5.791   0.187
  652TIP3    H2 1963   4.707   5.665   0.117
  653TIP3   OH2 1964   3.584   3.109   4.238
  653TIP3    H1 1965   3.548   3.130   4.152
  653TIP3    H2 1966   3.561   3.017   4.251
  654TIP3   OH2 1967   4.475   3.274   4.280
  654TIP3    H1 1968   4.404   3.286   4.342
  654TIP3    H2 1969   4.534   3.212   4.322
  655TIP3   OH2 1970   1.731   3.163   1.177
  655TIP3    H1 1971   1.768   3.089   1.131
  655TIP3    H2 1972   1.655   3.189   1.125
  656TIP3   OH2 1973   2.791   2.287   1.008
  656TIP3    H1 1974   2.820   2.204   1.048
  656TIP3    H2 1975   2.789   2.349   1.081
  657TIP3   OH2 1976   4.975   1.346   0.637
  657TIP3    H1 1977   4.971   1.414   0.570
  657TIP3    H2 1978   4.885   1.315   0.646
  658TIP3   OH2 1979   4.464   3.163   3.767
  658TIP3    H1 1980   4.552   3.137   3.794
  658TIP3    H2 1981   4.411   3.153   3.845
  659TIP3   OH2 1982   1.286   3.225   2.332
  659TIP3    H1 1983   1.259   3.291   2.396
  659TIP3    H2 1984   1.250   3.143   2.366
  660TIP3   OH2 1985   1.699   3.832   4.195
  660TIP3    H1 1986   1.606   3.848   4.181
  660TIP3    H2 1987   1.742   3.862   4.115
  661TIP3   OH2 1988   3.188   3.785   4.081
  661TIP3    H1 1989   3.244   3.785   4.159
  661TIP3    H2 1990   3.246   3.812   4.010
  662TIP3   OH2 1991   3.534   2.239   4.988
  662TIP3    H1 1992   3.513   2.146   4.995
  662TIP3    H2 1993   3.629   2.242   4.999
  663TIP3   OH2 1994   5.426   2.014   2.666
  663TIP3    H1 1995   5.519   1.990   2.665
  663TIP3    H2 1996   5.411   2.051   2.579
  664TIP3   OH2 1997   1.909   5.473   2.662
  664TIP3    H1 1998   1.848   5.410   2.623
  664TIP3    H2 1999   1.973   5.490   2.592
  665TIP3   OH2 2000   4.389   5.938   2.823
  665TIP3    H1 2001   4.431   5.999   2.884
  665TIP3    H2 2002   4.428   5.853   2.844
  666TIP3   OH2 2003   3.109   0.090   1.562
  666TIP3    H1 2004   3.119   0.184   1.547
  666TIP3    H2 2005   3.187   0.051   1.523
  667TIP3   OH2 2006   1.910   2.124   1.492
  667TIP3    H1 2007   1.854   2.160   1.561
  667TIP3    H2 2008   1.892   2.030   1.493
  668TIP3   OH2 2009   2.153   1.117   0.569
  668TIP3    H1 2010   2.062   1.087   0.579
  668TIP3    H2 2011   2.206   1.038   0.581
  669TIP3   OH2 2012   4.874   1.356   4.952
  669TIP3    H1 2013   4.813   1.298   4.997
  669TIP3    H2 2014   4.919   1.299   4.889
  670TIP3   OH2 2015   0.953   5.156   0.184
  670TIP3    H1 2016   1.008   5.161   0.263
  670TIP3    H2 2017   1.015   5.140   0.113
  671TIP3   OH2 2018   2.333   1.574   2.879
  671TIP3    H1 2019   2.247   1.574   2.838
  671TIP3    H2 2020   2.341   1.661   2.919
  672TIP3   OH2 2021   5.104   5.704   3.947
  672TIP3    H1 2022   5.154   5.691   3.866
  672TIP3    H2 2023   5.045   5.777   3.927
  673TIP3   OH2 2024   1.700   3.752   0.583
  673TIP3    H1 2025   1.733   3.730   0.496
  673TIP3    H2 2026   1.649   3.675   0.610
  674TIP3   OH2 2027   2.265   4.148   5.191
  674TIP3    H1 2028   2.173   4.143   5.217
  674TIP3    H2 2029   2.261   4.163   5.096
  675TIP3   OH2 2030   4.586   1.029   4.017
  675TIP3    H1 2031   4.665   1.044   3.964
  675TIP3    H2 2032   4.572   1.112   4.063
  676TIP3   OH2 2033   0.075   0.261   4.647
  676TIP3    H1 2034   0.145   0.314   4.609
  676TIP3    H2 2035   0.000   0.321   4.653
  677TIP3   OH2 2036   1.549   3.348   2.182
  677TIP3    H1 2037   1.597   3.430   2.199
  677TIP3    H2 2038   1.595   3.309   2.108
  678TIP3   OH2 2039   3.619   1.239   1.010
  678TIP3    H1 2040   3.609   1.299   1.084
  678TIP3    H2 2041   3.621   1.296   0.933
  679TIP3   OH2 2042   1.117   3.341   5.160
  679TIP3    H1 2043   1.181   3.391   5.211
  679TIP3    H2 2044   1.157   3.334   5.073
  680TIP3   OH2 2045   3.289   1.338   3.376
  680TIP3    H1 2046   3.277   1.368   3.286
  680TIP3    H2 2047   3.217   1.276   3.389
  681TIP3   OH2 2048   0.934   1.249   3.656
  681TIP3    H1 2049   0.876   1.325   3.649
  681TIP3    H2 2050   0.938   1.214   3.568
  682TIP3   OH2 2051   6.277   4.863   3.050
  682TIP3    H1 2052   6.309   4.845   2.961
  682TIP3    H2 2053   6.189   4.827   3.051
  683TIP3   OH2 2054   6.290   4.118   4.721
  683TIP3    H1 2055   6.270   4.027   4.743
  683TIP3    H2 2056   6.326   4.155   4.801
  684TIP3   OH2 2057   0.899   0.597   4.535
  684TIP3    H1 2058   0.833   0.587   4.466
  684TIP3    H2 2059   0.955   0.520   4.526
  685TIP3   OH2 2060   1.936   0.750   0.741
  685TIP3    H1 2061   1.855   0.800   0.756
  685TIP3    H2 2062   1.986   0.804   0.681
  686TIP3   OH2 2063   1.437   4.967   3.551
  686TIP3    H1 2064   1.392   4.969   3.467
  686TIP3    H2 2065   1.377   5.011   3.611
  687TIP3   OH2 2066   0.788   0.106   3.641
  687TIP3    H1 2067   0.751   0.194   3.634
  687TIP3    H2 2068   0.775   0.068   3.554
  688TIP3   OH2 2069   0.696   0.459   2.176
  688TIP3    H1 2070   0.614   0.469   2.224
  688TIP3    H2 2071   0.730   0.548   2.169
  689TIP3   OH2 2072   1.751   2.269   2.355
  689TIP3    H1 2073   1.831   2.249   2.405
  689TIP3    H2 2074   1.708   2.184   2.345
  690TIP3   OH2 2075   3.514   3.919   1.038
  690TIP3    H1 2076   3.584   3.943   0.978
  690TIP3    H2 2077   3.559   3.891   1.118
  691TIP3   OH2 2078   2.807   1.266   3.465
  691TIP3    H1 2079   2.756   1.306   3.395
  691TIP3    H2 2080   2.760   1.185   3.485
  692TIP3   OH2 2081   1.659   5.276   0.774
  692TIP3    H1 2082   1.693   5.346   0.719
  692TIP3    H2 2083   1.706   5.286   0.857
  693TIP3   OH2 2084   3.888   3.196   0.571
  693TIP3    H1 2085   3.853   3.167   0.655
  693TIP3    H2 2086   3.982   3.176   0.575
  694TIP3   OH2 2087   3.711   3.317   3.618
  694TIP3    H1 2088   3.773   3.245   3.617
  694TIP3    H2 2089   3.740   3.375   3.548
  695TIP3   OH2 2090   5.466   3.787   4.831
  695TIP3    H1 2091   5.547   3.763   4.786
  695TIP3    H2 2092   5.484   3.771   4.924
  696TIP3   OH2 2093   2.950   5.761   0.238
  696TIP3    H1 2094   2.965   5.670   0.264
  696TIP3    H2 2095   2.861   5.780   0.266
  697TIP3   OH2 2096   4.214   5.284   4.688
  697TIP3    H1 2097   4.281   5.217   4.702
  697TIP3    H2 2098   4.223   5.309   4.596
  698TIP3   OH2 2099   4.364   4.639   1.825
  698TIP3    H1 2100   4.364   4.545   1.843
  698TIP3    H2 2101   4.383   4.645   1.732
  699TIP3   OH2 2102   1.884   4.137   1.147
  699TIP3    H1 2103   1.889   4.149   1.242
  699TIP3    H2 2104   1.790   4.131   1.128
  700TIP3   OH2 2105   5.866   0.064   1.632
  700TIP3    H1 2106   5.893   0.073   1.540
  700TIP3    H2 2107   5.851   0.153   1.662
  701TIP3   OH2 2108   3.423   5.959   0.800
  701TIP3    H1 2109   3.400   5.897   0.732
  701TIP3    H2 2110   3.357   5.946   0.868
  702TIP3   OH2 2111   4.127   5.520   4.133
  702TIP3    H1 2112   4.205   5.574   4.150
  702TIP3    H2 2113   4.073   5.574   4.075
  703TIP3   OH2 2114   4.241   4.704   4.230
  703TIP3    H1 2115   4.271   4.630   4.177
  703TIP3    H2 2116   4.316   4.724   4.286
  704TIP3   OH2 2117   3.034   1.415   3.117
  704TIP3    H1 2118   3.128   1.408   3.129
  704TIP3    H2 2119   3.009   1.492   3.168
  705TIP3   OH2 2120   5.522   0.563   1.693
  705TIP3    H1 2121   5.580   0.582   1.766
  705TIP3    H2 2122   5.483   0.479   1.714
  706TIP3   OH2 2123   0.870   4.873   2.956
  706TIP3    H1 2124   0.912   4.799   3.000
  706TIP3    H2 2125   0.891   4.860   2.863
  707TIP3   OH2 2126   5.383   4.240   1.607
  707TIP3    H1 2127   5.334   4.176   1.556
  707TIP3    H2 2128   5.325   4.317   1.610
  708TIP3   OH2 2129   0.482   2.749   2.168
  708TIP3    H1 2130   0.521   2.740   2.254
  708TIP3    H2 2131   0.509   2.836   2.138
  709TIP3   OH2 2132   5.227   3.729   1.383
  709TIP3    H1 2133   5.297   3.783   1.346
  709TIP3    H2 2134   5.252   3.639   1.363
  710TIP3   OH2 2135   0.167   5.575   0.226
  710TIP3    H1 2136   0.151   5.661   0.266
  710TIP3    H2 2137   0.127   5.513   0.287
  711TIP3   OH2 2138   3.355   5.934   2.262
  711TIP3    H1 2139   3.330   5.929   2.354
  711TIP3    H2 2140   3.430   5.994   2.260
  712TIP3   OH2 2141   0.399   5.519   3.898
  712TIP3    H1 2142   0.459   5.553   3.964
  712TIP3    H2 2143   0.314   5.518   3.941
  713TIP3   OH2 2144   1.453   2.228   1.596
  713TIP3    H1 2145   1.406   2.168   1.654
  713TIP3    H2 2146   1.388   2.254   1.530
  714TIP3   OH2 2147   1.283   1.271   0.233
  714TIP3    H1 2148   1.191   1.263   0.259
  714TIP3    H2 2149   1.292   1.363   0.208
  715TIP3   OH2 2150   6.309   1.702   4.980
  715TIP3    H1 2151   6.342   1.676   5.066
  715TIP3    H2 2152   6.341   1.634   4.920
  716TIP3   OH2 2153   6.186   3.850   0.410
  716TIP3    H1 2154   6.269   3.869   0.366
  716TIP3    H2 2155   6.122   3.906   0.366
  717TIP3   OH2 2156   3.212   3.106   0.987
  717TIP3    H1 2157   3.220   3.193   1.027
  717TIP3    H2 2158   3.250   3.047   1.052
  718TIP3   OH2 2159   2.177   1.492   2.226
  718TIP3    H1 2160   2.101   1.442   2.198
  718TIP3    H2 2161   2.226   1.509   2.146
  719TIP3   OH2 2162   3.423   0.107   0.233
  719TIP3    H1 2163   3.374   0.059   0.300
  719TIP3    H2 2164   3.356   0.143   0.176
  720TIP3   OH2 2165   4.338   3.536   2.202
  720TIP3    H1 2166   4.261   3.582   2.233
  720TIP3    H2 2167   4.304   3.461   2.153
  721TIP3   OH2 2168   1.741   3.836   1.625
  721TIP3    H1 2169   1.671   3.887   1.583
  721TIP3    H2 2170   1.822   3.881   1.601
  722TIP3   OH2 2171   0.591   2.746   1.591
  722TIP3    H1 2172   0.625   2.814   1.648
  722TIP3    H2 2173   0.660   2.732   1.526
  723TIP3   OH2 2174   6.042   3.837   1.580
  723TIP3    H1 2175   6.120   3.870   1.536
  723TIP3    H2 2176   5.969   3.863   1.523
  724TIP3   OH2 2177   1.719   4.886   1.860
  724TIP3    H1 2178   1.625   4.891   1.841
  724TIP3    H2 2179   1.752   4.820   1.799
  725TIP3   OH2 2180   0.749   4.809   4.309
  725TIP3    H1 2181   0.840   4.781   4.310
  725TIP3    H2 2182   0.711   4.764   4.233
  726TIP3   OH2 2183   0.107   0.602   1.458
  726TIP3    H1 2184   0.138   0.612   1.548
  726TIP3    H2 2185   0.012   0.589   1.466
  727TIP3   OH2 2186   5.745  -0.006   1.369
  727TIP3    H1 2187   5.741   0.020   1.277
  727TIP3    H2 2188   5.671   0.039   1.409
  728TIP3   OH2 2189   5.323   1.055   2.049
  728TIP3    H1 2190   5.384   1.051   2.122
  728TIP3    H2 2191   5.277   1.138   2.061
  729TIP3   OH2 2192   5.610   0.633   1.158
  729TIP3    H1 2193   5.518   0.634   1.184
  729TIP3    H2 2194   5.654   0.581   1.225
  730TIP3   OH2 2195   3.319   0.853   5.009
  730TIP3    H1 2196   3.397   0.860   5.063
  730TIP3    H2 2197   3.349   0.878   4.921
  731TIP3   OH2 2198   3.929   3.488   1.762
  731TIP3    H1 2199   3.845   3.532   1.750
  731TIP3    H2 2200   3.913   3.397   1.736
  732TIP3   OH2 2201   0.555   1.035   3.676
  732TIP3    H1 2202   0.623   1.071   3.619
  732TIP3    H2 2203   0.474   1.076   3.646
  733TIP3   OH2 2204   3.436   4.788   2.636
  733TIP3    H1 2205   3.433   4.878   2.603
  733TIP3    H2 2206   3.523   4.757   2.611
  734TIP3   OH2 2207   1.598   2.573   4.614
  734TIP3    H1 2208   1.571   2.640   4.551
  734TIP3    H2 2209   1.632   2.502   4.560
  735TIP3   OH2 2210   1.016   2.941   5.068
  735TIP3    H1 2211   1.021   3.029   5.104
  735TIP3    H2 2212   1.105   2.922   5.037
  736TIP3   OH2 2213   0.411   3.244   3.404
  736TIP3    H1 2214   0.466   3.244   3.325
  736TIP3    H2 2215   0.406   3.336   3.429
  737TIP3   OH2 2216   3.366   5.792   5.124
  737TIP3    H1 2217   3.289   5.838   5.156
  737TIP3    H2 2218   3.358   5.703   5.157
  738TIP3   OH2 2219   4.461   0.729   1.390
  738TIP3    H1 2220   4.461   0.807   1.446
  738TIP3    H2 2221   4.552   0.699   1.391
  739TIP3   OH2 2222   3.991   2.312   0.066
  739TIP3    H1 2223   3.956   2.270  -0.012
  739TIP3    H2 2224   3.925   2.297   0.133
  740TIP3   OH2 2225   0.887   0.247   2.126
  740TIP3    H1 2226   0.833   0.319   2.158
  740TIP3    H2 2227   0.877   0.178   2.192
  741TIP3   OH2 2228   3.469   0.296   1.807
  741TIP3    H1 2229   3.421   0.238   1.867
  741TIP3    H2 2230   3.400   0.345   1.762
  742TIP3   OH2 2231   4.834   0.312   4.620
  742TIP3    H1 2232   4.767   0.245   4.631
  742TIP3    H2 2233   4.906   0.266   4.577
  743TIP3   OH2 2234   1.910   4.058   3.698
  743TIP3    H1 2235   1.915   4.023   3.609
  743TIP3    H2 2236   1.978   4.125   3.702
  744TIP3   OH2 2237   4.624   4.069   1.475
  744TIP3    H1 2238   4.660   4.082   1.387
  744TIP3    H2 2239   4.662   3.987   1.505
  745TIP3   OH2 2240   2.512   5.323   0.616
  745TIP3    H1 2241   2.594   5.373   0.626
  745TIP3    H2 2242   2.533   5.256   0.551
  746TIP3   OH2 2243   4.500   2.144   2.251
  746TIP3    H1 2244   4.519   2.051   2.269
  746TIP3    H2 2245   4.408   2.144   2.226
  747TIP3   OH2 2246   3.219   1.814   1.621
  747TIP3    H1 2247   3.184   1.897   1.654
  747TIP3    H2 2248   3.235   1.762   1.700
  748TIP3   OH2 2249   1.022   0.296   0.938
  748TIP3    H1 2250   0.932   0.329   0.947
  748TIP3    H2 2251   1.061   0.312   1.024
  749TIP3   OH2 2252   3.715   3.461   2.118
  749TIP3    H1 2253   3.719   3.513   2.037
  749TIP3    H2 2254   3.764   3.381   2.098
  750TIP3   OH2 2255   5.137   1.110   0.659
  750TIP3    H1 2256   5.092   1.062   0.589
  750TIP3    H2 2257   5.103   1.199   0.652
  751TIP3   OH2 2258   0.941   3.007   3.430
  751TIP3    H1 2259   1.008   2.967   3.485
  751TIP3    H2 2260   0.955   3.101   3.438
  752TIP3   OH2 2261   3.432   4.719   1.698
  752TIP3    H1 2262   3.360   4.769   1.660
  752TIP3    H2 2263   3.511   4.752   1.654
  753TIP3   OH2 2264   2.004   2.379   0.428
  753TIP3    H1 2265   1.953   2.394   0.348
  753TIP3    H2 2266   2.047   2.294   0.414
  754TIP3   OH2 2267   2.379   0.080   4.048
  754TIP3    H1 2268   2.286   0.094   4.034
  754TIP3    H2 2269   2.414   0.054   3.963
  755TIP3   OH2 2270   2.937   3.710   2.944
  755TIP3    H1 2271   2.895   3.642   2.892
  755TIP3    H2 2272   2.963   3.777   2.881
  756TIP3   OH2 2273   2.446   1.644   2.576
  756TIP3    H1 2274   2.517   1.652   2.512
  756TIP3    H2 2275   2.433   1.733   2.608
  757TIP3   OH2 2276   1.194   1.767   0.538
  757TIP3    H1 2277   1.106   1.805   0.538
  757TIP3    H2 2278   1.253   1.842   0.540
  758TIP3   OH2 2279   3.472   5.521   3.508
  758TIP3    H1 2280   3.410   5.463   3.553
  758TIP3    H2 2281   3.546   5.465   3.486
  759TIP3   OH2 2282   1.258   4.703   3.285
  759TIP3    H1 2283   1.186   4.756   3.319
  759TIP3    H2 2284   1.302   4.759   3.221
  760TIP3   OH2 2285   2.005   1.316   2.096
  760TIP3    H1 2286   2.041   1.228   2.105
  760TIP3    H2 2287   2.026   1.342   2.006
  761TIP3   OH2 2288   5.910   1.682   1.390
  761TIP3    H1 2289   5.829   1.716   1.428
  761TIP3    H2 2290   5.951   1.758   1.348
  762TIP3   OH2 2291   2.742   2.303   2.190
  762TIP3    H1 2292   2.648   2.316   2.181
  762TIP3    H2 2293   2.781   2.383   2.156
  763TIP3   OH2 2294   0.777   3.689   1.997
  763TIP3    H1 2295   0.832   3.765   2.018
  763TIP3    H2 2296   0.756   3.651   2.083
  764TIP3   OH2 2297   2.581   2.546   3.327
  764TIP3    H1 2298   2.613   2.612   3.389
  764TIP3    H2 2299   2.608   2.462   3.365
  765TIP3   OH2 2300   4.699   4.095   0.255
  765TIP3    H1 2301   4.633   4.137   0.200
  765TIP3    H2 2302   4.701   4.005   0.225
  766TIP3   OH2 2303   0.802   2.546   2.989
  766TIP3    H1 2304   0.874   2.506   3.037
  766TIP3    H2 2305   0.839   2.626   2.951
  767TIP3   OH2 2306   5.164   1.411   1.681
  767TIP3    H1 2307   5.103   1.348   1.719
  767TIP3    H2 2308   5.243   1.360   1.664
  768TIP3   OH2 2309   0.916   2.678   3.659
  768TIP3    H1 2310   0.842   2.659   3.715
  768TIP3    H2 2311   0.878   2.694   3.573
  769TIP3   OH2 2312   4.062   3.606   4.903
  769TIP3    H1 2313   3.980   3.602   4.855
  769TIP3    H2 2314   4.036   3.602   4.995
  770TIP3   OH2 2315   4.776   5.410   2.284
  770TIP3    H1 2316   4.729   5.479   2.236
  770TIP3    H2 2317   4.858   5.399   2.235
  771TIP3   OH2 2318   0.916   4.033   4.895
  771TIP3    H1 2319   0.884   4.122   4.876
  771TIP3    H2 2320   0.974   4.013   4.821
  772TIP3   OH2 2321   5.120   3.736   4.466
  772TIP3    H1 2322   5.113   3.705   4.376
  772TIP3    H2 2323   5.050   3.801   4.475
  773TIP3   OH2 2324   5.485   3.141   4.449
  773TIP3    H1 2325   5.548   3.079   4.411
  773TIP3    H2 2326   5.399   3.105   4.425
  774TIP3   OH2 2327   0.478   3.594   3.745
  774TIP3    H1 2328   0.484   3.667   3.683
  774TIP3    H2 2329   0.527   3.625   3.822
  775TIP3   OH2 2330   6.278   4.689   3.343
  775TIP3    H1 2331   6.344   4.756   3.323
  775TIP3    H2 2332   6.197   4.723   3.305
  776TIP3   OH2 2333   2.157   4.068   2.868
  776TIP3    H1 2334   2.248   4.044   2.883
  776TIP3    H2 2335   2.119   4.074   2.956
  777TIP3   OH2 2336   0.342   4.985   3.146
  777TIP3    H1 2337   0.344   4.958   3.054
  777TIP3    H2 2338   0.392   5.067   3.148
  778TIP3   OH2 2339   4.019   3.960   5.167
  778TIP3    H1 2340   4.013   4.053   5.185
  778TIP3    H2 2341   4.066   3.953   5.084
  779TIP3   OH2 2342   6.319   3.160   4.562
  779TIP3    H1 2343   6.303   3.168   4.468
  779TIP3    H2 2344   6.407   3.196   4.574
  780TIP3   OH2 2345   1.306   0.546   3.241
  780TIP3    H1 2346   1.354   0.478   3.289
  780TIP3    H2 2347   1.372   0.612   3.220
  781TIP3   OH2 2348   1.623   2.740   4.395
  781TIP3    H1 2349   1.596   2.720   4.306
  781TIP3    H2 2350   1.636   2.835   4.397
  782TIP3   OH2 2351   0.567   5.708   3.476
  782TIP3    H1 2352   0.487   5.759   3.465
  782TIP3    H2 2353   0.544   5.641   3.541
  783TIP3   OH2 2354   0.527   5.588   2.982
  783TIP3    H1 2355   0.440   5.608   2.946
  783TIP3    H2 2356   0.557   5.513   2.931
  784TIP3   OH2 2357   5.747   2.315   0.602
  784TIP3    H1 2358   5.658   2.347   0.612
  784TIP3    H2 2359   5.745   2.224   0.632
  785TIP3   OH2 2360   5.807   4.234   0.291
  785TIP3    H1 2361   5.767   4.176   0.226
  785TIP3    H2 2362   5.871   4.285   0.242
  786TIP3   OH2 2363   3.753   0.131   1.086
  786TIP3    H1 2364   3.701   0.144   1.166
  786TIP3    H2 2365   3.835   0.093   1.118
  787TIP3   OH2 2366   0.437   3.048   3.626
  787TIP3    H1 2367   0.504   2.982   3.605
  787TIP3    H2 2368   0.456   3.119   3.565
  788TIP3   OH2 2369   0.316   1.685   3.266
  788TIP3    H1 2370   0.289   1.709   3.355
  788TIP3    H2 2371   0.269   1.604   3.248
  789TIP3   OH2 2372   1.653   2.891   0.690
  789TIP3    H1 2373   1.732   2.895   0.636
  789TIP3    H2 2374   1.686   2.878   0.779
  790TIP3   OH2 2375   3.918   4.522   2.921
  790TIP3    H1 2376   3.829   4.502   2.949
  790TIP3    H2 2377   3.920   4.497   2.828
  791TIP3   OH2 2378   0.525   0.627   2.458
  791TIP3    H1 2379   0.514   0.553   2.398
  791TIP3    H2 2380   0.503   0.704   2.405
  792TIP3   OH2 2381   5.237   3.621   2.208
  792TIP3    H1 2382   5.306   3.557   2.191
  792TIP3    H2 2383   5.180   3.616   2.131
  793TIP3   OH2 2384   5.081   1.054   4.364
  793TIP3    H1 2385   5.152   1.117   4.351
  793TIP3    H2 2386   5.125   0.970   4.373
  794TIP3   OH2 2387   5.726   5.458   2.385
  794TIP3    H1 2388   5.635   5.485   2.403
  794TIP3    H2 2389   5.763   5.531   2.337
  795TIP3   OH2 2390   1.952   1.311   1.077
  795TIP3    H1 2391   1.955   1.279   0.987
  795TIP3    H2 2392   1.896   1.389   1.072
  796TIP3   OH2 2393   4.934   3.960   3.784
  796TIP3    H1 2394   4.973   3.913   3.711
  796TIP3    H2 2395   4.912   4.046   3.748
  797TIP3   OH2 2396   1.778   4.907   5.034
  797TIP3    H1 2397   1.803   4.920   4.943
  797TIP3    H2 2398   1.770   4.812   5.045
  798TIP3   OH2 2399   2.950   3.333   0.658
  798TIP3    H1 2400   2.904   3.267   0.711
  798TIP3    H2 2401   2.907   3.328   0.572
  799TIP3   OH2 2402   4.791   2.004   3.541
  799TIP3    H1 2403   4.861   2.010   3.477
  799TIP3    H2 2404   4.835   2.003   3.626
  800TIP3   OH2 2405   4.960   3.376   0.731
  800TIP3    H1 2406   5.038   3.343   0.776
  800TIP3    H2 2407   4.991   3.405   0.646
  801TIP3   OH2 2408   1.712   3.793   2.717
  801TIP3    H1 2409   1.691   3.856   2.786
  801TIP3    H2 2410   1.655   3.719   2.734
  802TIP3   OH2 2411   1.046   2.078   2.238
  802TIP3    H1 2412   1.087   2.144   2.294
  802TIP3    H2 2413   1.120   2.035   2.195
  803TIP3   OH2 2414   5.305   0.198   2.528
  803TIP3    H1 2415   5.287   0.198   2.622
  803TIP3    H2 2416   5.218   0.194   2.487
  804TIP3   OH2 2417   3.114   4.376   0.928
  804TIP3    H1 2418   3.159   4.422   0.858
  804TIP3    H2 2419   3.178   4.369   0.998
  805TIP3   OH2 2420   0.164   5.524   2.299
  805TIP3    H1 2421   0.240   5.528   2.240
  805TIP3    H2 2422   0.161   5.432   2.326
  806TIP3   OH2 2423   4.015   2.494   0.804
  806TIP3    H1 2424   4.103   2.474   0.772
  806TIP3    H2 2425   4.006   2.589   0.794
  807TIP3   OH2 2426   5.270   1.813   4.096
  807TIP3    H1 2427   5.275   1.835   4.189
  807TIP3    H2 2428   5.300   1.722   4.091
  808TIP3   OH2 2429   1.088   3.671   4.882
  808TIP3    H1 2430   0.995   3.651   4.889
  808TIP3    H2 2431   1.125   3.643   4.966
  809TIP3   OH2 2432   3.856   0.251   2.889
  809TIP3    H1 2433   3.947   0.275   2.872
  809TIP3    H2 2434   3.808   0.283   2.812
  810TIP3   OH2 2435   5.048   0.194   0.403
  810TIP3    H1 2436   5.134   0.188   0.362
  810TIP3    H2 2437   4.992   0.236   0.338
  811TIP3   OH2 2438   6.048   5.812   2.307
  811TIP3    H1 2439   6.034   5.850   2.394
  811TIP3    H2 2440   6.118   5.748   2.321
  812TIP3   OH2 2441   2.022   5.778   0.326
  812TIP3    H1 2442   1.995   5.851   0.271
  812TIP3    H2 2443   2.108   5.753   0.292
  813TIP3   OH2 2444   3.752   2.858   3.949
  813TIP3    H1 2445   3.747   2.800   4.025
  813TIP3    H2 2446   3.737   2.945   3.984
  814TIP3   OH2 2447   1.786   3.040   3.626
  814TIP3    H1 2448   1.841   2.963   3.641
  814TIP3    H2 2449   1.705   3.004   3.588
  815TIP3   OH2 2450   3.798   4.946   2.651
  815TIP3    H1 2451   3.859   4.937   2.725
  815TIP3    H2 2452   3.839   5.012   2.595
  816TIP3   OH2 2453   3.236   0.820   3.846
  816TIP3    H1 2454   3.213   0.898   3.897
  816TIP3    H2 2455   3.318   0.790   3.884
  817TIP3   OH2 2456   3.968   2.073   2.145
  817TIP3    H1 2457   3.882   2.038   2.169
  817TIP3    H2 2458   3.966   2.078   2.050
  818TIP3   OH2 2459   1.011   5.394   2.056
  818TIP3    H1 2460   0.929   5.391   2.103
  818TIP3    H2 2461   1.067   5.451   2.109
  819TIP3   OH2 2462   2.641   4.163   1.834
  819TIP3    H1 2463   2.613   4.128   1.918
  819TIP3    H2 2464   2.633   4.089   1.773
  820TIP3   OH2 2465   0.871   1.448   4.711
  820TIP3    H1 2466   0.856   1.392   4.787
  820TIP3    H2 2467   0.789   1.443   4.661
  821TIP3   OH2 2468   3.625   1.924   0.761
  821TIP3    H1 2469   3.622   1.862   0.834
  821TIP3    H2 2470   3.597   2.007   0.799
  822TIP3   OH2 2471   5.948   5.668   0.919
  822TIP3    H1 2472   6.032   5.630   0.945
  822TIP3    H2 2473   5.908   5.697   1.002
  823TIP3   OH2 2474   2.699   1.435   2.400
  823TIP3    H1 2475   2.619   1.449   2.349
  823TIP3    H2 2476   2.689   1.346   2.435
  824TIP3   OH2 2477   0.237   1.966   1.328
  824TIP3    H1 2478   0.202   1.883   1.295
  824TIP3    H2 2479   0.168   2.030   1.312
  825TIP3   OH2 2480   4.214   5.387   3.281
  825TIP3    H1 2481   4.176   5.334   3.211
  825TIP3    H2 2482   4.231   5.324   3.352
  826TIP3   OH2 2483   1.058   3.611   3.439
  826TIP3    H1 2484   0.994   3.609   3.509
  826TIP3    H2 2485   1.079   3.704   3.428
  827TIP3   OH2 2486   3.225   3.579   1.771
  827TIP3    H1 2487   3.189   3.621   1.693
  827TIP3    H2 2488   3.174   3.614   1.844
  828TIP3   OH2 2489   2.671   3.025   1.911
  828TIP3    H1 2490   2.612   3.053   1.841
  828TIP3    H2 2491   2.619   2.964   1.963
  829TIP3   OH2 2492   5.775   0.437   4.003
  829TIP3    H1 2493   5.812   0.354   4.034
  829TIP3    H2 2494   5.818   0.504   4.056
  830TIP3   OH2 2495   0.714   2.504   4.028
  830TIP3    H1 2496   0.663   2.453   4.090
  830TIP3    H2 2497   0.794   2.453   4.014
  831TIP3   OH2 2498   2.163   3.458   3.855
  831TIP3    H1 2499   2.161   3.532   3.794
  831TIP3    H2 2500   2.254   3.428   3.854
  832TIP3   OH2 2501   1.870   5.760   4.836
  832TIP3    H1 2502   1.826   5.774   4.920
  832TIP3    H2 2503   1.932   5.689   4.853
  833TIP3   OH2 2504   2.139   2.425   4.012
  833TIP3    H1 2505   2.140   2.458   3.922
  833TIP3    H2 2506   2.047   2.406   4.030
  834TIP3   OH2 2507   1.448   4.171   0.341
  834TIP3    H1 2508   1.419   4.180   0.250
  834TIP3    H2 2509   1.474   4.259   0.367
  835TIP3   OH2 2510   4.855   4.511   3.637
  835TIP3    H1 2511   4.795   4.571   3.680
  835TIP3    H2 2512   4.936   4.562   3.626
  836TIP3   OH2 2513   3.742   0.890   1.709
  836TIP3    H1 2514   3.657   0.908   1.669
  836TIP3    H2 2515   3.726   0.815   1.767
  837TIP3   OH2 2516   3.741   1.829   4.902
  837TIP3    H1 2517   3.780   1.793   4.982
  837TIP3    H2 2518   3.712   1.752   4.853
  838TIP3   OH2 2519   0.576   0.794   3.791
  838TIP3    H1 2520   0.565   0.880   3.750
  838TIP3    H2 2521   0.515   0.737   3.743
  839TIP3   OH2 2522   0.050   4.377   1.801
  839TIP3    H1 2523   0.101   4.342   1.728
  839TIP3    H2 2524   0.040   4.303   1.862
  840TIP3   OH2 2525   3.978   5.836   4.250
  840TIP3    H1 2526   4.005   5.787   4.328
  840TIP3    H2 2527   3.945   5.770   4.190
  841TIP3   OH2 2528   1.550   2.160   0.928
  841TIP3    H1 2529   1.505   2.125   1.004
  841TIP3    H2 2530   1.494   2.137   0.854
  842TIP3   OH2 2531   1.517   3.145   0.873
  842TIP3    H1 2532   1.491   3.109   0.788
  842TIP3    H2 2533   1.572   3.077   0.912
  843TIP3   OH2 2534   4.494   0.882   3.627
  843TIP3    H1 2535   4.473   0.810   3.568
  843TIP3    H2 2536   4.457   0.959   3.584
  844TIP3   OH2 2537   6.112   5.822   1.249
  844TIP3    H1 2538   6.121   5.822   1.154
  844TIP3    H2 2539   6.197   5.851   1.281
  845TIP3   OH2 2540   3.856   5.175   0.788
  845TIP3    H1 2541   3.947   5.188   0.762
  845TIP3    H2 2542   3.860   5.104   0.853
  846TIP3   OH2 2543   5.558   3.465   0.645
  846TIP3    H1 2544   5.482   3.510   0.681
  846TIP3    H2 2545   5.631   3.526   0.658
  847TIP3   OH2 2546   4.120   5.544   2.509
  847TIP3    H1 2547   4.193   5.487   2.533
  847TIP3    H2 2548   4.048   5.515   2.565
  848TIP3   OH2 2549   1.460   2.789   3.821
  848TIP3    H1 2550   1.466   2.693   3.815
  848TIP3    H2 2551   1.395   2.804   3.890
  849TIP3   OH2 2552   1.766   1.102   2.340
  849TIP3    H1 2553   1.779   1.190   2.372
  849TIP3    H2 2554   1.849   1.078   2.300
  850TIP3   OH2 2555   2.209   3.681   1.821
  850TIP3    H1 2556   2.238   3.710   1.735
  850TIP3    H2 2557   2.154   3.605   1.804
  851TIP3   OH2 2558   4.783   0.550   2.038
  851TIP3    H1 2559   4.782   0.468   2.087
  851TIP3    H2 2560   4.696   0.588   2.053
  852TIP3   OH2 2561   4.708   5.210   0.489
  852TIP3    H1 2562   4.769   5.180   0.422
  852TIP3    H2 2563   4.700   5.137   0.550
  853TIP3   OH2 2564   1.415   2.561   0.967
  853TIP3    H1 2565   1.427   2.655   0.969
  853TIP3    H2 2566   1.455   2.529   1.048
  854TIP3   OH2 2567   2.562   2.977   0.273
  854TIP3    H1 2568   2.630   2.931   0.224
  854TIP3    H2 2569   2.482   2.930   0.252
  855TIP3   OH2 2570   3.291   5.599   0.458
  855TIP3    H1 2571   3.314   5.618   0.367
  855TIP3    H2 2572   3.268   5.507   0.458
  856TIP3   OH2 2573   2.997   5.925   1.686
  856TIP3    H1 2574   2.933   5.949   1.619
  856TIP3    H2 2575   2.954   5.856   1.737
  857TIP3   OH2 2576   5.925   3.250   3.498
  857TIP3    H1 2577   5.995   3.203   3.543
  857TIP3    H2 2578   5.889   3.308   3.565
  858TIP3   OH2 2579   0.259   5.666   2.919
  858TIP3    H1 2580   0.185   5.654   2.978
  858TIP3    H2 2581   0.222   5.707   2.841
  859TIP3   OH2 2582   3.138   0.557   1.383
  859TIP3    H1 2583   3.212   0.551   1.322
  859TIP3    H2 2584   3.129   0.651   1.401
  860TIP3   OH2 2585   1.784   2.603   3.703
  860TIP3    H1 2586   1.844   2.553   3.648
  860TIP3    H2 2587   1.818   2.693   3.700
  861TIP3   OH2 2588   4.894   4.748   1.870
  861TIP3    H1 2589   4.799   4.751   1.874
  861TIP3    H2 2590   4.920   4.708   1.953
  862TIP3   OH2 2591   6.243   2.223   1.595
  862TIP3    H1 2592   6.317   2.163   1.594
  862TIP3    H2 2593   6.278   2.304   1.631
  863TIP3   OH2 2594   3.220   5.554   1.927
  863TIP3    H1 2595   3.228   5.605   2.008
  863TIP3    H2 2596   3.250   5.614   1.858
  864TIP3   OH2 2597   4.563   1.610   2.546
  864TIP3    H1 2598   4.547   1.519   2.523
  864TIP3    H2 2599   4.479   1.654   2.532
  865TIP3   OH2 2600   3.940   5.491   2.706
  865TIP3    H1 2601   3.929   5.418   2.766
  865TIP3    H2 2602   3.941   5.568   2.763
  866TIP3   OH2 2603   4.325   3.195  -0.030
  866TIP3    H1 2604   4.314   3.102  -0.011
  866TIP3    H2 2605   4.305   3.238   0.052
  867TIP3   OH2 2606   5.316   1.392   2.515
  867TIP3    H1 2607   5.288   1.398   2.424
  867TIP3    H2 2608   5.402   1.435   2.517
  868TIP3   OH2 2609   1.995   0.850   3.796
  868TIP3    H1 2610   2.022   0.914   3.862
  868TIP3    H2 2611   1.901   0.837   3.813
  869TIP3   OH2 2612   1.176   1.671   2.192
  869TIP3    H1 2613   1.148   1.613   2.122
  869TIP3    H2 2614   1.170   1.618   2.272
  870TIP3   OH2 2615   1.269   2.812   4.037
  870TIP3    H1 2616   1.254   2.719   4.048
  870TIP3    H2 2617   1.208   2.854   4.099
  871TIP3   OH2 2618   3.737   5.629   4.350
  871TIP3    H1 2619   3.674   5.584   4.293
  871TIP3    H2 2620   3.820   5.584   4.333
  872TIP3   OH2 2621   0.432   5.524   2.188
  872TIP3    H1 2622   0.448   5.618   2.200
  872TIP3    H2 2623   0.470   5.483   2.265
  873TIP3   OH2 2624   0.741   2.817   2.668
  873TIP3    H1 2625   0.655   2.823   2.710
  873TIP3    H2 2626   0.802   2.803   2.741
  874TIP3   OH2 2627   4.038   5.915   3.410
  874TIP3    H1 2628   3.983   5.838   3.395
  874TIP3    H2 2629   3.996   5.961   3.483
  875TIP3   OH2 2630   3.470   2.420   2.568
  875TIP3    H1 2631   3.442   2.506   2.597
  875TIP3    H2 2632   3.466   2.365   2.646
  876TIP3   OH2 2633   4.871   1.699   3.683
  876TIP3    H1 2634   4.906   1.786   3.705
  876TIP3    H2 2635   4.829   1.669   3.763
  877TIP3   OH2 2636   4.640   1.835   2.036
  877TIP3    H1 2637   4.642   1.918   1.987
  877TIP3    H2 2638   4.547   1.813   2.041
  878TIP3   OH2 2639   2.976   0.205   0.556
  878TIP3    H1 2640   3.020   0.131   0.598
  878TIP3    H2 2641   2.883   0.190   0.569
  879TIP3   OH2 2642   6.188   2.098   4.964
  879TIP3    H1 2643   6.169   2.022   5.019
  879TIP3    H2 2644   6.112   2.106   4.907
  880TIP3   OH2 2645   0.048   2.285   5.138
  880TIP3    H1 2646   0.092   2.219   5.084
  880TIP3    H2 2647   0.074   2.369   5.099
  881TIP3   OH2 2648   0.234   2.870   3.130
  881TIP3    H1 2649   0.245   2.814   3.207
  881TIP3    H2 2650   0.206   2.954   3.166
  882TIP3   OH2 2651   0.317   1.216   4.050
  882TIP3    H1 2652   0.393   1.170   4.016
  882TIP3    H2 2653   0.319   1.302   4.008
  883TIP3   OH2 2654   5.541   0.312   2.469
  883TIP3    H1 2655   5.448   0.291   2.473
  883TIP3    H2 2656   5.582   0.236   2.428
  884TIP3   OH2 2657   2.722   1.983   4.728
  884TIP3    H1 2658   2.760   1.946   4.807
  884TIP3    H2 2659   2.747   2.076   4.731
  885TIP3   OH2 2660   4.707   3.969   2.459
  885TIP3    H1 2661   4.713   3.913   2.536
  885TIP3    H2 2662   4.661   3.915   2.394
  886TIP3   OH2 2663   1.667   5.086   0.452
  886TIP3    H1 2664   1.720   5.147   0.503
  886TIP3    H2 2665   1.723   5.008   0.442
  887TIP3   OH2 2666   4.691   3.773   4.893
  887TIP3    H1 2667   4.670   3.682   4.874
  887TIP3    H2 2668   4.785   3.780   4.878
  888TIP3   OH2 2669   5.060   1.329   4.475
  888TIP3    H1 2670   4.995   1.354   4.540
  888TIP3    H2 2671   5.027   1.246   4.439
  889TIP3   OH2 2672   5.759   4.858   3.315
  889TIP3    H1 2673   5.740   4.775   3.271
  889TIP3    H2 2674   5.745   4.840   3.408
  890TIP3   OH2 2675   5.659   5.144   4.575
  890TIP3    H1 2676   5.616   5.059   4.589
  890TIP3    H2 2677   5.619   5.179   4.496
  891TIP3   OH2 2678   6.277   0.360   0.257
  891TIP3    H1 2679   6.316   0.365   0.344
  891TIP3    H2 2680   6.342   0.314   0.204
  892TIP3   OH2 2681   1.175   2.794   2.964
  892TIP3    H1 2682   1.169   2.731   2.892
  892TIP3    H2 2683   1.263   2.831   2.956
  893TIP3   OH2 2684   5.073   2.552   2.916
  893TIP3    H1 2685   5.079   2.561   2.821
  893TIP3    H2 2686   5.078   2.458   2.932
  894TIP3   OH2 2687   3.970   1.474   0.576
  894TIP3    H1 2688   4.055   1.471   0.621
  894TIP3    H2 2689   3.918   1.535   0.629
  895TIP3   OH2 2690   3.165   4.662   1.423
  895TIP3    H1 2691   3.091   4.627   1.373
  895TIP3    H2 2692   3.127   4.735   1.472
  896TIP3   OH2 2693   4.593   0.478   4.521
  896TIP3    H1 2694   4.567   0.511   4.608
  896TIP3    H2 2695   4.636   0.395   4.539
  897TIP3   OH2 2696   0.425   5.366   1.972
  897TIP3    H1 2697   0.399   5.411   2.053
  897TIP3    H2 2698   0.489   5.423   1.932
  898TIP3   OH2 2699   5.514   1.367   4.002
  898TIP3    H1 2700   5.535   1.431   4.070
  898TIP3    H2 2701   5.508   1.283   4.048
  899TIP3   OH2 2702   5.524   5.061   3.727
  899TIP3    H1 2703   5.537   4.995   3.795
  899TIP3    H2 2704   5.600   5.119   3.735
  900TIP3   OH2 2705   2.724   3.969   0.792
  900TIP3    H1 2706   2.718   3.887   0.841
  900TIP3    H2 2707   2.780   3.948   0.717
  901TIP3   OH2 2708   2.327   0.441   4.803
  901TIP3    H1 2709   2.354   0.420   4.713
  901TIP3    H2 2710   2.409   0.458   4.849
  902TIP3   OH2 2711   3.036   0.529   2.891
  902TIP3    H1 2712   2.977   0.461   2.925
  902TIP3    H2 2713   3.114   0.481   2.864
  903TIP3   OH2 2714   2.740   4.285   3.863
  903TIP3    H1 2715   2.687   4.219   3.906
  903TIP3    H2 2716   2.720   4.366   3.910
  904TIP3   OH2 2717   5.577   1.690   3.430
  904TIP3    H1 2718   5.570   1.666   3.337
  904TIP3    H2 2719   5.552   1.611   3.477
  905TIP3   OH2 2720   1.917   0.570  -0.002
  905TIP3    H1 2721   1.822   0.576   0.009
  905TIP3    H2 2722   1.951   0.562   0.087
  906TIP3   OH2 2723   5.090   5.693   2.539
  906TIP3    H1 2724   5.054   5.608   2.565
  906TIP3    H2 2725   5.170   5.702   2.591
  907TIP3   OH2 2726   0.573   3.946   0.498
  907TIP3    H1 2727   0.504   3.988   0.447
  907TIP3    H2 2728   0.525   3.892   0.561
  908TIP3   OH2 2729   0.964   0.937   3.554
  908TIP3    H1 2730   0.915   0.984   3.487
  908TIP3    H2 2731   0.931   0.847   3.548
  909TIP3   OH2 2732   6.042   2.883   3.351
  909TIP3    H1 2733   6.097   2.957   3.325
  909TIP3    H2 2734   5.972   2.881   3.287
  910TIP3   OH2 2735   3.254   3.122   3.089
  910TIP3    H1 2736   3.182   3.172   3.052
  910TIP3    H2 2737   3.276   3.168   3.170
  911TIP3   OH2 2738   5.514   5.260   4.370
  911TIP3    H1 2739   5.484   5.236   4.283
  911TIP3    H2 2740   5.572   5.335   4.356
  912TIP3   OH2 2741   5.721   5.023   1.293
  912TIP3    H1 2742   5.689   4.955   1.352
  912TIP3    H2 2743   5.788   5.069   1.343
  913TIP3   OH2 2744   0.120   2.487   2.008
  913TIP3    H1 2745   0.181   2.415   2.023
  913TIP3    H2 2746   0.174   2.566   2.014
  914TIP3   OH2 2747   0.777   1.032   5.128
  914TIP3    H1 2748   0.738   1.076   5.204
  914TIP3    H2 2749   0.835   0.967   5.165
  915TIP3   OH2 2750   4.387   0.422   0.413
  915TIP3    H1 2751   4.322   0.352   0.411
  915TIP3    H2 2752   4.463   0.387   0.366
  916TIP3   OH2 2753   2.965   4.297   1.373
  916TIP3    H1 2754   2.946   4.320   1.282
  916TIP3    H2 2755   2.910   4.221   1.390
  917TIP3   OH2 2756   3.771   2.450   1.114
  917TIP3    H1 2757   3.718   2.386   1.162
  917TIP3    H2 2758   3.709   2.492   1.055
  918TIP3   OH2 2759   4.175   2.812   1.707
  918TIP3    H1 2760   4.181   2.889   1.650
  918TIP3    H2 2761   4.113   2.754   1.663
  919TIP3   OH2 2762   3.867   0.502   2.228
  919TIP3    H1 2763   3.862   0.534   2.138
  919TIP3    H2 2764   3.960   0.510   2.251
  920TIP3   OH2 2765   1.042   4.677   1.903
  920TIP3    H1 2766   1.032   4.598   1.850
  920TIP3    H2 2767   1.025   4.749   1.842
  921TIP3   OH2 2768   2.813   4.978   1.810
  921TIP3    H1 2769   2.745   4.933   1.759
  921TIP3    H2 2770   2.767   5.053   1.849
  922TIP3   OH2 2771   0.624   3.927   1.399
  922TIP3    H1 2772   0.631   3.901   1.491
  922TIP3    H2 2773   0.636   3.845   1.350
  923TIP3   OH2 2774   4.777   2.636   2.619
  923TIP3    H1 2775   4.692   2.636   2.576
  923TIP3    H2 2776   4.769   2.703   2.687
  924TIP3   OH2 2777   2.202   4.274   4.233
  924TIP3    H1 2778   2.278   4.306   4.282
  924TIP3    H2 2779   2.127   4.300   4.286
  925TIP3   OH2 2780   2.983   5.023   0.537
  925TIP3    H1 2781   2.993   5.049   0.446
  925TIP3    H2 2782   3.019   5.096   0.587
  926TIP3   OH2 2783   1.274   3.955   1.143
  926TIP3    H1 2784   1.357   3.908   1.148
  926TIP3    H2 2785   1.223   3.906   1.078
  927TIP3   OH2 2786   3.685  -0.008   3.969
  927TIP3    H1 2787   3.757   0.051   3.992
  927TIP3    H2 2788   3.687  -0.011   3.873
  928TIP3   OH2 2789   0.902   2.244   4.358
  928TIP3    H1 2790   0.879   2.323   4.406
  928TIP3    H2 2791   0.933   2.183   4.425
  929TIP3   OH2 2792   6.225   5.412   0.766
  929TIP3    H1 2793   6.197   5.489   0.717
  929TIP3    H2 2794   6.318   5.403   0.745
  930TIP3   OH2 2795   0.484   3.738   4.252
  930TIP3    H1 2796   0.421   3.788   4.304
  930TIP3    H2 2797   0.540   3.695   4.317
  931TIP3   OH2 2798   1.110   4.393   1.825
  931TIP3    H1 2799   1.169   4.389   1.749
  931TIP3    H2 2800   1.153   4.340   1.892
  932TIP3   OH2 2801   3.988   5.355   4.822
  932TIP3    H1 2802   3.970   5.433   4.770
  932TIP3    H2 2803   4.052   5.306   4.770
  933TIP3   OH2 2804   3.601   4.953   0.043
  933TIP3    H1 2805   3.599   5.021   0.110
  933TIP3    H2 2806   3.669   4.982  -0.018
  934TIP3   OH2 2807   5.056   3.093   3.871
  934TIP3    H1 2808   5.014   3.171   3.835
  934TIP3    H2 2809   4.986   3.028   3.876
  935TIP3   OH2 2810   4.013   1.060   4.474
  935TIP3    H1 2811   4.055   1.132   4.427
  935TIP3    H2 2812   4.072   0.986   4.464
  936TIP3   OH2 2813   0.196   0.594   4.278
  936TIP3    H1 2814   0.269   0.650   4.253
  936TIP3    H2 2815   0.165   0.556   4.196
  937TIP3   OH2 2816   2.743   2.910   2.273
  937TIP3    H1 2817   2.821   2.870   2.310
  937TIP3    H2 2818   2.674   2.844   2.285
  938TIP3   OH2 2819   4.554   5.097   0.832
  938TIP3    H1 2820   4.594   5.049   0.760
  938TIP3    H2 2821   4.629   5.128   0.884
  939TIP3   OH2 2822   5.837   4.396   1.932
  939TIP3    H1 2823   5.763   4.335   1.926
  939TIP3    H2 2824   5.799   4.482   1.920
  940TIP3   OH2 2825   6.261   1.996   2.318
  940TIP3    H1 2826   6.234   2.035   2.401
  940TIP3    H2 2827   6.233   1.905   2.323
  941TIP3   OH2 2828   3.856   1.889   1.543
  941TIP3    H1 2829   3.791   1.840   1.593
  941TIP3    H2 2830   3.805   1.936   1.478
  942TIP3   OH2 2831   5.969   3.810   1.292
  942TIP3    H1 2832   6.062   3.825   1.275
  942TIP3    H2 2833   5.952   3.722   1.259
  943TIP3   OH2 2834   4.541   2.421   2.665
  943TIP3    H1 2835   4.513   2.329   2.666
  943TIP3    H2 2836   4.578   2.434   2.577
  944TIP3   OH2 2837   0.186   2.349   1.487
  944TIP3    H1 2838   0.246   2.423   1.489
  944TIP3    H2 2839   0.161   2.341   1.395
  945TIP3   OH2 2840   3.496   1.456   1.913
  945TIP3    H1 2841   3.560   1.385   1.917
  945TIP3    H2 2842   3.509   1.505   1.994
  946TIP3   OH2 2843   5.598   1.877   0.027
  946TIP3    H1 2844   5.629   1.905   0.114
  946TIP3    H2 2845   5.565   1.956  -0.014
  947TIP3   OH2 2846   2.573   3.802   2.212
  947TIP3    H1 2847   2.551   3.709   2.220
  947TIP3    H2 2848   2.666   3.803   2.188
  948TIP3   OH2 2849   4.433   2.103   3.011
  948TIP3    H1 2850   4.470   2.164   3.076
  948TIP3    H2 2851   4.339   2.108   3.025
  949TIP3   OH2 2852   1.215   4.246   2.077
  949TIP3    H1 2853   1.189   4.312   2.141
  949TIP3    H2 2854   1.264   4.181   2.127
  950TIP3   OH2 2855   1.175   3.459   0.155
  950TIP3    H1 2856   1.216   3.423   0.234
  950TIP3    H2 2857   1.137   3.542   0.184
  951TIP3   OH2 2858   2.983   5.192   1.730
  951TIP3    H1 2859   2.928   5.180   1.807
  951TIP3    H2 2860   3.010   5.103   1.706
  952TIP3   OH2 2861   1.754   1.975   3.532
  952TIP3    H1 2862   1.784   1.954   3.444
  952TIP3    H2 2863   1.681   1.914   3.548
  953TIP3   OH2 2864   5.353   4.534   1.070
  953TIP3    H1 2865   5.440   4.560   1.040
  953TIP3    H2 2866   5.367   4.500   1.159
  954TIP3   OH2 2867   2.165   4.743   1.591
  954TIP3    H1 2868   2.082   4.732   1.544
  954TIP3    H2 2869   2.203   4.655   1.593
  955TIP3   OH2 2870   5.893   0.014   4.953
  955TIP3    H1 2871   5.853   0.096   4.983
  955TIP3    H2 2872   5.978   0.011   4.995
  956TIP3   OH2 2873   2.514   5.854   3.063
  956TIP3    H1 2874   2.546   5.840   2.973
  956TIP3    H2 2875   2.444   5.789   3.074
  957TIP3   OH2 2876   5.413   3.180   2.233
  957TIP3    H1 2877   5.330   3.203   2.274
  957TIP3    H2 2878   5.390   3.118   2.164
  958TIP3   OH2 2879   6.242   0.976   0.621
  958TIP3    H1 2880   6.272   0.923   0.695
  958TIP3    H2 2881   6.305   1.048   0.616
  959TIP3   OH2 2882   2.441   1.795   3.686
  959TIP3    H1 2883   2.464   1.704   3.666
  959TIP3    H2 2884   2.503   1.848   3.636
  960TIP3   OH2 2885   0.335   1.934   2.804
  960TIP3    H1 2886   0.247   1.905   2.784
  960TIP3    H2 2887   0.346   1.916   2.897
  961TIP3   OH2 2888   0.995   1.527   0.367
  961TIP3    H1 2889   1.010   1.615   0.333
  961TIP3    H2 2890   0.942   1.541   0.445
  962TIP3   OH2 2891   5.270   3.020   3.679
  962TIP3    H1 2892   5.213   3.000   3.753
  962TIP3    H2 2893   5.356   3.034   3.719
  963TIP3   OH2 2894   6.218   5.949   3.990
  963TIP3    H1 2895   6.275   6.003   3.936
  963TIP3    H2 2896   6.249   5.860   3.977
  964TIP3   OH2 2897   2.610   0.070   3.093
  964TIP3    H1 2898   2.535   0.128   3.078
  964TIP3    H2 2899   2.579   0.007   3.158
  965TIP3   OH2 2900   2.426   0.881   3.537
  965TIP3    H1 2901   2.372   0.812   3.499
  965TIP3    H2 2902   2.370   0.920   3.604
  966TIP3   OH2 2903   0.692   4.778   1.078
  966TIP3    H1 2904   0.780   4.770   1.042
  966TIP3    H2 2905   0.706   4.788   1.173
  967TIP3   OH2 2906   4.944   2.505   2.214
  967TIP3    H1 2907   4.950   2.537   2.304
  967TIP3    H2 2908   4.860   2.460   2.209
  968TIP3   OH2 2909   0.928   5.316   4.316
  968TIP3    H1 2910   0.939   5.378   4.244
  968TIP3    H2 2911   0.931   5.230   4.275
  969TIP3   OH2 2912   4.338   5.421   1.310
  969TIP3    H1 2913   4.366   5.336   1.346
  969TIP3    H2 2914   4.367   5.420   1.219
  970TIP3   OH2 2915   0.223   3.813   4.755
  970TIP3    H1 2916   0.224   3.909   4.749
  970TIP3    H2 2917   0.156   3.794   4.821
  971TIP3   OH2 2918   6.346   0.070   3.259
  971TIP3    H1 2919   6.294   0.016   3.319
  971TIP3    H2 2920   6.311   0.051   3.172
  972TIP3   OH2 2921   2.468   5.557   0.390
  972TIP3    H1 2922   2.466   5.529   0.482
  972TIP3    H2 2923   2.531   5.629   0.388
  973TIP3   OH2 2924   0.033   2.204   4.680
  973TIP3    H1 2925  -0.011   2.278   4.720
  973TIP3    H2 2926   0.082   2.163   4.751
  974TIP3   OH2 2927   1.493   4.874   4.913
  974TIP3    H1 2928   1.409   4.901   4.949
  974TIP3    H2 2929   1.557   4.930   4.957
  975TIP3   OH2 2930   5.344   3.204   1.049
  975TIP3    H1 2931   5.428   3.180   1.011
  975TIP3    H2 2932   5.329   3.294   1.020
  976TIP3   OH2 2933   3.805   0.965   4.591
  976TIP3    H1 2934   3.862   0.901   4.634
  976TIP3    H2 2935   3.865   1.022   4.543
  977TIP3   OH2 2936   2.751   1.675   2.133
  977TIP3    H1 2937   2.761   1.587   2.095
  977TIP3    H2 2938   2.840   1.709   2.138
  978TIP3   OH2 2939   5.758   3.424   3.636
  978TIP3    H1 2940   5.831   3.485   3.632
  978TIP3    H2 2941   5.740   3.414   3.730
  979TIP3   OH2 2942   2.747   0.369   4.007
  979TIP3    H1 2943   2.724   0.298   3.948
  979TIP3    H2 2944   2.701   0.348   4.089
  980TIP3   OH2 2945   3.202   1.193   1.242
  980TIP3    H1 2946   3.242   1.134   1.177
  980TIP3    H2 2947   3.135   1.140   1.284
  981TIP3   OH2 2948   1.310   3.597   1.725
  981TIP3    H1 2949   1.364   3.541   1.668
  981TIP3    H2 2950   1.300   3.678   1.675
  982TIP3   OH2 2951   4.615   2.287   5.186
  982TIP3    H1 2952   4.691   2.339   5.212
  982TIP3    H2 2953   4.561   2.348   5.135
  983TIP3   OH2 2954   0.442   0.171   3.434
  983TIP3    H1 2955   0.349   0.148   3.425
  983TIP3    H2 2956   0.442   0.266   3.440
  984TIP3   OH2 2957   0.843   4.987   4.727
  984TIP3    H1 2958   0.831   4.891   4.726
  984TIP3    H2 2959   0.779   5.019   4.663
  985TIP3   OH2 2960   3.459   5.301   0.831
  985TIP3    H1 2961   3.371   5.333   0.815
  985TIP3    H2 2962   3.502   5.304   0.746
  986TIP3   OH2 2963   1.687   4.933   3.650
  986TIP3    H1 2964   1.599   4.938   3.613
  986TIP3    H2 2965   1.703   4.840   3.662
  987TIP3   OH2 2966   4.633   0.904   0.894
  987TIP3    H1 2967   4.624   0.999   0.883
  987TIP3    H2 2968   4.645   0.871   0.806
  988TIP3   OH2 2969   4.855   4.203   2.084
  988TIP3    H1 2970   4.931   4.229   2.135
  988TIP3    H2 2971   4.787   4.185   2.149
  989TIP3   OH2 2972   4.449   4.493   4.876
  989TIP3    H1 2973   4.442   4.468   4.968
  989TIP3    H2 2974   4.478   4.413   4.831
  990TIP3   OH2 2975   4.792   3.173   3.562
  990TIP3    H1 2976   4.789   3.267   3.540
  990TIP3    H2 2977   4.841   3.133   3.491
  991TIP3   OH2 2978   1.606   3.596   2.034
  991TIP3    H1 2979   1.529   3.650   2.048
  991TIP3    H2 2980   1.618   3.595   1.939
  992TIP3   OH2 2981   0.846   5.361   1.511
  992TIP3    H1 2982   0.755   5.359   1.482
  992TIP3    H2 2983   0.879   5.446   1.480
  993TIP3   OH2 2984   4.887   5.652   1.641
  993TIP3    H1 2985   4.930   5.735   1.663
  993TIP3    H2 2986   4.832   5.672   1.566
  994TIP3   OH2 2987   3.212   3.974   0.478
  994TIP3    H1 2988   3.231   3.941   0.566
  994TIP3    H2 2989   3.167   3.902   0.434
  995TIP3   OH2 2990   1.340   0.004   2.162
  995TIP3    H1 2991   1.406  -0.045   2.212
  995TIP3    H2 2992   1.301   0.064   2.226
  996TIP3   OH2 2993   5.162   2.102   4.385
  996TIP3    H1 2994   5.127   2.160   4.317
  996TIP3    H2 2995   5.179   2.159   4.459
  997TIP3   OH2 2996   4.556   2.151   1.873
  997TIP3    H1 2997   4.484   2.102   1.911
  997TIP3    H2 2998   4.617   2.084   1.841
  998TIP3   OH2 2999   0.242   0.571   0.216
  998TIP3    H1 3000   0.303   0.501   0.237
  998TIP3    H2 3001   0.235   0.622   0.297
  999TIP3   OH2 3002   6.269   3.548   3.085
  999TIP3    H1 3003   6.229   3.542   2.998
  999TIP3    H2 3004   6.199   3.580   3.142
 1000TIP3   OH2 3005   6.302   4.425   4.948
 1000TIP3    H1 3006   6.208   4.406   4.943
 1000TIP3    H2 3007   6.307   4.507   4.996
 1001TIP3   OH2 3008   1.140   5.389   4.780
 1001TIP3    H1 3009   1.113   5.299   4.801
 1001TIP3    H2 3010   1.134   5.394   4.684
 1002TIP3   OH2 3011   3.566   2.165   0.066
 1002TIP3    H1 3012   3.644   2.156   0.121
 1002TIP3    H2 3013   3.549   2.259   0.064
 1003TIP3   OH2 3014   0.032   2.303   3.549
 1003TIP3    H1 3015  -0.011   2.313   3.634
 1003TIP3    H2 3016   0.028   2.209   3.532
 1004TIP3   OH2 3017   3.744   4.282   0.223
 1004TIP3    H1 3018   3.720   4.196   0.188
 1004TIP3    H2 3019   3.662   4.331   0.225
 1005TIP3   OH2 3020   0.368   3.742   3.292
 1005TIP3    H1 3021   0.332   3.728   3.204
 1005TIP3    H2 3022   0.342   3.831   3.315
 1006TIP3   OH2 3023   0.171   0.270   3.376
 1006TIP3    H1 3024   0.141   0.356   3.349
 1006TIP3    H2 3025   0.106   0.209   3.340
 1007TIP3   OH2 3026   3.675   1.919   2.606
 1007TIP3    H1 3027   3.601   1.979   2.589
 1007TIP3    H2 3028   3.647   1.868   2.682
 1008TIP3   OH2 3029   3.012   4.059   3.186
 1008TIP3    H1 3030   2.959   3.980   3.195
 1008TIP3    H2 3031   3.089   4.031   3.137
 1009TIP3   OH2 3032   3.335   0.859   3.213
 1009TIP3    H1 3033   3.263   0.913   3.181
 1009TIP3    H2 3034   3.292   0.784   3.256
 1010TIP3   OH2 3035   3.879   3.242   2.054
 1010TIP3    H1 3036   3.925   3.248   1.970
 1010TIP3    H2 3037   3.883   3.149   2.077
 1011TIP3   OH2 3038   4.354   0.471   3.423
 1011TIP3    H1 3039   4.401   0.420   3.357
 1011TIP3    H2 3040   4.280   0.416   3.447
 1012TIP3   OH2 3041   4.793   4.632   2.216
 1012TIP3    H1 3042   4.797   4.571   2.143
 1012TIP3    H2 3043   4.877   4.679   2.213
 1013TIP3   OH2 3044   0.130   5.222   2.926
 1013TIP3    H1 3045   0.121   5.187   3.015
 1013TIP3    H2 3046   0.064   5.291   2.921
 1014TIP3   OH2 3047   4.140   1.216   4.308
 1014TIP3    H1 3048   4.221   1.170   4.288
 1014TIP3    H2 3049   4.168   1.302   4.338
 1015TIP3   OH2 3050   4.919   0.063   3.317
 1015TIP3    H1 3051   4.988   0.085   3.380
 1015TIP3    H2 3052   4.918   0.137   3.256
 1016TIP3   OH2 3053   1.525   3.601   2.779
 1016TIP3    H1 3054   1.467   3.544   2.729
 1016TIP3    H2 3055   1.468   3.671   2.811
 1017TIP3   OH2 3056   0.702   3.619   0.256
 1017TIP3    H1 3057   0.731   3.660   0.175
 1017TIP3    H2 3058   0.607   3.616   0.248
 1018TIP3   OH2 3059   5.730   5.798   3.503
 1018TIP3    H1 3060   5.676   5.870   3.470
 1018TIP3    H2 3061   5.820   5.823   3.479
 1019TIP3   OH2 3062   1.669   1.234   3.364
 1019TIP3    H1 3063   1.584   1.272   3.344
 1019TIP3    H2 3064   1.649   1.151   3.407
 1020TIP3   OH2 3065   2.812   2.794   2.568
 1020TIP3    H1 3066   2.808   2.724   2.504
 1020TIP3    H2 3067   2.836   2.750   2.650
 1021TIP3   OH2 3068   4.730   2.138   1.135
 1021TIP3    H1 3069   4.762   2.225   1.159
 1021TIP3    H2 3070   4.792   2.078   1.176
 1022TIP3   OH2 3071   4.350   3.148   4.015
 1022TIP3    H1 3072   4.377   3.213   4.080
 1022TIP3    H2 3073   4.258   3.132   4.033
 1023TIP3   OH2 3074   0.953   1.365   3.228
 1023TIP3    H1 3075   1.030   1.344   3.280
 1023TIP3    H2 3076   0.952   1.460   3.222
 1024TIP3   OH2 3077   4.257   2.823   4.611
 1024TIP3    H1 3078   4.174   2.871   4.612
 1024TIP3    H2 3079   4.231   2.731   4.600
 1025TIP3   OH2 3080   6.195   4.958   3.655
 1025TIP3    H1 3081   6.206   5.053   3.657
 1025TIP3    H2 3082   6.271   4.926   3.606
 1026TIP3   OH2 3083   3.713   0.327   1.928
 1026TIP3    H1 3084   3.720   0.243   1.883
 1026TIP3    H2 3085   3.624   0.357   1.912
 1027TIP3   OH2 3086   0.365   4.423   0.220
 1027TIP3    H1 3087   0.286   4.399   0.267
 1027TIP3    H2 3088   0.391   4.343   0.174
 1028TIP3   OH2 3089   0.896   1.049   2.880
 1028TIP3    H1 3090   0.907   0.997   2.801
 1028TIP3    H2 3091   0.973   1.030   2.933
 1029TIP3   OH2 3092   5.921   4.444   0.875
 1029TIP3    H1 3093   6.011   4.420   0.894
 1029TIP3    H2 3094   5.883   4.365   0.836
 1030TIP3   OH2 3095   0.230   2.722   0.803
 1030TIP3    H1 3096   0.231   2.771   0.885
 1030TIP3    H2 3097   0.322   2.715   0.778
 1031TIP3   OH2 3098   1.743   4.404   3.917
 1031TIP3    H1 3099   1.771   4.313   3.923
 1031TIP3    H2 3100   1.811   4.454   3.963
 1032TIP3   OH2 3101   0.789   3.605   4.943
 1032TIP3    H1 3102   0.765   3.610   5.036
 1032TIP3    H2 3103   0.732   3.668   4.900
 1033TIP3   OH2 3104   0.575   3.328   3.188
 1033TIP3    H1 3105   0.526   3.326   3.106
 1033TIP3    H2 3106   0.665   3.348   3.161
 1034TIP3   OH2 3107   4.759   4.478   0.742
 1034TIP3    H1 3108   4.706   4.556   0.729
 1034TIP3    H2 3109   4.696   4.407   0.756
 1035TIP3   OH2 3110   2.709   0.711   1.576
 1035TIP3    H1 3111   2.699   0.797   1.617
 1035TIP3    H2 3112   2.713   0.649   1.649
 1036TIP3   OH2 3113   2.282   0.402   4.096
 1036TIP3    H1 3114   2.212   0.340   4.074
 1036TIP3    H2 3115   2.327   0.418   4.013
 1037TIP3   OH2 3116   1.817   4.981   4.492
 1037TIP3    H1 3117   1.843   5.047   4.428
 1037TIP3    H2 3118   1.730   4.953   4.464
 1038TIP3   OH2 3119   6.253   3.968   5.058
 1038TIP3    H1 3120   6.169   3.995   5.021
 1038TIP3    H2 3121   6.314   4.036   5.030
 1039TIP3   OH2 3122   3.264   0.468   3.951
 1039TIP3    H1 3123   3.302   0.391   3.993
 1039TIP3    H2 3124   3.318   0.482   3.873
 1040TIP3   OH2 3125   6.026   4.363   1.726
 1040TIP3    H1 3126   5.978   4.370   1.809
 1040TIP3    H2 3127   6.115   4.389   1.747
 1041TIP3   OH2 3128   5.589   1.665   2.042
 1041TIP3    H1 3129   5.591   1.570   2.042
 1041TIP3    H2 3130   5.568   1.688   2.133
 1042TIP3   OH2 3131   0.220   2.311   3.768
 1042TIP3    H1 3132   0.151   2.273   3.823
 1042TIP3    H2 3133   0.186   2.304   3.679
 1043TIP3   OH2 3134   1.640   5.685   3.045
 1043TIP3    H1 3135   1.645   5.725   3.132
 1043TIP3    H2 3136   1.660   5.757   2.985
 1044TIP3   OH2 3137   0.555   0.210   1.363
 1044TIP3    H1 3138   0.547   0.255   1.279
 1044TIP3    H2 3139   0.517   0.271   1.427
 1045TIP3   OH2 3140   3.325   2.115   0.819
 1045TIP3    H1 3141   3.275   2.185   0.778
 1045TIP3    H2 3142   3.414   2.149   0.824
 1046TIP3   OH2 3143   0.382   2.100   4.665
 1046TIP3    H1 3144   0.331   2.144   4.597
 1046TIP3    H2 3145   0.343   2.012   4.670
 1047TIP3   OH2 3146   4.049   4.922   3.306
 1047TIP3    H1 3147   4.100   4.848   3.339
 1047TIP3    H2 3148   4.012   4.891   3.224
 1048TIP3   OH2 3149   3.289   3.112   0.524
 1048TIP3    H1 3150   3.206   3.080   0.487
 1048TIP3    H2 3151   3.349   3.112   0.450
 1049TIP3   OH2 3152   4.737   3.252   4.560
 1049TIP3    H1 3153   4.737   3.341   4.593
 1049TIP3    H2 3154   4.808   3.250   4.496
 1050TIP3   OH2 3155   1.688   5.352   3.941
 1050TIP3    H1 3156   1.627   5.355   3.867
 1050TIP3    H2 3157   1.724   5.263   3.938
 1051TIP3   OH2 3158   5.312   1.447   2.854
 1051TIP3    H1 3159   5.252   1.437   2.928
 1051TIP3    H2 3160   5.261   1.419   2.778
 1052TIP3   OH2 3161   5.040   3.224   4.239
 1052TIP3    H1 3162   5.104   3.274   4.289
 1052TIP3    H2 3163   5.092   3.160   4.190
 1053TIP3   OH2 3164   4.514   5.194   1.194
 1053TIP3    H1 3165   4.590   5.143   1.166
 1053TIP3    H2 3166   4.473   5.140   1.263
 1054TIP3   OH2 3167   0.531   1.270   4.290
 1054TIP3    H1 3168   0.566   1.347   4.244
 1054TIP3    H2 3169   0.445   1.256   4.250
 1055TIP3   OH2 3170   0.839   2.539   4.415
 1055TIP3    H1 3171   0.761   2.586   4.387
 1055TIP3    H2 3172   0.860   2.577   4.501
 1056TIP3   OH2 3173   1.407   1.009   0.241
 1056TIP3    H1 3174   1.481   0.997   0.182
 1056TIP3    H2 3175   1.381   1.100   0.229
 1057TIP3   OH2 3176   4.982   4.925   4.307
 1057TIP3    H1 3177   4.996   4.860   4.377
 1057TIP3    H2 3178   4.931   4.878   4.241
 1058TIP3   OH2 3179   0.845   5.340   1.823
 1058TIP3    H1 3180   0.899   5.337   1.902
 1058TIP3    H2 3181   0.885   5.407   1.769
 1059TIP3   OH2 3182   1.638   1.376   0.500
 1059TIP3    H1 3183   1.648   1.321   0.423
 1059TIP3    H2 3184   1.544   1.388   0.509
 1060TIP3   OH2 3185   0.521   1.235   1.017
 1060TIP3    H1 3186   0.603   1.230   0.968
 1060TIP3    H2 3187   0.456   1.197   0.958
 1061TIP3   OH2 3188   2.989   1.020   2.578
 1061TIP3    H1 3189   2.951   0.993   2.661
 1061TIP3    H2 3190   2.925   0.993   2.512
 1062TIP3   OH2 3191   0.703   3.653   2.905
 1062TIP3    H1 3192   0.690   3.584   2.841
 1062TIP3    H2 3193   0.615   3.686   2.924
 1063TIP3   OH2 3194   0.243   3.972   3.352
 1063TIP3    H1 3195   0.151   3.964   3.324
 1063TIP3    H2 3196   0.241   3.955   3.446
 1064TIP3   OH2 3197   0.243   0.990   2.537
 1064TIP3    H1 3198   0.328   1.014   2.502
 1064TIP3    H2 3199   0.211   0.922   2.477
 1065TIP3   OH2 3200   1.033   2.186   0.680
 1065TIP3    H1 3201   1.089   2.256   0.645
 1065TIP3    H2 3202   1.073   2.163   0.764
 1066TIP3   OH2 3203   5.168   4.412   1.921
 1066TIP3    H1 3204   5.207   4.339   1.968
 1066TIP3    H2 3205   5.087   4.377   1.884
 1067TIP3   OH2 3206   6.040   1.362   2.010
 1067TIP3    H1 3207   6.026   1.347   1.916
 1067TIP3    H2 3208   6.099   1.437   2.014
 1068TIP3   OH2 3209   0.730   0.113   0.827
 1068TIP3    H1 3210   0.710   0.034   0.876
 1068TIP3    H2 3211   0.752   0.178   0.894
 1069TIP3   OH2 3212   3.438   5.099   2.557
 1069TIP3    H1 3213   3.462   5.192   2.560
 1069TIP3    H2 3214   3.391   5.084   2.639
 1070TIP3   OH2 3215   3.066   0.221   4.053
 1070TIP3    H1 3216   3.019   0.265   4.124
 1070TIP3    H2 3217   3.034   0.131   4.055
 1071TIP3   OH2 3218   5.866   0.283   1.055
 1071TIP3    H1 3219   5.816   0.203   1.070
 1071TIP3    H2 3220   5.833   0.345   1.120
 1072TIP3   OH2 3221   1.705   5.798   5.049
 1072TIP3    H1 3222   1.613   5.824   5.048
 1072TIP3    H2 3223   1.732   5.806   5.141
 1073TIP3   OH2 3224   4.699   3.876   4.612
 1073TIP3    H1 3225   4.626   3.932   4.584
 1073TIP3    H2 3226   4.674   3.847   4.700
 1074TIP3   OH2 3227   3.489   5.364   2.501
 1074TIP3    H1 3228   3.563   5.411   2.464
 1074TIP3    H2 3229   3.426   5.356   2.430
 1075TIP3   OH2 3230   4.945   4.913   4.914
 1075TIP3    H1 3231   4.971   4.823   4.930
 1075TIP3    H2 3232   5.023   4.954   4.876
 1076TIP3   OH2 3233   0.414   0.060   3.703
 1076TIP3    H1 3234   0.438   0.069   3.611
 1076TIP3    H2 3235   0.338   0.002   3.702
 1077TIP3   OH2 3236   1.124   5.411   4.098
 1077TIP3    H1 3237   1.167   5.340   4.145
 1077TIP3    H2 3238   1.178   5.488   4.118
 1078TIP3   OH2 3239   1.197   1.000   4.908
 1078TIP3    H1 3240   1.278   1.033   4.868
 1078TIP3    H2 3241   1.175   0.922   4.857
 1079TIP3   OH2 3242  -0.020   2.598   0.211
 1079TIP3    H1 3243   0.003   2.526   0.152
 1079TIP3    H2 3244   0.027   2.579   0.292
 1080TIP3   OH2 3245   4.123   2.104   3.377
 1080TIP3    H1 3246   4.031   2.129   3.369
 1080TIP3    H2 3247   4.171   2.186   3.368
 1081TIP3   OH2 3248   0.073   2.828   1.830
 1081TIP3    H1 3249   0.117   2.743   1.827
 1081TIP3    H2 3250   0.114   2.874   1.903
 1082TIP3   OH2 3251   4.255   1.765   0.259
 1082TIP3    H1 3252   4.294   1.841   0.303
 1082TIP3    H2 3253   4.229   1.707   0.331
 1083TIP3   OH2 3254   4.827   4.224   3.698
 1083TIP3    H1 3255   4.753   4.237   3.756
 1083TIP3    H2 3256   4.862   4.312   3.685
 1084TIP3   OH2 3257   4.963   3.127   4.479
 1084TIP3    H1 3258   4.954   3.036   4.450
 1084TIP3    H2 3259   4.984   3.175   4.399
 1085TIP3   OH2 3260   2.502   4.787   2.840
 1085TIP3    H1 3261   2.458   4.775   2.924
 1085TIP3    H2 3262   2.478   4.875   2.812
 1086TIP3   OH2 3263   4.489   1.837   3.554
 1086TIP3    H1 3264   4.406   1.871   3.588
 1086TIP3    H2 3265   4.496   1.874   3.466
 1087TIP3   OH2 3266   3.862   4.495   0.003
 1087TIP3    H1 3267   3.828   4.415   0.042
 1087TIP3    H2 3268   3.896   4.546   0.077
 1088TIP3   OH2 3269   2.113   3.184   4.705
 1088TIP3    H1 3270   2.155   3.120   4.648
 1088TIP3    H2 3271   2.154   3.171   4.790
 1089TIP3   OH2 3272   3.572   4.296   3.414
 1089TIP3    H1 3273   3.535   4.257   3.493
 1089TIP3    H2 3274   3.631   4.364   3.446
 1090TIP3   OH2 3275   2.093   3.567   4.346
 1090TIP3    H1 3276   2.101   3.500   4.413
 1090TIP3    H2 3277   1.999   3.583   4.339
 1091TIP3   OH2 3278   3.509   3.154   3.710
 1091TIP3    H1 3279   3.584   3.183   3.658
 1091TIP3    H2 3280   3.438   3.146   3.647
 1092TIP3   OH2 3281   5.089   1.108   4.060
 1092TIP3    H1 3282   5.117   1.164   4.133
 1092TIP3    H2 3283   5.065   1.169   3.990
 1093TIP3   OH2 3284   5.005   1.670   1.846
 1093TIP3    H1 3285   4.967   1.628   1.924
 1093TIP3    H2 3286   5.098   1.647   1.849
 1094TIP3   OH2 3287   2.073   0.987   3.581
 1094TIP3    H1 3288   2.048   0.940   3.660
 1094TIP3    H2 3289   2.084   0.918   3.515
 1095TIP3   OH2 3290   2.465   4.704   3.460
 1095TIP3    H1 3291   2.460   4.629   3.401
 1095TIP3    H2 3292   2.395   4.763   3.430
 1096TIP3   OH2 3293   2.888   1.128   4.936
 1096TIP3    H1 3294   2.862   1.057   4.876
 1096TIP3    H2 3295   2.838   1.111   5.016
 1097TIP3   OH2 3296   2.934   5.616   1.536
 1097TIP3    H1 3297   3.029   5.610   1.525
 1097TIP3    H2 3298   2.920   5.606   1.630
 1098TIP3   OH2 3299   0.656   5.800   5.196
 1098TIP3    H1 3300   0.727   5.794   5.131
 1098TIP3    H2 3301   0.601   5.724   5.178
 1099TIP3   OH2 3302   0.148   1.873   4.750
 1099TIP3    H1 3303   0.077   1.907   4.696
 1099TIP3    H2 3304   0.160   1.783   4.719
 1100TIP3   OH2 3305   4.945   4.621   0.892
 1100TIP3    H1 3306   4.920   4.694   0.834
 1100TIP3    H2 3307   4.871   4.561   0.887
 1101TIP3   OH2 3308   2.757   4.863   1.364
 1101TIP3    H1 3309   2.836   4.915   1.381
 1101TIP3    H2 3310   2.700   4.881   1.438
 1102TIP3   OH2 3311   3.690   1.177   0.331
 1102TIP3    H1 3312   3.752   1.140   0.394
 1102TIP3    H2 3313   3.738   1.249   0.290
 1103TIP3   OH2 3314   2.401   3.332   0.950
 1103TIP3    H1 3315   2.389   3.421   0.984
 1103TIP3    H2 3316   2.403   3.343   0.855
 1104TIP3   OH2 3317   0.436   1.177   3.190
 1104TIP3    H1 3318   0.460   1.095   3.234
 1104TIP3    H2 3319   0.519   1.218   3.168
 1105TIP3   OH2 3320   5.313   0.936   4.021
 1105TIP3    H1 3321   5.234   0.978   4.055
 1105TIP3    H2 3322   5.310   0.847   4.057
 1106TIP3   OH2 3323   4.340   4.167   0.290
 1106TIP3    H1 3324   4.249   4.196   0.282
 1106TIP3    H2 3325   4.364   4.141   0.201
 1107TIP3   OH2 3326   6.201   1.740   4.070
 1107TIP3    H1 3327   6.108   1.741   4.049
 1107TIP3    H2 3328   6.215   1.821   4.120
 1108TIP3   OH2 3329   0.212   2.964   2.060
 1108TIP3    H1 3330   0.272   3.036   2.037
 1108TIP3    H2 3331   0.162   2.998   2.134
 1109TIP3   OH2 3332   2.383   0.713   3.255
 1109TIP3    H1 3333   2.440   0.714   3.178
 1109TIP3    H2 3334   2.302   0.753   3.225
 1110TIP3   OH2 3335   3.685   2.232   0.552
 1110TIP3    H1 3336   3.671   2.324   0.532
 1110TIP3    H2 3337   3.752   2.233   0.620
 1111TIP3   OH2 3338   5.468   1.193   4.902
 1111TIP3    H1 3339   5.480   1.269   4.958
 1111TIP3    H2 3340   5.375   1.195   4.878
 1112TIP3   OH2 3341   1.911   3.671   2.124
 1112TIP3    H1 3342   1.957   3.592   2.152
 1112TIP3    H2 3343   1.828   3.640   2.088
 1113TIP3   OH2 3344   5.334   1.412   4.750
 1113TIP3    H1 3345   5.265   1.362   4.794
 1113TIP3    H2 3346   5.329   1.383   4.659
 1114TIP3   OH2 3347   1.313   2.981   3.296
 1114TIP3    H1 3348   1.264   2.990   3.378
 1114TIP3    H2 3349   1.282   3.054   3.242
 1115TIP3   OH2 3350   1.986   0.945   2.259
 1115TIP3    H1 3351   2.056   0.957   2.324
 1115TIP3    H2 3352   2.027   0.967   2.176
 1116TIP3   OH2 3353   4.262   1.200   2.104
 1116TIP3    H1 3354   4.286   1.269   2.167
 1116TIP3    H2 3355   4.337   1.141   2.103
 1117TIP3   OH2 3356   6.036   3.374   2.300
 1117TIP3    H1 3357   6.073   3.349   2.385
 1117TIP3    H2 3358   6.072   3.461   2.283
 1118TIP3   OH2 3359   0.564   3.361   4.050
 1118TIP3    H1 3360   0.551   3.442   4.002
 1118TIP3    H2 3361   0.600   3.300   3.986
 1119TIP3   OH2 3362   1.834   3.264   2.366
 1119TIP3    H1 3363   1.821   3.197   2.433
 1119TIP3    H2 3364   1.791   3.342   2.401
 1120TIP3   OH2 3365   5.337   4.599   4.719
 1120TIP3    H1 3366   5.290   4.680   4.736
 1120TIP3    H2 3367   5.411   4.625   4.665
 1121TIP3   OH2 3368   6.353   1.757   0.119
 1121TIP3    H1 3369   6.267   1.792   0.096
 1121TIP3    H2 3370   6.409   1.834   0.131
 1122TIP3   OH2 3371   1.286   4.094   2.903
 1122TIP3    H1 3372   1.337   4.154   2.849
 1122TIP3    H2 3373   1.195   4.111   2.878
 1123TIP3   OH2 3374   6.016   2.940   4.382
 1123TIP3    H1 3375   6.065   3.022   4.385
 1123TIP3    H2 3376   6.054   2.887   4.453
 1124TIP3   OH2 3377   0.442   1.628   0.404
 1124TIP3    H1 3378   0.456   1.566   0.476
 1124TIP3    H2 3379   0.489   1.590   0.330
 1125TIP3   OH2 3380   4.608   0.887   4.734
 1125TIP3    H1 3381   4.693   0.874   4.691
 1125TIP3    H2 3382   4.576   0.798   4.750
 1126TIP3   OH2 3383   0.742   1.417   3.517
 1126TIP3    H1 3384   0.725   1.391   3.427
 1126TIP3    H2 3385   0.657   1.449   3.549
 1127TIP3   OH2 3386   5.048   3.645   3.416
 1127TIP3    H1 3387   5.093   3.730   3.416
 1127TIP3    H2 3388   5.079   3.601   3.337
 1128TIP3   OH2 3389   3.529   5.438   4.244
 1128TIP3    H1 3390   3.515   5.434   4.150
 1128TIP3    H2 3391   3.509   5.350   4.276
 1129TIP3   OH2 3392   5.101   2.704   5.029
 1129TIP3    H1 3393   5.189   2.722   5.064
 1129TIP3    H2 3394   5.056   2.788   5.032
 1130TIP3   OH2 3395   5.066   2.129   0.475
 1130TIP3    H1 3396   5.082   2.160   0.386
 1130TIP3    H2 3397   5.122   2.184   0.530
 1131TIP3   OH2 3398   5.368   5.543   5.088
 1131TIP3    H1 3399   5.447   5.536   5.141
 1131TIP3    H2 3400   5.368   5.633   5.056
 1132TIP3   OH2 3401   3.388   1.454   1.600
 1132TIP3    H1 3402   3.354   1.508   1.671
 1132TIP3    H2 3403   3.461   1.505   1.564
 1133TIP3   OH2 3404   5.289   4.735   1.706
 1133TIP3    H1 3405   5.320   4.752   1.795
 1133TIP3    H2 3406   5.196   4.755   1.708
 1134TIP3   OH2 3407   2.302   1.531   1.967
 1134TIP3    H1 3408   2.370   1.516   1.901
 1134TIP3    H2 3409   2.271   1.620   1.949
 1135TIP3   OH2 3410   2.984   1.129   1.410
 1135TIP3    H1 3411   3.000   1.046   1.456
 1135TIP3    H2 3412   2.988   1.195   1.478
 1136TIP3   OH2 3413   2.134   5.164   1.753
 1136TIP3    H1 3414   2.112   5.075   1.781
 1136TIP3    H2 3415   2.049   5.204   1.731
 1137TIP3   OH2 3416   4.598   5.276   4.724
 1137TIP3    H1 3417   4.670   5.213   4.727
 1137TIP3    H2 3418   4.545   5.255   4.800
 1138TIP3   OH2 3419   2.094   1.032   4.840
 1138TIP3    H1 3420   2.079   1.004   4.749
 1138TIP3    H2 3421   2.012   1.075   4.866
 1139TIP3   OH2 3422   3.946   5.653   2.292
 1139TIP3    H1 3423   3.937   5.616   2.380
 1139TIP3    H2 3424   3.890   5.731   2.293
 1140TIP3   OH2 3425   2.150   1.353   3.932
 1140TIP3    H1 3426   2.063   1.360   3.972
 1140TIP3    H2 3427   2.202   1.421   3.974
 1141TIP3   OH2 3428   3.253   5.991   3.784
 1141TIP3    H1 3429   3.248   5.896   3.776
 1141TIP3    H2 3430   3.297   6.020   3.704
 1142TIP3   OH2 3431   4.337   5.821   1.500
 1142TIP3    H1 3432   4.342   5.732   1.535
 1142TIP3    H2 3433   4.284   5.812   1.421
 1143TIP3   OH2 3434   4.730   5.842   2.703
 1143TIP3    H1 3435   4.680   5.921   2.681
 1143TIP3    H2 3436   4.785   5.827   2.627
 1144TIP3   OH2 3437   3.508   5.313   3.173
 1144TIP3    H1 3438   3.564   5.375   3.220
 1144TIP3    H2 3439   3.506   5.347   3.083
 1145TIP3   OH2 3440   4.450   4.836   0.905
 1145TIP3    H1 3441   4.429   4.818   0.813
 1145TIP3    H2 3442   4.493   4.921   0.903
 1146TIP3   OH2 3443   0.815   5.241   5.079
 1146TIP3    H1 3444   0.746   5.221   5.142
 1146TIP3    H2 3445   0.864   5.159   5.071
 1147TIP3   OH2 3446   4.107   1.992   4.609
 1147TIP3    H1 3447   4.173   2.024   4.670
 1147TIP3    H2 3448   4.128   2.033   4.525
 1148TIP3   OH2 3449   6.372   1.581   3.914
 1148TIP3    H1 3450   6.311   1.615   3.980
 1148TIP3    H2 3451   6.317   1.564   3.837
 1149TIP3   OH2 3452   1.342   0.522   0.262
 1149TIP3    H1 3453   1.267   0.567   0.223
 1149TIP3    H2 3454   1.312   0.492   0.347
 1150TIP3   OH2 3455   3.559   2.611   4.566
 1150TIP3    H1 3456   3.479   2.559   4.560
 1150TIP3    H2 3457   3.607   2.574   4.640
 1151TIP3   OH2 3458   2.830   2.290   1.774
 1151TIP3    H1 3459   2.811   2.274   1.681
 1151TIP3    H2 3460   2.763   2.352   1.801
 1152TIP3   OH2 3461   2.399   5.442   4.110
 1152TIP3    H1 3462   2.378   5.378   4.042
 1152TIP3    H2 3463   2.494   5.437   4.120
 1153TIP3   OH2 3464   5.550   2.750   3.686
 1153TIP3    H1 3465   5.627   2.777   3.736
 1153TIP3    H2 3466   5.558   2.797   3.603
 1154TIP3   OH2 3467   2.015   3.818   2.815
 1154TIP3    H1 3468   1.958   3.895   2.815
 1154TIP3    H2 3469   2.103   3.854   2.828
 1155TIP3   OH2 3470   4.936   3.749   1.309
 1155TIP3    H1 3471   4.900   3.838   1.305
 1155TIP3    H2 3472   5.022   3.760   1.348
 1156TIP3   OH2 3473   1.826   5.401   4.420
 1156TIP3    H1 3474   1.851   5.379   4.510
 1156TIP3    H2 3475   1.734   5.377   4.414
 1157TIP3   OH2 3476   1.829   0.450   2.272
 1157TIP3    H1 3477   1.818   0.501   2.353
 1157TIP3    H2 3478   1.906   0.396   2.288
 1158TIP3   OH2 3479   3.084   1.181   2.359
 1158TIP3    H1 3480   3.162   1.125   2.354
 1158TIP3    H2 3481   3.052   1.170   2.448
 1159TIP3   OH2 3482   0.016   1.099   1.761
 1159TIP3    H1 3483   0.017   1.194   1.749
 1159TIP3    H2 3484   0.092   1.080   1.814
 1160TIP3   OH2 3485   4.135   3.290   2.989
 1160TIP3    H1 3486   4.061   3.299   2.929
 1160TIP3    H2 3487   4.162   3.380   3.007
 1161TIP3   OH2 3488   5.360   4.225   4.613
 1161TIP3    H1 3489   5.406   4.196   4.535
 1161TIP3    H2 3490   5.297   4.155   4.632
 1162TIP3   OH2 3491   3.995   3.318   0.920
 1162TIP3    H1 3492   3.996   3.366   0.837
 1162TIP3    H2 3493   4.076   3.343   0.963
 1163TIP3   OH2 3494   3.721   1.783   1.749
 1163TIP3    H1 3495   3.793   1.752   1.805
 1163TIP3    H2 3496   3.653   1.809   1.811
 1164TIP3   OH2 3497   0.643   3.517   0.559
 1164TIP3    H1 3498   0.607   3.441   0.513
 1164TIP3    H2 3499   0.642   3.587   0.493
 1165TIP3   OH2 3500   4.441   2.937   1.612
 1165TIP3    H1 3501   4.534   2.949   1.634
 1165TIP3    H2 3502   4.416   2.856   1.657
 1166TIP3   OH2 3503   5.097   4.486   3.857
 1166TIP3    H1 3504   5.129   4.411   3.807
 1166TIP3    H2 3505   5.014   4.456   3.895
 1167TIP3   OH2 3506   2.041   5.123   2.596
 1167TIP3    H1 3507   1.956   5.159   2.571
 1167TIP3    H2 3508   2.097   5.139   2.520
 1168TIP3   OH2 3509   1.633   3.969   5.192
 1168TIP3    H1 3510   1.604   3.899   5.133
 1168TIP3    H2 3511   1.725   3.949   5.208
 1169TIP3   OH2 3512   4.078   5.910   2.746
 1169TIP3    H1 3513   4.089   5.866   2.662
 1169TIP3    H2 3514   4.166   5.942   2.767
 1170TIP3   OH2 3515   2.460   5.893   1.484
 1170TIP3    H1 3516   2.457   5.938   1.400
 1170TIP3    H2 3517   2.372   5.856   1.494
 1171TIP3   OH2 3518   1.821   4.418   3.651
 1171TIP3    H1 3519   1.795   4.391   3.740
 1171TIP3    H2 3520   1.916   4.402   3.648
 1172TIP3   OH2 3521   1.962   3.570   2.920
 1172TIP3    H1 3522   1.982   3.660   2.895
 1172TIP3    H2 3523   2.045   3.536   2.953
 1173TIP3   OH2 3524   1.320   4.093   1.540
 1173TIP3    H1 3525   1.317   4.121   1.632
 1173TIP3    H2 3526   1.249   4.142   1.497
 1174TIP3   OH2 3527   1.554   0.084   1.212
 1174TIP3    H1 3528   1.641   0.113   1.240
 1174TIP3    H2 3529   1.513   0.051   1.292
 1175TIP3   OH2 3530   5.462   2.550   1.961
 1175TIP3    H1 3531   5.372   2.582   1.969
 1175TIP3    H2 3532   5.458   2.461   1.994
 1176TIP3   OH2 3533   0.440   1.427   4.699
 1176TIP3    H1 3534   0.347   1.442   4.717
 1176TIP3    H2 3535   0.464   1.494   4.635
 1177TIP3   OH2 3536   5.942   4.934   2.208
 1177TIP3    H1 3537   5.880   4.994   2.250
 1177TIP3    H2 3538   5.959   4.973   2.122
 1178TIP3   OH2 3539   4.336   5.068   2.159
 1178TIP3    H1 3540   4.367   5.079   2.248
 1178TIP3    H2 3541   4.398   5.119   2.106
 1179TIP3   OH2 3542   4.818   2.267   0.058
 1179TIP3    H1 3543   4.760   2.229   0.123
 1179TIP3    H2 3544   4.762   2.283  -0.018
 1180TIP3   OH2 3545   3.459   2.599   3.495
 1180TIP3    H1 3546   3.375   2.626   3.533
 1180TIP3    H2 3547   3.452   2.623   3.402
 1181TIP3   OH2 3548   0.767   2.897   0.027
 1181TIP3    H1 3549   0.863   2.902   0.027
 1181TIP3    H2 3550   0.739   2.988   0.035
 1182TIP3   OH2 3551   6.202   2.878   0.662
 1182TIP3    H1 3552   6.118   2.879   0.617
 1182TIP3    H2 3553   6.266   2.899   0.595
 1183TIP3   OH2 3554   2.928   1.035   0.587
 1183TIP3    H1 3555   2.843   0.992   0.596
 1183TIP3    H2 3556   2.906   1.125   0.562
 1184TIP3   OH2 3557   4.532   2.743   2.805
 1184TIP3    H1 3558   4.540   2.731   2.711
 1184TIP3    H2 3559   4.467   2.813   2.814
 1185TIP3   OH2 3560   1.895   4.445   1.240
 1185TIP3    H1 3561   1.850   4.507   1.183
 1185TIP3    H2 3562   1.928   4.377   1.181
 1186TIP3   OH2 3563   2.768   4.672   2.821
 1186TIP3    H1 3564   2.785   4.632   2.907
 1186TIP3    H2 3565   2.678   4.702   2.826
 1187TIP3   OH2 3566   1.871   3.917   0.110
 1187TIP3    H1 3567   1.804   3.984   0.098
 1187TIP3    H2 3568   1.822   3.835   0.109
 1188TIP3   OH2 3569   4.462   1.504   1.004
 1188TIP3    H1 3570   4.541   1.475   1.051
 1188TIP3    H2 3571   4.404   1.428   1.007
 1189TIP3   OH2 3572   1.967   2.591   0.243
 1189TIP3    H1 3573   1.977   2.596   0.148
 1189TIP3    H2 3574   1.935   2.677   0.269
 1190TIP3   OH2 3575   0.320   0.497   1.314
 1190TIP3    H1 3576   0.314   0.496   1.219
 1190TIP3    H2 3577   0.235   0.532   1.344
 1191TIP3   OH2 3578   3.750   4.041   1.244
 1191TIP3    H1 3579   3.743   4.113   1.307
 1191TIP3    H2 3580   3.800   3.974   1.291
 1192TIP3   OH2 3581   3.448   1.354   0.132
 1192TIP3    H1 3582   3.516   1.381   0.194
 1192TIP3    H2 3583   3.422   1.434   0.087
 1193TIP3   OH2 3584   2.118   3.938   4.272
 1193TIP3    H1 3585   2.030   3.912   4.299
 1193TIP3    H2 3586   2.104   3.990   4.192
 1194TIP3   OH2 3587   1.097   1.981   1.621
 1194TIP3    H1 3588   1.184   1.943   1.635
 1194TIP3    H2 3589   1.041   1.935   1.684
 1195TIP3   OH2 3590   4.229   0.189   0.645
 1195TIP3    H1 3591   4.232   0.200   0.550
 1195TIP3    H2 3592   4.151   0.136   0.660
 1196TIP3   OH2 3593   4.407   3.014   4.477
 1196TIP3    H1 3594   4.392   3.010   4.383
 1196TIP3    H2 3595   4.365   2.935   4.512
 1197TIP3   OH2 3596   4.082   4.248   0.272
 1197TIP3    H1 3597   4.066   4.172   0.329
 1197TIP3    H2 3598   4.066   4.324   0.329
 1198TIP3   OH2 3599   5.424   4.116   4.212
 1198TIP3    H1 3600   5.510   4.080   4.235
 1198TIP3    H2 3601   5.362   4.046   4.233
 1199TIP3   OH2 3602   5.109   0.340   0.662
 1199TIP3    H1 3603   5.122   0.422   0.614
 1199TIP3    H2 3604   5.093   0.275   0.593
 1200TIP3   OH2 3605   3.444   4.143   0.481
 1200TIP3    H1 3606   3.428   4.161   0.388
 1200TIP3    H2 3607   3.383   4.074   0.503
 1201TIP3   OH2 3608   5.263   4.242   1.209
 1201TIP3    H1 3609   5.188   4.220   1.154
 1201TIP3    H2 3610   5.336   4.194   1.171
 1202TIP3   OH2 3611   0.242   1.733   0.671
 1202TIP3    H1 3612   0.336   1.726   0.682
 1202TIP3    H2 3613   0.226   1.824   0.648
 1203TIP3   OH2 3614   4.544   1.286   4.472
 1203TIP3    H1 3615   4.620   1.333   4.506
 1203TIP3    H2 3616   4.513   1.340   4.399
 1204TIP3   OH2 3617   5.891   3.459   2.051
 1204TIP3    H1 3618   5.813   3.405   2.066
 1204TIP3    H2 3619   5.946   3.444   2.128
 1205TIP3   OH2 3620   4.134   5.695   0.999
 1205TIP3    H1 3621   4.163   5.604   0.986
 1205TIP3    H2 3622   4.057   5.687   1.055
 1206TIP3   OH2 3623   5.266   0.623   2.638
 1206TIP3    H1 3624   5.335   0.559   2.653
 1206TIP3    H2 3625   5.308   0.693   2.589
 1207TIP3   OH2 3626   2.654   0.856   3.338
 1207TIP3    H1 3627   2.653   0.823   3.248
 1207TIP3    H2 3628   2.593   0.799   3.385
 1208TIP3   OH2 3629   5.032   4.246   1.014
 1208TIP3    H1 3630   5.072   4.179   0.958
 1208TIP3    H2 3631   4.944   4.212   1.032
 1209TIP3   OH2 3632   6.085   5.968   1.523
 1209TIP3    H1 3633   5.997   5.933   1.538
 1209TIP3    H2 3634   6.127   5.904   1.467
 1210TIP3   OH2 3635   1.328   0.992   1.910
 1210TIP3    H1 3636   1.259   1.058   1.906
 1210TIP3    H2 3637   1.408   1.042   1.928
 1211TIP3   OH2 3638   5.790   0.044   3.402
 1211TIP3    H1 3639   5.707   0.031   3.449
 1211TIP3    H2 3640   5.856   0.048   3.470
 1212TIP3   OH2 3641   1.903   1.230   0.821
 1212TIP3    H1 3642   1.889   1.136   0.811
 1212TIP3    H2 3643   1.902   1.264   0.731
 1213TIP3   OH2 3644   4.060   4.176   3.984
 1213TIP3    H1 3645   4.022   4.261   4.007
 1213TIP3    H2 3646   4.035   4.162   3.892
 1214TIP3   OH2 3647   3.149   5.917   4.511
 1214TIP3    H1 3648   3.205   5.841   4.528
 1214TIP3    H2 3649   3.079   5.910   4.575
 1215TIP3   OH2 3650   2.588   5.781   4.486
 1215TIP3    H1 3651   2.532   5.852   4.454
 1215TIP3    H2 3652   2.623   5.814   4.569
 1216TIP3   OH2 3653   1.677   0.466   1.190
 1216TIP3    H1 3654   1.727   0.480   1.270
 1216TIP3    H2 3655   1.620   0.543   1.183
 1217TIP3   OH2 3656   0.938   5.844   4.338
 1217TIP3    H1 3657   0.886   5.920   4.361
 1217TIP3    H2 3658   1.029   5.870   4.354
 1218TIP3   OH2 3659   6.067   0.111   1.458
 1218TIP3    H1 3660   6.062   0.189   1.513
 1218TIP3    H2 3661   6.094   0.144   1.372
 1219TIP3   OH2 3662   6.038   4.110   1.904
 1219TIP3    H1 3663   6.032   4.152   1.818
 1219TIP3    H2 3664   6.071   4.178   1.962
 1220TIP3   OH2 3665  -0.004   3.639   0.961
 1220TIP3    H1 3666   0.039   3.719   0.991
 1220TIP3    H2 3667   0.068   3.577   0.949
 1221TIP3   OH2 3668   0.852   5.976   4.893
 1221TIP3    H1 3669   0.846   6.020   4.978
 1221TIP3    H2 3670   0.864   5.884   4.914
 1222TIP3   OH2 3671   2.787   0.368   5.120
 1222TIP3    H1 3672   2.807   0.376   5.213
 1222TIP3    H2 3673   2.825   0.285   5.093
 1223TIP3   OH2 3674   2.786   0.647   3.941
 1223TIP3    H1 3675   2.775   0.574   4.001
 1223TIP3    H2 3676   2.881   0.660   3.936
 1224TIP3   OH2 3677   4.682   0.113   2.391
 1224TIP3    H1 3678   4.616   0.047   2.412
 1224TIP3    H2 3679   4.644   0.195   2.421
 1225TIP3   OH2 3680   3.610   5.400   1.073
 1225TIP3    H1 3681   3.698   5.363   1.072
 1225TIP3    H2 3682   3.566   5.359   0.998
 1226TIP3   OH2 3683   3.423   0.437   4.225
 1226TIP3    H1 3684   3.340   0.438   4.272
 1226TIP3    H2 3685   3.469   0.515   4.256
 1227TIP3   OH2 3686   5.019   5.421   1.728
 1227TIP3    H1 3687   4.985   5.336   1.702
 1227TIP3    H2 3688   4.969   5.484   1.677
 1228TIP3   OH2 3689   1.865   4.335   3.064
 1228TIP3    H1 3690   1.782   4.292   3.085
 1228TIP3    H2 3691   1.839   4.410   3.010
 1229TIP3   OH2 3692   2.273   2.408   0.558
 1229TIP3    H1 3693   2.206   2.460   0.602
 1229TIP3    H2 3694   2.240   2.399   0.468
 1230TIP3   OH2 3695   5.652   1.262   2.605
 1230TIP3    H1 3696   5.718   1.331   2.608
 1230TIP3    H2 3697   5.602   1.280   2.526
 1231TIP3   OH2 3698   5.649   2.822   2.861
 1231TIP3    H1 3699   5.657   2.783   2.773
 1231TIP3    H2 3700   5.570   2.783   2.897
 1232TIP3   OH2 3701   2.936   1.700   1.409
 1232TIP3    H1 3702   2.942   1.662   1.322
 1232TIP3    H2 3703   3.012   1.665   1.456
 1233TIP3   OH2 3704   3.888   3.699   2.857
 1233TIP3    H1 3705   3.927   3.753   2.788
 1233TIP3    H2 3706   3.801   3.737   2.869
 1234TIP3   OH2 3707   0.045   5.189   2.652
 1234TIP3    H1 3708   0.113   5.206   2.717
 1234TIP3    H2 3709  -0.036   5.191   2.702
 1235TIP3   OH2 3710   0.783   4.371   3.726
 1235TIP3    H1 3711   0.829   4.432   3.669
 1235TIP3    H2 3712   0.843   4.354   3.798
 1236TIP3   OH2 3713   3.382   2.664   3.227
 1236TIP3    H1 3714   3.439   2.674   3.150
 1236TIP3    H2 3715   3.308   2.722   3.209
 1237TIP3   OH2 3716   5.109   0.404   1.571
 1237TIP3    H1 3717   5.183   0.443   1.617
 1237TIP3    H2 3718   5.141   0.389   1.482
 1238TIP3   OH2 3719   3.107   4.895   0.021
 1238TIP3    H1 3720   3.123   4.814   0.070
 1238TIP3    H2 3721   3.194   4.927  -0.001
 1239TIP3   OH2 3722   0.962   2.167   1.961
 1239TIP3    H1 3723   0.896   2.121   1.908
 1239TIP3    H2 3724   0.963   2.121   2.044
 1240TIP3   OH2 3725   1.280   2.436   3.100
 1240TIP3    H1 3726   1.324   2.367   3.150
 1240TIP3    H2 3727   1.348   2.470   3.042
 1241TIP3   OH2 3728   6.187   4.883   2.329
 1241TIP3    H1 3729   6.168   4.966   2.373
 1241TIP3    H2 3730   6.111   4.868   2.273
 1242TIP3   OH2 3731   5.577   2.609   3.375
 1242TIP3    H1 3732   5.626   2.690   3.384
 1242TIP3    H2 3733   5.597   2.560   3.455
 1243TIP3   OH2 3734   5.869   1.008   0.897
 1243TIP3    H1 3735   5.850   1.020   0.804
 1243TIP3    H2 3736   5.832   0.922   0.918
 1244TIP3   OH2 3737   6.235   1.944   3.364
 1244TIP3    H1 3738   6.169   1.990   3.415
 1244TIP3    H2 3739   6.214   1.851   3.375
 1245TIP3   OH2 3740   4.192   3.442   1.646
 1245TIP3    H1 3741   4.124   3.480   1.700
 1245TIP3    H2 3742   4.186   3.348   1.662
 1246TIP3   OH2 3743   4.614   5.466   4.041
 1246TIP3    H1 3744   4.649   5.396   4.096
 1246TIP3    H2 3745   4.672   5.468   3.965
 1247TIP3   OH2 3746   3.469   3.498   0.319
 1247TIP3    H1 3747   3.406   3.526   0.252
 1247TIP3    H2 3748   3.554   3.523   0.282
 1248TIP3   OH2 3749   5.717   2.483   3.579
 1248TIP3    H1 3750   5.778   2.428   3.529
 1248TIP3    H2 3751   5.757   2.491   3.665
 1249TIP3   OH2 3752   3.712   1.051   0.069
 1249TIP3    H1 3753   3.700   1.105   0.147
 1249TIP3    H2 3754   3.632   1.064   0.019
 1250TIP3   OH2 3755   4.490   4.329   1.106
 1250TIP3    H1 3756   4.549   4.326   1.031
 1250TIP3    H2 3757   4.417   4.272   1.082
 1251TIP3   OH2 3758   1.294   0.112   5.018
 1251TIP3    H1 3759   1.264   0.115   5.109
 1251TIP3    H2 3760   1.389   0.126   5.024
 1252TIP3   OH2 3761   5.490   2.707   4.537
 1252TIP3    H1 3762   5.420   2.748   4.587
 1252TIP3    H2 3763   5.446   2.652   4.473
 1253TIP3   OH2 3764   5.040   0.670   2.441
 1253TIP3    H1 3765   5.110   0.616   2.477
 1253TIP3    H2 3766   5.081   0.756   2.429
 1254TIP3   OH2 3767   5.801   4.239   0.747
 1254TIP3    H1 3768   5.856   4.210   0.675
 1254TIP3    H2 3769   5.712   4.218   0.720
 1255TIP3   OH2 3770   3.277   4.077   4.676
 1255TIP3    H1 3771   3.325   4.021   4.737
 1255TIP3    H2 3772   3.304   4.166   4.699
 1256TIP3   OH2 3773   3.083   1.605   3.343
 1256TIP3    H1 3774   3.119   1.555   3.417
 1256TIP3    H2 3775   3.002   1.643   3.378
 1257TIP3   OH2 3776   5.414   5.886   4.740
 1257TIP3    H1 3777   5.384   5.977   4.735
 1257TIP3    H2 3778   5.503   5.892   4.773
 1258TIP3   OH2 3779   1.101   1.568   4.049
 1258TIP3    H1 3780   1.159   1.623   3.996
 1258TIP3    H2 3781   1.149   1.487   4.063
 1259TIP3   OH2 3782   5.869   5.241   2.452
 1259TIP3    H1 3783   5.792   5.289   2.420
 1259TIP3    H2 3784   5.910   5.302   2.514
 1260TIP3   OH2 3785   0.811   3.002   3.716
 1260TIP3    H1 3786   0.822   3.030   3.807
 1260TIP3    H2 3787   0.857   3.068   3.664
 1261TIP3   OH2 3788   3.957   1.482   3.124
 1261TIP3    H1 3789   4.019   1.512   3.058
 1261TIP3    H2 3790   3.883   1.543   3.116
 1262TIP3   OH2 3791   3.567   1.255   3.047
 1262TIP3    H1 3792   3.599   1.287   2.963
 1262TIP3    H2 3793   3.622   1.301   3.111
 1263TIP3   OH2 3794   2.745   0.416   0.284
 1263TIP3    H1 3795   2.663   0.366   0.282
 1263TIP3    H2 3796   2.756   0.441   0.376
 1264TIP3   OH2 3797   4.208   3.343   4.852
 1264TIP3    H1 3798   4.210   3.293   4.771
 1264TIP3    H2 3799   4.127   3.395   4.846
 1265TIP3   OH2 3800   3.648   5.257   1.825
 1265TIP3    H1 3801   3.637   5.318   1.752
 1265TIP3    H2 3802   3.740   5.230   1.821
 1266TIP3   OH2 3803   3.851   5.647   0.813
 1266TIP3    H1 3804   3.894   5.670   0.731
 1266TIP3    H2 3805   3.914   5.674   0.881
 1267TIP3   OH2 3806   5.750   3.398   3.912
 1267TIP3    H1 3807   5.818   3.454   3.950
 1267TIP3    H2 3808   5.708   3.357   3.987
 1268TIP3   OH2 3809   0.034   2.539   3.356
 1268TIP3    H1 3810   0.055   2.484   3.431
 1268TIP3    H2 3811   0.084   2.619   3.370
 1269TIP3   OH2 3812   3.352   5.705   1.343
 1269TIP3    H1 3813   3.431   5.759   1.347
 1269TIP3    H2 3814   3.321   5.713   1.253
 1270TIP3   OH2 3815   3.008   0.642   3.292
 1270TIP3    H1 3816   3.005   0.547   3.292
 1270TIP3    H2 3817   3.088   0.664   3.339
 1271TIP3   OH2 3818   3.318   5.278   0.075
 1271TIP3    H1 3819   3.223   5.286   0.080
 1271TIP3    H2 3820   3.335   5.251  -0.015
 1272TIP3   OH2 3821   0.074   5.157   3.260
 1272TIP3    H1 3822   0.047   5.153   3.351
 1272TIP3    H2 3823   0.109   5.246   3.249
 1273TIP3   OH2 3824   2.591   0.392   2.403
 1273TIP3    H1 3825   2.597   0.345   2.320
 1273TIP3    H2 3826   2.552   0.329   2.464
 1274TIP3   OH2 3827   2.333   2.703   1.802
 1274TIP3    H1 3828   2.408   2.693   1.744
 1274TIP3    H2 3829   2.270   2.754   1.752
 1275TIP3   OH2 3830   2.399   2.715   1.113
 1275TIP3    H1 3831   2.376   2.763   1.034
 1275TIP3    H2 3832   2.494   2.701   1.106
 1276TIP3   OH2 3833   5.642   3.976   4.312
 1276TIP3    H1 3834   5.711   3.960   4.376
 1276TIP3    H2 3835   5.602   3.890   4.298
 1277TIP3   OH2 3836   4.287   1.041   3.468
 1277TIP3    H1 3837   4.294   1.136   3.469
 1277TIP3    H2 3838   4.242   1.020   3.386
 1278TIP3   OH2 3839   1.245   4.442   0.926
 1278TIP3    H1 3840   1.164   4.463   0.971
 1278TIP3    H2 3841   1.313   4.453   0.993
 1279TIP3   OH2 3842   4.511   5.543   1.580
 1279TIP3    H1 3843   4.435   5.490   1.605
 1279TIP3    H2 3844   4.576   5.479   1.552
 1280TIP3   OH2 3845   2.263   2.449   4.255
 1280TIP3    H1 3846   2.202   2.453   4.181
 1280TIP3    H2 3847   2.335   2.507   4.229
 1281TIP3   OH2 3848   5.083   0.156   2.379
 1281TIP3    H1 3849   5.043   0.229   2.332
 1281TIP3    H2 3850   5.103   0.091   2.312
 1282TIP3   OH2 3851   2.681   1.389   4.990
 1282TIP3    H1 3852   2.619   1.424   5.054
 1282TIP3    H2 3853   2.718   1.311   5.032
 1283TIP3   OH2 3854   1.976   4.332   2.416
 1283TIP3    H1 3855   1.939   4.391   2.481
 1283TIP3    H2 3856   1.933   4.356   2.334
 1284TIP3   OH2 3857   3.621   5.098   2.838
 1284TIP3    H1 3858   3.615   5.188   2.805
 1284TIP3    H2 3859   3.688   5.057   2.783
 1285TIP3   OH2 3860   0.349   3.853   1.141
 1285TIP3    H1 3861   0.426   3.861   1.085
 1285TIP3    H2 3862   0.367   3.778   1.197
 1286TIP3   OH2 3863   4.380   0.964   2.644
 1286TIP3    H1 3864   4.418   1.052   2.641
 1286TIP3    H2 3865   4.388   0.932   2.554
 1287TIP3   OH2 3866   2.281   1.329   5.013
 1287TIP3    H1 3867   2.203   1.347   5.066
 1287TIP3    H2 3868   2.273   1.238   4.987
 1288TIP3   OH2 3869   1.938  -0.001   5.137
 1288TIP3    H1 3870   1.927   0.051   5.058
 1288TIP3    H2 3871   2.031  -0.025   5.138
 1289TIP3   OH2 3872   1.118   5.284   3.765
 1289TIP3    H1 3873   1.148   5.368   3.799
 1289TIP3    H2 3874   1.121   5.224   3.840
 1290TIP3   OH2 3875   1.619   1.908   1.095
 1290TIP3    H1 3876   1.608   1.928   1.188
 1290TIP3    H2 3877   1.713   1.915   1.081
 1291TIP3   OH2 3878   5.949   1.864   3.178
 1291TIP3    H1 3879   5.865   1.851   3.134
 1291TIP3    H2 3880   5.945   1.953   3.214
 1292TIP3   OH2 3881   5.327   0.668   1.509
 1292TIP3    H1 3882   5.399   0.607   1.531
 1292TIP3    H2 3883   5.367   0.755   1.515
 1293TIP3   OH2 3884   5.904   4.849   1.566
 1293TIP3    H1 3885   5.827   4.891   1.604
 1293TIP3    H2 3886   5.939   4.795   1.636
 1294TIP3   OH2 3887   3.985   0.358   4.023
 1294TIP3    H1 3888   4.077   0.346   4.003
 1294TIP3    H2 3889   3.979   0.350   4.118
 1295TIP3   OH2 3890   5.712   3.809   1.161
 1295TIP3    H1 3891   5.728   3.715   1.170
 1295TIP3    H2 3892   5.713   3.825   1.067
 1296TIP3   OH2 3893   2.226   5.410   4.760
 1296TIP3    H1 3894   2.271   5.439   4.681
 1296TIP3    H2 3895   2.267   5.327   4.782
 1297TIP3   OH2 3896   4.155   0.717   2.948
 1297TIP3    H1 3897   4.090   0.785   2.964
 1297TIP3    H2 3898   4.114   0.636   2.978
 1298TIP3   OH2 3899   5.348   3.476   1.807
 1298TIP3    H1 3900   5.328   3.566   1.831
 1298TIP3    H2 3901   5.340   3.427   1.888
 1299TIP3   OH2 3902   1.464   1.486   1.379
 1299TIP3    H1 3903   1.467   1.398   1.416
 1299TIP3    H2 3904   1.489   1.543   1.452
 1300TIP3   OH2 3905   3.525   0.481   2.120
 1300TIP3    H1 3906   3.593   0.450   2.181
 1300TIP3    H2 3907   3.449   0.425   2.138
 1301TIP3   OH2 3908   4.207   2.247   2.977
 1301TIP3    H1 3909   4.122   2.266   3.017
 1301TIP3    H2 3910   4.190   2.250   2.883
 1302TIP3   OH2 3911   3.404   4.005   3.528
 1302TIP3    H1 3912   3.477   3.944   3.542
 1302TIP3    H2 3913   3.335   3.951   3.489
 1303TIP3   OH2 3914   3.546   4.894   1.173
 1303TIP3    H1 3915   3.528   4.805   1.204
 1303TIP3    H2 3916   3.483   4.949   1.219
 1304TIP3   OH2 3917   0.837   3.677   4.138
 1304TIP3    H1 3918   0.840   3.757   4.190
 1304TIP3    H2 3919   0.907   3.687   4.074
 1305TIP3   OH2 3920  -0.005   4.327   3.332
 1305TIP3    H1 3921  -0.045   4.393   3.276
 1305TIP3    H2 3922   0.086   4.356   3.342
 1306TIP3   OH2 3923   0.724   0.394   0.994
 1306TIP3    H1 3924   0.773   0.442   1.060
 1306TIP3    H2 3925   0.653   0.352   1.042
 1307TIP3   OH2 3926   1.504   4.561   4.776
 1307TIP3    H1 3927   1.515   4.637   4.718
 1307TIP3    H2 3928   1.466   4.597   4.856
 1308TIP3   OH2 3929   4.079   3.179   1.488
 1308TIP3    H1 3930   4.118   3.262   1.461
 1308TIP3    H2 3931   4.140   3.112   1.457
 1309TIP3   OH2 3932   1.420   4.344   3.655
 1309TIP3    H1 3933   1.485   4.317   3.591
 1309TIP3    H2 3934   1.381   4.423   3.619
 1310TIP3   OH2 3935   4.261   2.299   5.071
 1310TIP3    H1 3936   4.236   2.275   5.160
 1310TIP3    H2 3937   4.322   2.371   5.082
 1311TIP3   OH2 3938   6.244   5.227   3.720
 1311TIP3    H1 3939   6.153   5.256   3.714
 1311TIP3    H2 3940   6.255   5.201   3.811
 1312TIP3   OH2 3941   5.877   5.648   0.034
 1312TIP3    H1 3942   5.925   5.566   0.019
 1312TIP3    H2 3943   5.932   5.697   0.095
 1313TIP3   OH2 3944   2.984   4.139   4.773
 1313TIP3    H1 3945   2.962   4.125   4.865
 1313TIP3    H2 3946   3.060   4.197   4.776
 1314TIP3   OH2 3947   3.797   1.666   1.307
 1314TIP3    H1 3948   3.809   1.752   1.267
 1314TIP3    H2 3949   3.871   1.657   1.368
 1315TIP3   OH2 3950   3.664   5.431   4.557
 1315TIP3    H1 3951   3.584   5.389   4.525
 1315TIP3    H2 3952   3.676   5.507   4.500
 1316TIP3   OH2 3953   3.383   5.323   1.992
 1316TIP3    H1 3954   3.316   5.267   2.032
 1316TIP3    H2 3955   3.343   5.409   1.986
 1317TIP3   OH2 3956   0.511   3.115   2.850
 1317TIP3    H1 3957   0.494   3.206   2.871
 1317TIP3    H2 3958   0.428   3.082   2.815
 1318TIP3   OH2 3959   2.615   0.263   2.168
 1318TIP3    H1 3960   2.686   0.239   2.108
 1318TIP3    H2 3961   2.573   0.338   2.125
 1319TIP3   OH2 3962   3.067   3.282   2.917
 1319TIP3    H1 3963   3.075   3.275   2.822
 1319TIP3    H2 3964   2.979   3.248   2.936
 1320TIP3   OH2 3965   1.193   3.286   2.889
 1320TIP3    H1 3966   1.132   3.295   2.963
 1320TIP3    H2 3967   1.279   3.275   2.930
 1321TIP3   OH2 3968   0.259   5.211   1.829
 1321TIP3    H1 3969   0.279   5.121   1.855
 1321TIP3    H2 3970   0.313   5.266   1.886
 1322TIP3   OH2 3971   5.653   4.912   4.375
 1322TIP3    H1 3972   5.668   4.981   4.311
 1322TIP3    H2 3973   5.700   4.836   4.339
 1323TIP3   OH2 3974   1.533   5.091   4.252
 1323TIP3    H1 3975   1.543   5.011   4.304
 1323TIP3    H2 3976   1.491   5.061   4.171
 1324TIP3   OH2 3977   6.084   2.628   3.820
 1324TIP3    H1 3978   6.066   2.677   3.900
 1324TIP3    H2 3979   6.101   2.695   3.755
 1325TIP3   OH2 3980   3.628   3.642   0.115
 1325TIP3    H1 3981   3.712   3.688   0.120
 1325TIP3    H2 3982   3.565   3.703   0.153
 1326TIP3   OH2 3983   2.501   4.119   4.441
 1326TIP3    H1 3984   2.436   4.168   4.491
 1326TIP3    H2 3985   2.570   4.101   4.504
 1327TIP3   OH2 3986   5.965   2.569   3.053
 1327TIP3    H1 3987   5.878   2.603   3.076
 1327TIP3    H2 3988   6.020   2.594   3.127
 1328TIP3   OH2 3989   2.735   5.277   2.976
 1328TIP3    H1 3990   2.783   5.197   2.996
 1328TIP3    H2 3991   2.643   5.251   2.979
 1329TIP3   OH2 3992   5.605   0.736   4.411
 1329TIP3    H1 3993   5.595   0.739   4.506
 1329TIP3    H2 3994   5.562   0.655   4.384
 1330TIP3   OH2 3995   4.920   2.006   4.788
 1330TIP3    H1 3996   5.002   2.003   4.737
 1330TIP3    H2 3997   4.941   1.961   4.870
 1331TIP3   OH2 3998   1.080   3.662   2.921
 1331TIP3    H1 3999   1.101   3.620   3.004
 1331TIP3    H2 4000   1.080   3.592   2.857
 1332TIP3   OH2 4001   5.692   0.857   4.114
 1332TIP3    H1 4002   5.645   0.898   4.041
 1332TIP3    H2 4003   5.785   0.873   4.095
 1333TIP3   OH2 4004   2.933   1.430   3.644
 1333TIP3    H1 4005   2.884   1.365   3.594
 1333TIP3    H2 4006   2.876   1.507   3.645
 1334TIP3   OH2 4007   6.109   4.062   2.256
 1334TIP3    H1 4008   6.112   4.129   2.187
 1334TIP3    H2 4009   6.192   4.015   2.248
 1335TIP3   OH2 4010   2.770   2.633   0.892
 1335TIP3    H1 4011   2.691   2.586   0.920
 1335TIP3    H2 4012   2.802   2.584   0.817
 1336TIP3   OH2 4013   3.808   2.269   4.922
 1336TIP3    H1 4014   3.808   2.245   4.829
 1336TIP3    H2 4015   3.872   2.211   4.962
 1337TIP3   OH2 4016   5.332   3.064   3.395
 1337TIP3    H1 4017   5.291   3.058   3.482
 1337TIP3    H2 4018   5.273   3.015   3.338
 1338TIP3   OH2 4019   3.013   0.672   4.647
 1338TIP3    H1 4020   3.027   0.719   4.565
 1338TIP3    H2 4021   2.921   0.644   4.643
 1339TIP3   OH2 4022   0.236   4.677   3.889
 1339TIP3    H1 4023   0.228   4.682   3.985
 1339TIP3    H2 4024   0.146   4.683   3.858
 1340TIP3   OH2 4025   5.735   5.443   3.900
 1340TIP3    H1 4026   5.787   5.473   3.975
 1340TIP3    H2 4027   5.704   5.524   3.859
 1341TIP3   OH2 4028   4.281   2.971   1.408
 1341TIP3    H1 4029   4.351   2.981   1.473
 1341TIP3    H2 4030   4.283   2.878   1.385
 1342TIP3   OH2 4031   5.611   2.930   0.657
 1342TIP3    H1 4032   5.531   2.935   0.605
 1342TIP3    H2 4033   5.651   3.017   0.647
 1343TIP3   OH2 4034   4.824   1.858   1.274
 1343TIP3    H1 4035   4.830   1.935   1.331
 1343TIP3    H2 4036   4.908   1.814   1.284
 1344TIP3   OH2 4037   3.063   1.754   2.741
 1344TIP3    H1 4038   3.036   1.842   2.713
 1344TIP3    H2 4039   2.981   1.705   2.745
 1345TIP3   OH2 4040   3.357   3.470   2.359
 1345TIP3    H1 4041   3.268   3.438   2.345
 1345TIP3    H2 4042   3.382   3.434   2.444
 1346TIP3   OH2 4043   0.839   3.280   4.642
 1346TIP3    H1 4044   0.922   3.243   4.670
 1346TIP3    H2 4045   0.786   3.204   4.617
 1347TIP3   OH2 4046   2.330   5.838   0.483
 1347TIP3    H1 4047   2.423   5.821   0.498
 1347TIP3    H2 4048   2.286   5.777   0.543
 1348TIP3   OH2 4049   1.384   5.524   2.553
 1348TIP3    H1 4050   1.376   5.475   2.635
 1348TIP3    H2 4051   1.338   5.470   2.488
 1349TIP3   OH2 4052   5.318   2.559   1.421
 1349TIP3    H1 4053   5.338   2.637   1.369
 1349TIP3    H2 4054   5.353   2.579   1.508
 1350TIP3   OH2 4055   2.441   2.131   2.048
 1350TIP3    H1 4056   2.386   2.119   1.971
 1350TIP3    H2 4057   2.502   2.057   2.047
 1351TIP3   OH2 4058   6.117   0.666   0.159
 1351TIP3    H1 4059   6.191   0.715   0.195
 1351TIP3    H2 4060   6.040   0.716   0.186
 1352TIP3   OH2 4061   4.749   4.145   2.660
 1352TIP3    H1 4062   4.675   4.201   2.637
 1352TIP3    H2 4063   4.757   4.084   2.587
 1353TIP3   OH2 4064   0.653   2.450   1.244
 1353TIP3    H1 4065   0.629   2.452   1.336
 1353TIP3    H2 4066   0.604   2.376   1.207
 1354TIP3   OH2 4067   4.983   3.360   0.207
 1354TIP3    H1 4068   5.059   3.416   0.222
 1354TIP3    H2 4069   4.957   3.330   0.294
 1355TIP3   OH2 4070   3.874   3.094   3.716
 1355TIP3    H1 4071   3.811   3.137   3.773
 1355TIP3    H2 4072   3.945   3.158   3.706
 1356TIP3   OH2 4073   0.240   3.066   2.782
 1356TIP3    H1 4074   0.179   3.139   2.789
 1356TIP3    H2 4075   0.185   2.988   2.792
 1357TIP3   OH2 4076   0.095   2.026   0.112
 1357TIP3    H1 4077   0.125   2.022   0.021
 1357TIP3    H2 4078   0.169   2.060   0.161
 1358TIP3   OH2 4079   0.066   4.968   3.491
 1358TIP3    H1 4080   0.115   4.947   3.411
 1358TIP3    H2 4081   0.131   4.964   3.560
 1359TIP3   OH2 4082   0.375   2.557   1.214
 1359TIP3    H1 4083   0.328   2.476   1.193
 1359TIP3    H2 4084   0.468   2.532   1.211
 1360TIP3   OH2 4085   4.968   1.307   0.289
 1360TIP3    H1 4086   4.959   1.400   0.310
 1360TIP3    H2 4087   5.062   1.294   0.274
 1361TIP3   OH2 4088   0.144   4.508   3.030
 1361TIP3    H1 4089   0.178   4.581   3.082
 1361TIP3    H2 4090   0.222   4.467   2.993
 1362TIP3   OH2 4091   4.200   1.294   1.595
 1362TIP3    H1 4092   4.108   1.268   1.585
 1362TIP3    H2 4093   4.223   1.266   1.684
 1363TIP3   OH2 4094   5.572   2.894   3.447
 1363TIP3    H1 4095   5.492   2.927   3.405
 1363TIP3    H2 4096   5.633   2.967   3.444
 1364TIP3   OH2 4097   6.242   5.831   4.718
 1364TIP3    H1 4098   6.337   5.838   4.732
 1364TIP3    H2 4099   6.204   5.887   4.786
 1365TIP3   OH2 4100   4.175   4.568   2.738
 1365TIP3    H1 4101   4.242   4.531   2.795
 1365TIP3    H2 4102   4.179   4.662   2.754
 1366TIP3   OH2 4103   6.107   4.395   2.403
 1366TIP3    H1 4104   6.126   4.479   2.445
 1366TIP3    H2 4105   6.039   4.355   2.458
 1367TIP3   OH2 4106   5.513   2.369   1.552
 1367TIP3    H1 4107   5.575   2.402   1.488
 1367TIP3    H2 4108   5.460   2.445   1.576
 1368TIP3   OH2 4109   3.915   1.167   0.532
 1368TIP3    H1 4110   3.947   1.257   0.523
 1368TIP3    H2 4111   3.957   1.119   0.461
 1369TIP3   OH2 4112   1.751   2.384   2.080
 1369TIP3    H1 4113   1.836   2.423   2.058
 1369TIP3    H2 4114   1.750   2.383   2.176
 1370TIP3   OH2 4115   3.318   1.477   3.648
 1370TIP3    H1 4116   3.350   1.409   3.707
 1370TIP3    H2 4117   3.281   1.429   3.574
 1371TIP3   OH2 4118   0.955   2.388   3.645
 1371TIP3    H1 4119   1.023   2.367   3.582
 1371TIP3    H2 4120   0.941   2.482   3.637
 1372TIP3   OH2 4121   2.358   5.738   2.545
 1372TIP3    H1 4122   2.345   5.707   2.455
 1372TIP3    H2 4123   2.329   5.829   2.543
 1373TIP3   OH2 4124   6.251   2.019   3.821
 1373TIP3    H1 4125   6.265   1.967   3.742
 1373TIP3    H2 4126   6.321   1.992   3.881
 1374TIP3   OH2 4127   3.398   0.832   3.584
 1374TIP3    H1 4128   3.398   0.912   3.531
 1374TIP3    H2 4129   3.358   0.859   3.667
 1375TIP3   OH2 4130   3.855   2.278   0.759
 1375TIP3    H1 4131   3.929   2.226   0.790
 1375TIP3    H2 4132   3.879   2.369   0.778
 1376TIP3   OH2 4133   5.322   1.687   3.101
 1376TIP3    H1 4134   5.262   1.624   3.140
 1376TIP3    H2 4135   5.271   1.727   3.030
 1377TIP3   OH2 4136   5.824   1.745   3.656
 1377TIP3    H1 4137   5.853   1.810   3.720
 1377TIP3    H2 4138   5.833   1.661   3.701
 1378TIP3   OH2 4139   5.496   1.432   1.692
 1378TIP3    H1 4140   5.486   1.413   1.785
 1378TIP3    H2 4141   5.549   1.512   1.689
 1379TIP3   OH2 4142   0.594   1.947   3.671
 1379TIP3    H1 4143   0.536   1.886   3.717
 1379TIP3    H2 4144   0.603   2.021   3.731
 1380TIP3   OH2 4145   3.815   4.967   1.244
 1380TIP3    H1 4146   3.847   4.973   1.154
 1380TIP3    H2 4147   3.720   4.963   1.237
 1381TIP3   OH2 4148   3.520   0.528   0.751
 1381TIP3    H1 4149   3.528   0.467   0.678
 1381TIP3    H2 4150   3.560   0.609   0.719
 1382TIP3   OH2 4151   3.137   2.807   4.299
 1382TIP3    H1 4152   3.121   2.893   4.260
 1382TIP3    H2 4153   3.139   2.824   4.393
 1383TIP3   OH2 4154   6.125   0.737   4.671
 1383TIP3    H1 4155   6.188   0.666   4.658
 1383TIP3    H2 4156   6.044   0.692   4.699
 1384TIP3   OH2 4157   2.731   4.856   3.264
 1384TIP3    H1 4158   2.661   4.902   3.219
 1384TIP3    H2 4159   2.698   4.767   3.277
 1385TIP3   OH2 4160   5.526   3.634   3.917
 1385TIP3    H1 4161   5.507   3.548   3.879
 1385TIP3    H2 4162   5.451   3.688   3.891
 1386TIP3   OH2 4163   5.181   2.376   4.521
 1386TIP3    H1 4164   5.202   2.460   4.562
 1386TIP3    H2 4165   5.085   2.376   4.516
 1387TIP3   OH2 4166   0.298   1.145   0.894
 1387TIP3    H1 4167   0.300   1.064   0.843
 1387TIP3    H2 4168   0.276   1.213   0.830
 1388TIP3   OH2 4169   0.488   4.058   4.932
 1388TIP3    H1 4170   0.552   3.997   4.968
 1388TIP3    H2 4171   0.528   4.090   4.851
 1389TIP3   OH2 4172   1.560   0.363   4.833
 1389TIP3    H1 4173   1.536   0.273   4.809
 1389TIP3    H2 4174   1.539   0.369   4.926
 1390TIP3   OH2 4175   2.036   3.396   4.562
 1390TIP3    H1 4176   1.957   3.348   4.538
 1390TIP3    H2 4177   2.091   3.332   4.606
 1391TIP3   OH2 4178   3.414   1.122   2.438
 1391TIP3    H1 4179   3.393   1.030   2.417
 1391TIP3    H2 4180   3.378   1.135   2.525
 1392TIP3   OH2 4181   2.406   5.091   1.822
 1392TIP3    H1 4182   2.317   5.108   1.790
 1392TIP3    H2 4183   2.409   4.996   1.834
 1393TIP3   OH2 4184   3.990   1.955   4.860
 1393TIP3    H1 4185   3.904   1.916   4.845
 1393TIP3    H2 4186   4.031   1.955   4.773
 1394TIP3   OH2 4187   0.177   5.817   1.883
 1394TIP3    H1 4188   0.124   5.750   1.925
 1394TIP3    H2 4189   0.180   5.888   1.947
 1395TIP3   OH2 4190   5.419   0.847   2.790
 1395TIP3    H1 4191   5.488   0.887   2.738
 1395TIP3    H2 4192   5.465   0.797   2.857
 1396TIP3   OH2 4193   1.350   4.061   0.840
 1396TIP3    H1 4194   1.308   4.040   0.756
 1396TIP3    H2 4195   1.407   4.135   0.820
 1397TIP3   OH2 4196   0.462   4.973   2.542
 1397TIP3    H1 4197   0.390   4.926   2.584
 1397TIP3    H2 4198   0.422   5.055   2.512
 1398TIP3   OH2 4199   1.313   1.393   2.176
 1398TIP3    H1 4200   1.320   1.299   2.190
 1398TIP3    H2 4201   1.374   1.432   2.239
 1399TIP3   OH2 4202   5.004   2.974   0.543
 1399TIP3    H1 4203   5.065   2.985   0.616
 1399TIP3    H2 4204   5.059   2.976   0.465
 1400TIP3   OH2 4205   4.606   1.111   3.237
 1400TIP3    H1 4206   4.563   1.043   3.289
 1400TIP3    H2 4207   4.565   1.105   3.151
 1401TIP3   OH2 4208   5.680   4.189   2.761
 1401TIP3    H1 4209   5.596   4.143   2.759
 1401TIP3    H2 4210   5.659   4.276   2.794
 1402TIP3   OH2 4211   5.729   2.289   1.777
 1402TIP3    H1 4212   5.817   2.273   1.742
 1402TIP3    H2 4213   5.724   2.385   1.783
 1403TIP3   OH2 4214   3.013   0.270   3.583
 1403TIP3    H1 4215   3.048   0.206   3.645
 1403TIP3    H2 4216   2.994   0.347   3.636
 1404TIP3   OH2 4217   6.104   2.609   2.021
 1404TIP3    H1 4218   6.089   2.687   1.968
 1404TIP3    H2 4219   6.123   2.643   2.109
 1405TIP3   OH2 4220   3.049   2.282   0.202
 1405TIP3    H1 4221   3.069   2.192   0.176
 1405TIP3    H2 4222   3.123   2.333   0.172
 1406TIP3   OH2 4223   4.711   2.957   1.338
 1406TIP3    H1 4224   4.751   2.871   1.329
 1406TIP3    H2 4225   4.697   2.967   1.432
 1407TIP3   OH2 4226   1.668   5.804   1.256
 1407TIP3    H1 4227   1.617   5.759   1.323
 1407TIP3    H2 4228   1.615   5.797   1.176
 1408TIP3   OH2 4229   0.946   2.392   1.737
 1408TIP3    H1 4230   0.920   2.482   1.754
 1408TIP3    H2 4231   0.916   2.343   1.814
 1409TIP3   OH2 4232   2.868   4.844   4.446
 1409TIP3    H1 4233   2.816   4.864   4.525
 1409TIP3    H2 4234   2.805   4.804   4.386
 1410TIP3   OH2 4235   4.909   4.199   3.449
 1410TIP3    H1 4236   5.002   4.187   3.467
 1410TIP3    H2 4237   4.868   4.200   3.536
 1411TIP3   OH2 4238   4.626   1.796   0.046
 1411TIP3    H1 4239   4.682   1.788   0.124
 1411TIP3    H2 4240   4.585   1.710   0.037
 1412TIP3   OH2 4241   2.002   0.483   2.575
 1412TIP3    H1 4242   1.942   0.423   2.620
 1412TIP3    H2 4243   2.081   0.432   2.560
 1413TIP3   OH2 4244   5.208   5.066   1.127
 1413TIP3    H1 4245   5.189   4.989   1.073
 1413TIP3    H2 4246   5.241   5.131   1.066
 1414TIP3   OH2 4247   3.557   4.196   1.713
 1414TIP3    H1 4248   3.632   4.245   1.746
 1414TIP3    H2 4249   3.532   4.139   1.786
 1415TIP3   OH2 4250   4.697   5.858   2.335
 1415TIP3    H1 4251   4.772   5.861   2.394
 1415TIP3    H2 4252   4.735   5.863   2.247
 1416TIP3   OH2 4253   4.967   3.871   0.706
 1416TIP3    H1 4254   4.949   3.782   0.739
 1416TIP3    H2 4255   5.020   3.911   0.774
 1417TIP3   OH2 4256   1.138   4.067   4.702
 1417TIP3    H1 4257   1.191   3.991   4.676
 1417TIP3    H2 4258   1.075   4.077   4.630
 1418TIP3   OH2 4259   5.711   4.719   5.129
 1418TIP3    H1 4260   5.778   4.765   5.179
 1418TIP3    H2 4261   5.674   4.656   5.191
 1419TIP3   OH2 4262   4.227   0.687   1.943
 1419TIP3    H1 4263   4.269   0.614   1.898
 1419TIP3    H2 4264   4.256   0.765   1.895
 1420TIP3   OH2 4265   0.151   2.803   4.877
 1420TIP3    H1 4266   0.091   2.876   4.889
 1420TIP3    H2 4267   0.229   2.827   4.926
 1421TIP3   OH2 4268   6.227   4.429   2.778
 1421TIP3    H1 4269   6.267   4.445   2.863
 1421TIP3    H2 4270   6.301   4.423   2.717
 1422TIP3   OH2 4271   5.311   2.619   0.251
 1422TIP3    H1 4272   5.320   2.550   0.185
 1422TIP3    H2 4273   5.222   2.607   0.286
 1423TIP3   OH2 4274   4.311   3.562   4.109
 1423TIP3    H1 4275   4.366   3.564   4.187
 1423TIP3    H2 4276   4.359   3.506   4.047
 1424TIP3   OH2 4277   2.998   1.410   0.309
 1424TIP3    H1 4278   3.068   1.468   0.336
 1424TIP3    H2 4279   2.959   1.453   0.232
 1425TIP3   OH2 4280   5.392   2.779   0.921
 1425TIP3    H1 4281   5.477   2.765   0.880
 1425TIP3    H2 4282   5.383   2.706   0.982
 1426TIP3   OH2 4283   1.449   1.925   2.954
 1426TIP3    H1 4284   1.515   1.873   2.907
 1426TIP3    H2 4285   1.407   1.978   2.886
 1427TIP3   OH2 4286   4.843   1.068   3.518
 1427TIP3    H1 4287   4.759   1.106   3.545
 1427TIP3    H2 4288   4.824   0.975   3.507
 1428TIP3   OH2 4289   2.969   5.816   3.854
 1428TIP3    H1 4290   2.984   5.905   3.884
 1428TIP3    H2 4291   2.924   5.826   3.770
 1429TIP3   OH2 4292   1.030   2.544   4.172
 1429TIP3    H1 4293   0.986   2.511   4.250
 1429TIP3    H2 4294   0.966   2.600   4.130
 1430TIP3   OH2 4295   0.495   0.969   1.424
 1430TIP3    H1 4296   0.452   0.990   1.507
 1430TIP3    H2 4297   0.589   0.975   1.443
 1431TIP3   OH2 4298   1.495   3.364   0.166
 1431TIP3    H1 4299   1.434   3.435   0.147
 1431TIP3    H2 4300   1.520   3.329   0.081
 1432TIP3   OH2 4301   2.779   0.216   1.478
 1432TIP3    H1 4302   2.817   0.140   1.433
 1432TIP3    H2 4303   2.812   0.292   1.429
 1433TIP3   OH2 4304   2.161   3.121   0.444
 1433TIP3    H1 4305   2.105   3.088   0.514
 1433TIP3    H2 4306   2.106   3.115   0.365
 1434TIP3   OH2 4307   4.305   2.880   2.894
 1434TIP3    H1 4308   4.259   2.892   2.977
 1434TIP3    H2 4309   4.278   2.955   2.841
 1435TIP3   OH2 4310   0.822   2.555   0.819
 1435TIP3    H1 4311   0.778   2.630   0.781
 1435TIP3    H2 4312   0.907   2.551   0.775
 1436TIP3   OH2 4313   6.252   1.588   0.373
 1436TIP3    H1 4314   6.346   1.567   0.370
 1436TIP3    H2 4315   6.209   1.509   0.340
 1437TIP3   OH2 4316   2.336   5.594   0.745
 1437TIP3    H1 4317   2.270   5.588   0.676
 1437TIP3    H2 4318   2.304   5.535   0.814
 1438TIP3   OH2 4319   2.236   0.580   1.810
 1438TIP3    H1 4320   2.331   0.594   1.812
 1438TIP3    H2 4321   2.202   0.639   1.877
 1439TIP3   OH2 4322   4.966   5.269   2.094
 1439TIP3    H1 4323   4.889   5.291   2.042
 1439TIP3    H2 4324   4.935   5.204   2.156
 1440TIP3   OH2 4325   2.431   1.217   3.032
 1440TIP3    H1 4326   2.435   1.165   3.112
 1440TIP3    H2 4327   2.339   1.244   3.025
 1441TIP3   OH2 4328   3.511   3.643   2.200
 1441TIP3    H1 4329   3.463   3.569   2.237
 1441TIP3    H2 4330   3.582   3.603   2.149
 1442TIP3   OH2 4331   3.733   0.098   1.776
 1442TIP3    H1 4332   3.678   0.064   1.705
 1442TIP3    H2 4333   3.770   0.019   1.817
 1443TIP3   OH2 4334   4.507   0.088   1.242
 1443TIP3    H1 4335   4.525   0.131   1.158
 1443TIP3    H2 4336   4.484   0.160   1.301
 1444TIP3   OH2 4337   4.898   0.206   1.026
 1444TIP3    H1 4338   4.932   0.281   1.074
 1444TIP3    H2 4339   4.939   0.213   0.939
 1445TIP3   OH2 4340   0.011   2.136   0.847
 1445TIP3    H1 4341  -0.039   2.080   0.788
 1445TIP3    H2 4342   0.071   2.183   0.789
 1446TIP3   OH2 4343   4.428   1.668   2.095
 1446TIP3    H1 4344   4.465   1.581   2.078
 1446TIP3    H2 4345   4.458   1.691   2.182
 1447TIP3   OH2 4346   1.813   2.559   0.849
 1447TIP3    H1 4347   1.837   2.642   0.891
 1447TIP3    H2 4348   1.778   2.505   0.920
 1448TIP3   OH2 4349   4.370   4.574   1.545
 1448TIP3    H1 4350   4.406   4.510   1.483
 1448TIP3    H2 4351   4.442   4.637   1.559
 1449TIP3   OH2 4352   5.054   1.077   2.474
 1449TIP3    H1 4353   5.145   1.089   2.448
 1449TIP3    H2 4354   5.058   1.012   2.545
 1450TIP3   OH2 4355   5.765   0.755   0.870
 1450TIP3    H1 4356   5.787   0.728   0.781
 1450TIP3    H2 4357   5.739   0.674   0.914
 1451TIP3   OH2 4358   4.212   5.488   2.255
 1451TIP3    H1 4359   4.147   5.459   2.191
 1451TIP3    H2 4360   4.159   5.526   2.326
 1452TIP3   OH2 4361   2.622   0.335   3.311
 1452TIP3    H1 4362   2.695   0.277   3.332
 1452TIP3    H2 4363   2.658   0.395   3.245
 1453TIP3   OH2 4364   0.123   4.525   2.258
 1453TIP3    H1 4365   0.143   4.611   2.223
 1453TIP3    H2 4366   0.101   4.540   2.349
 1454TIP3   OH2 4367   2.254   3.503   2.416
 1454TIP3    H1 4368   2.337   3.550   2.408
 1454TIP3    H2 4369   2.268   3.421   2.367
 1455TIP3   OH2 4370   0.947   3.136   1.031
 1455TIP3    H1 4371   0.976   3.146   0.941
 1455TIP3    H2 4372   0.948   3.225   1.067
 1456TIP3   OH2 4373   4.018   2.155   5.044
 1456TIP3    H1 4374   4.090   2.209   5.011
 1456TIP3    H2 4375   4.008   2.087   4.977
 1457TIP3   OH2 4376   3.500   2.409   1.391
 1457TIP3    H1 4377   3.446   2.383   1.466
 1457TIP3    H2 4378   3.437   2.444   1.328
 1458TIP3   OH2 4379   2.987   4.814   4.740
 1458TIP3    H1 4380   3.034   4.768   4.809
 1458TIP3    H2 4381   2.964   4.745   4.677
 1459TIP3   OH2 4382   4.189   1.621   1.936
 1459TIP3    H1 4383   4.264   1.641   1.991
 1459TIP3    H2 4384   4.209   1.663   1.852
 1460TIP3   OH2 4385   2.320   2.465   3.128
 1460TIP3    H1 4386   2.379   2.539   3.114
 1460TIP3    H2 4387   2.375   2.387   3.118
 1461TIP3   OH2 4388   0.793   2.782   4.142
 1461TIP3    H1 4389   0.761   2.720   4.077
 1461TIP3    H2 4390   0.782   2.868   4.101
 1462TIP3   OH2 4391   2.117   4.889   1.812
 1462TIP3    H1 4392   2.099   4.812   1.865
 1462TIP3    H2 4393   2.150   4.854   1.729
 1463TIP3   OH2 4394   5.378   3.117   0.639
 1463TIP3    H1 4395   5.342   3.120   0.550
 1463TIP3    H2 4396   5.323   3.054   0.685
 1464TIP3   OH2 4397   5.856   1.259   3.245
 1464TIP3    H1 4398   5.786   1.319   3.270
 1464TIP3    H2 4399   5.931   1.315   3.227
 1465TIP3   OH2 4400   5.859   4.301   4.256
 1465TIP3    H1 4401   5.791   4.326   4.194
 1465TIP3    H2 4402   5.816   4.305   4.342
 1466TIP3   OH2 4403   4.845   1.849   5.139
 1466TIP3    H1 4404   4.936   1.869   5.118
 1466TIP3    H2 4405   4.844   1.836   5.234
 1467TIP3   OH2 4406   4.210   1.463   4.373
 1467TIP3    H1 4407   4.197   1.504   4.287
 1467TIP3    H2 4408   4.298   1.490   4.399
 1468TIP3   OH2 4409   3.876   1.812   3.750
 1468TIP3    H1 4410   3.852   1.873   3.681
 1468TIP3    H2 4411   3.795   1.766   3.771
 1469TIP3   OH2 4412   4.649   4.919   0.200
 1469TIP3    H1 4413   4.589   4.898   0.129
 1469TIP3    H2 4414   4.686   4.834   0.226
 1470TIP3   OH2 4415   4.909   2.478   4.583
 1470TIP3    H1 4416   4.939   2.470   4.674
 1470TIP3    H2 4417   4.849   2.553   4.583
 1471TIP3   OH2 4418   5.711   5.290   4.808
 1471TIP3    H1 4419   5.638   5.234   4.780
 1471TIP3    H2 4420   5.745   5.327   4.727
 1472TIP3   OH2 4421   5.574   3.293   2.670
 1472TIP3    H1 4422   5.599   3.385   2.677
 1472TIP3    H2 4423   5.479   3.292   2.681
 1473TIP3   OH2 4424   5.228   2.944   0.789
 1473TIP3    H1 4425   5.176   2.980   0.862
 1473TIP3    H2 4426   5.282   2.876   0.829
 1474TIP3   OH2 4427   0.362   0.707   2.135
 1474TIP3    H1 4428   0.430   0.668   2.081
 1474TIP3    H2 4429   0.409   0.743   2.210
 1475TIP3   OH2 4430   3.578   5.686   3.295
 1475TIP3    H1 4431   3.647   5.737   3.337
 1475TIP3    H2 4432   3.532   5.643   3.367
 1476TIP3   OH2 4433   2.806   1.425   1.019
 1476TIP3    H1 4434   2.850   1.344   0.994
 1476TIP3    H2 4435   2.766   1.405   1.104
 1477TIP3   OH2 4436   2.482   3.162   1.319
 1477TIP3    H1 4437   2.405   3.182   1.371
 1477TIP3    H2 4438   2.448   3.146   1.231
 1478TIP3   OH2 4439   1.879   2.350   3.885
 1478TIP3    H1 4440   1.818   2.278   3.899
 1478TIP3    H2 4441   1.824   2.424   3.862
 1479TIP3   OH2 4442   3.761   5.252   4.160
 1479TIP3    H1 4443   3.673   5.217   4.150
 1479TIP3    H2 4444   3.782   5.291   4.075
 1480TIP3   OH2 4445   4.649   2.680   5.096
 1480TIP3    H1 4446   4.639   2.767   5.056
 1480TIP3    H2 4447   4.721   2.639   5.047
 1481TIP3   OH2 4448   4.442   1.240   2.585
 1481TIP3    H1 4449   4.498   1.274   2.515
 1481TIP3    H2 4450   4.383   1.313   2.606
 1482TIP3   OH2 4451   0.616   3.200   0.536
 1482TIP3    H1 4452   0.591   3.170   0.624
 1482TIP3    H2 4453   0.649   3.122   0.493
 1483TIP3   OH2 4454   0.908   1.295   0.251
 1483TIP3    H1 4455   0.835   1.259   0.300
 1483TIP3    H2 4456   0.950   1.356   0.311
 1484TIP3   OH2 4457   6.131   1.724   4.443
 1484TIP3    H1 4458   6.125   1.700   4.536
 1484TIP3    H2 4459   6.056   1.781   4.429
 1485TIP3   OH2 4460   6.069   3.415   1.854
 1485TIP3    H1 4461   6.047   3.478   1.785
 1485TIP3    H2 4462   6.004   3.429   1.922
 1486TIP3   OH2 4463   3.943   4.337   4.791
 1486TIP3    H1 4464   4.014   4.400   4.802
 1486TIP3    H2 4465   3.968   4.286   4.715
 1487TIP3   OH2 4466   1.956   3.901   3.473
 1487TIP3    H1 4467   1.880   3.842   3.475
 1487TIP3    H2 4468   2.024   3.850   3.430
 1488TIP3   OH2 4469   1.448   0.024   3.808
 1488TIP3    H1 4470   1.435   0.058   3.896
 1488TIP3    H2 4471   1.527   0.068   3.776
 1489TIP3   OH2 4472   3.255   3.232   3.552
 1489TIP3    H1 4473   3.289   3.252   3.465
 1489TIP3    H2 4474   3.206   3.311   3.577
 1490TIP3   OH2 4475   4.446   4.889   0.408
 1490TIP3    H1 4476   4.511   4.908   0.341
 1490TIP3    H2 4477   4.362   4.910   0.367
 1491TIP3   OH2 4478   2.943   2.231   0.733
 1491TIP3    H1 4479   2.908   2.197   0.816
 1491TIP3    H2 4480   2.876   2.210   0.669
 1492TIP3   OH2 4481   6.260   1.987   4.193
 1492TIP3    H1 4482   6.285   2.075   4.166
 1492TIP3    H2 4483   6.196   2.001   4.263
 1493TIP3   OH2 4484   2.112   1.475   0.847
 1493TIP3    H1 4485   2.055   1.428   0.787
 1493TIP3    H2 4486   2.123   1.416   0.921
 1494TIP3   OH2 4487   0.377   1.346   1.673
 1494TIP3    H1 4488   0.454   1.366   1.620
 1494TIP3    H2 4489   0.303   1.358   1.614
 1495TIP3   OH2 4490   5.287   1.678   1.878
 1495TIP3    H1 4491   5.309   1.620   1.804
 1495TIP3    H2 4492   5.337   1.757   1.862
 1496TIP3   OH2 4493   1.695   4.946   1.501
 1496TIP3    H1 4494   1.711   4.978   1.412
 1496TIP3    H2 4495   1.686   5.025   1.554
 1497TIP3   OH2 4496   4.000   0.423   0.407
 1497TIP3    H1 4497   4.033   0.338   0.376
 1497TIP3    H2 4498   4.067   0.486   0.381
 1498TIP3   OH2 4499   1.010   2.187   4.717
 1498TIP3    H1 4500   0.967   2.125   4.776
 1498TIP3    H2 4501   0.953   2.264   4.718
 1499TIP3   OH2 4502   2.484   0.253   0.235
 1499TIP3    H1 4503   2.440   0.168   0.231
 1499TIP3    H2 4504   2.425   0.312   0.189
 1500TIP3   OH2 4505   5.770   3.836   1.499
 1500TIP3    H1 4506   5.762   3.856   1.592
 1500TIP3    H2 4507   5.717   3.758   1.486
 1501TIP3   OH2 4508   1.078   3.261   1.787
 1501TIP3    H1 4509   1.037   3.324   1.728
 1501TIP3    H2 4510   1.112   3.313   1.859
 1502TIP3   OH2 4511   4.295   4.258   3.775
 1502TIP3    H1 4512   4.339   4.201   3.838
 1502TIP3    H2 4513   4.332   4.345   3.792
 1503TIP3   OH2 4514   5.464   4.472   3.269
 1503TIP3    H1 4515   5.467   4.378   3.286
 1503TIP3    H2 4516   5.459   4.479   3.174
 1504TIP3   OH2 4517   1.806   5.149   4.268
 1504TIP3    H1 4518   1.815   5.241   4.245
 1504TIP3    H2 4519   1.712   5.136   4.280
 1505TIP3   OH2 4520   5.797   2.760   0.377
 1505TIP3    H1 4521   5.734   2.756   0.305
 1505TIP3    H2 4522   5.865   2.697   0.354
 1506TIP3   OH2 4523   0.174   3.401   4.578
 1506TIP3    H1 4524   0.253   3.414   4.526
 1506TIP3    H2 4525   0.134   3.488   4.584
 1507TIP3   OH2 4526   0.844   4.855   0.396
 1507TIP3    H1 4527   0.772   4.892   0.346
 1507TIP3    H2 4528   0.802   4.804   0.465
 1508TIP3   OH2 4529   0.899   3.159   2.067
 1508TIP3    H1 4530   0.843   3.234   2.088
 1508TIP3    H2 4531   0.960   3.153   2.140
 1509TIP3   OH2 4532   5.096   5.631   3.439
 1509TIP3    H1 4533   5.096   5.536   3.455
 1509TIP3    H2 4534   5.171   5.663   3.489
 1510TIP3   OH2 4535   5.676   4.015   2.036
 1510TIP3    H1 4536   5.717   4.037   2.119
 1510TIP3    H2 4537   5.622   4.090   2.014
 1511TIP3   OH2 4538   0.792   2.543   0.477
 1511TIP3    H1 4539   0.822   2.591   0.400
 1511TIP3    H2 4540   0.786   2.608   0.546
 1512TIP3   OH2 4541   3.745   4.756   4.845
 1512TIP3    H1 4542   3.696   4.765   4.763
 1512TIP3    H2 4543   3.714   4.828   4.899
 1513TIP3   OH2 4544   5.861   1.295   4.072
 1513TIP3    H1 4545   5.828   1.249   3.995
 1513TIP3    H2 4546   5.949   1.322   4.048
 1514TIP3   OH2 4547   6.167   0.943   1.452
 1514TIP3    H1 4548   6.118   0.989   1.384
 1514TIP3    H2 4549   6.252   0.986   1.454
 1515TIP3   OH2 4550   0.998   5.644   4.767
 1515TIP3    H1 4551   0.966   5.639   4.677
 1515TIP3    H2 4552   1.036   5.558   4.784
 1516TIP3   OH2 4553   3.224   1.745   0.216
 1516TIP3    H1 4554   3.269   1.814   0.167
 1516TIP3    H2 4555   3.178   1.792   0.286
 1517TIP3   OH2 4556   5.146   4.060   0.846
 1517TIP3    H1 4557   5.211   4.113   0.800
 1517TIP3    H2 4558   5.197   4.002   0.902
 1518TIP3   OH2 4559   2.027   3.386   2.233
 1518TIP3    H1 4560   2.108   3.346   2.267
 1518TIP3    H2 4561   1.957   3.342   2.281
 1519TIP3   OH2 4562   1.714   5.727   4.140
 1519TIP3    H1 4563   1.774   5.692   4.074
 1519TIP3    H2 4564   1.700   5.818   4.115
 1520TIP3   OH2 4565   1.958   2.012   2.314
 1520TIP3    H1 4566   1.886   1.963   2.355
 1520TIP3    H2 4567   2.029   1.948   2.306
 1521TIP3   OH2 4568   0.723   5.882   3.605
 1521TIP3    H1 4569   0.725   5.817   3.535
 1521TIP3    H2 4570   0.633   5.914   3.606
 1522TIP3   OH2 4571   4.799   5.239   1.860
 1522TIP3    H1 4572   4.752   5.236   1.777
 1522TIP3    H2 4573   4.855   5.161   1.858
 1523TIP3   OH2 4574   0.109   3.728   4.064
 1523TIP3    H1 4575   0.125   3.822   4.075
 1523TIP3    H2 4576   0.033   3.724   4.007
 1524TIP3   OH2 4577   4.954   2.225   1.971
 1524TIP3    H1 4578   5.029   2.281   1.954
 1524TIP3    H2 4579   4.977   2.141   1.931
 1525TIP3   OH2 4580   4.419   2.513   4.295
 1525TIP3    H1 4581   4.323   2.507   4.296
 1525TIP3    H2 4582   4.448   2.435   4.247
 1526TIP3   OH2 4583   0.153   4.005   4.102
 1526TIP3    H1 4584   0.242   4.034   4.124
 1526TIP3    H2 4585   0.096   4.067   4.146
 1527TIP3   OH2 4586   3.340   1.552   0.818
 1527TIP3    H1 4587   3.371   1.612   0.750
 1527TIP3    H2 4588   3.245   1.562   0.817
 1528TIP3   OH2 4589   0.582   2.808   0.997
 1528TIP3    H1 4590   0.642   2.871   1.036
 1528TIP3    H2 4591   0.495   2.842   1.017
 1529TIP3   OH2 4592   2.159   1.761   1.982
 1529TIP3    H1 4593   2.098   1.752   2.056
 1529TIP3    H2 4594   2.110   1.810   1.916
 1530TIP3   OH2 4595   2.705   0.615   2.686
 1530TIP3    H1 4596   2.667   0.623   2.598
 1530TIP3    H2 4597   2.673   0.692   2.732
 1531TIP3   OH2 4598   3.340   5.225   4.599
 1531TIP3    H1 4599   3.376   5.252   4.684
 1531TIP3    H2 4600   3.297   5.141   4.617
 1532TIP3   OH2 4601   1.893   3.581   0.883
 1532TIP3    H1 4602   1.859   3.654   0.935
 1532TIP3    H2 4603   1.984   3.572   0.913
 1533TIP3   OH2 4604   1.101   5.525   3.118
 1533TIP3    H1 4605   1.132   5.612   3.091
 1533TIP3    H2 4606   1.028   5.506   3.059
 1534TIP3   OH2 4607   3.830   3.717   3.278
 1534TIP3    H1 4608   3.766   3.755   3.217
 1534TIP3    H2 4609   3.904   3.778   3.276
 1535TIP3   OH2 4610   0.978   5.106   1.509
 1535TIP3    H1 4611   0.918   5.180   1.496
 1535TIP3    H2 4612   1.065   5.144   1.502
 1536TIP3   OH2 4613   5.554   0.586   4.127
 1536TIP3    H1 4614   5.598   0.669   4.148
 1536TIP3    H2 4615   5.624   0.523   4.116
 1537TIP3   OH2 4616   0.300   0.034   4.364
 1537TIP3    H1 4617   0.222   0.026   4.309
 1537TIP3    H2 4618   0.284  -0.026   4.437
 1538TIP3   OH2 4619   6.056   2.617   0.276
 1538TIP3    H1 4620   6.033   2.537   0.324
 1538TIP3    H2 4621   6.152   2.612   0.267
 1539TIP3   OH2 4622   0.266   4.319   0.954
 1539TIP3    H1 4623   0.232   4.395   1.002
 1539TIP3    H2 4624   0.352   4.303   0.993
 1540TIP3   OH2 4625   0.924   2.736   4.731
 1540TIP3    H1 4626   0.976   2.662   4.764
 1540TIP3    H2 4627   0.887   2.776   4.809
 1541TIP3   OH2 4628   0.478   1.662   0.111
 1541TIP3    H1 4629   0.406   1.625   0.059
 1541TIP3    H2 4630   0.466   1.757   0.105
 1542TIP3   OH2 4631   1.924   1.540   0.381
 1542TIP3    H1 4632   1.955   1.600   0.313
 1542TIP3    H2 4633   1.835   1.569   0.400
 1543TIP3   OH2 4634   0.730   3.453   1.221
 1543TIP3    H1 4635   0.701   3.435   1.310
 1543TIP3    H2 4636   0.810   3.401   1.211
 1544TIP3   OH2 4637   4.595   2.567   4.501
 1544TIP3    H1 4638   4.537   2.556   4.425
 1544TIP3    H2 4639   4.539   2.605   4.569
 1545TIP3   OH2 4640   2.489   0.191   2.549
 1545TIP3    H1 4641   2.557   0.173   2.613
 1545TIP3    H2 4642   2.430   0.116   2.555
 1546TIP3   OH2 4643   4.366   0.731   4.904
 1546TIP3    H1 4644   4.305   0.723   4.831
 1546TIP3    H2 4645   4.393   0.822   4.903
 1547TIP3   OH2 4646   0.804   2.159   1.542
 1547TIP3    H1 4647   0.752   2.080   1.561
 1547TIP3    H2 4648   0.851   2.177   1.624
 1548TIP3   OH2 4649   1.809   4.686   3.736
 1548TIP3    H1 4650   1.816   4.599   3.698
 1548TIP3    H2 4651   1.864   4.682   3.815
 1549TIP3   OH2 4652   0.588   1.896   1.203
 1549TIP3    H1 4653   0.511   1.951   1.216
 1549TIP3    H2 4654   0.641   1.945   1.140
 1550TIP3   OH2 4655   5.026   1.686   1.353
 1550TIP3    H1 4656   5.016   1.616   1.418
 1550TIP3    H2 4657   5.120   1.705   1.354
 1551TIP3   OH2 4658   4.669   4.217   5.124
 1551TIP3    H1 4659   4.716   4.141   5.159
 1551TIP3    H2 4660   4.737   4.270   5.083
 1552TIP3   OH2 4661   5.187   3.404   4.363
 1552TIP3    H1 4662   5.182   3.494   4.332
 1552TIP3    H2 4663   5.266   3.401   4.417
 1553TIP3   OH2 4664   2.060   1.582   2.824
 1553TIP3    H1 4665   2.090   1.494   2.801
 1553TIP3    H2 4666   2.013   1.612   2.746
 1554TIP3   OH2 4667   0.659   4.083   0.913
 1554TIP3    H1 4668   0.624   4.090   0.825
 1554TIP3    H2 4669   0.625   4.160   0.959
 1555TIP3   OH2 4670   4.789   4.819   1.060
 1555TIP3    H1 4671   4.871   4.846   1.017
 1555TIP3    H2 4672   4.781   4.879   1.134
 1556TIP3   OH2 4673   6.163   0.513   0.677
 1556TIP3    H1 4674   6.115   0.541   0.599
 1556TIP3    H2 4675   6.098   0.468   0.731
 1557TIP3   OH2 4676   5.219   2.194   2.737
 1557TIP3    H1 4677   5.308   2.159   2.738
 1557TIP3    H2 4678   5.163   2.117   2.728
 1558TIP3   OH2 4679   2.841   2.557   2.479
 1558TIP3    H1 4680   2.840   2.462   2.491
 1558TIP3    H2 4681   2.916   2.574   2.423
 1559TIP3   OH2 4682   0.695   3.699   1.288
 1559TIP3    H1 4683   0.727   3.609   1.277
 1559TIP3    H2 4684   0.727   3.745   1.210
 1560TIP3   OH2 4685   4.065   2.048   2.468
 1560TIP3    H1 4686   4.053   2.140   2.446
 1560TIP3    H2 4687   4.077   2.005   2.383
 1561TIP3   OH2 4688   0.275   4.756   1.256
 1561TIP3    H1 4689   0.321   4.706   1.322
 1561TIP3    H2 4690   0.295   4.847   1.276
 1562TIP3   OH2 4691   3.030   3.589   1.240
 1562TIP3    H1 4692   3.077   3.521   1.289
 1562TIP3    H2 4693   3.073   3.589   1.154
 1563TIP3   OH2 4694   4.527   1.381   3.010
 1563TIP3    H1 4695   4.522   1.414   3.099
 1563TIP3    H2 4696   4.461   1.311   3.006
 1564TIP3   OH2 4697   3.070   4.969   5.153
 1564TIP3    H1 4698   3.148   4.915   5.168
 1564TIP3    H2 4699   3.087   5.013   5.070
 1565TIP3   OH2 4700   4.711   4.927   5.089
 1565TIP3    H1 4701   4.791   4.943   5.039
 1565TIP3    H2 4702   4.670   4.852   5.044
 1566TIP3   OH2 4703   4.974   4.908   0.843
 1566TIP3    H1 4704   4.944   4.970   0.777
 1566TIP3    H2 4705   5.067   4.927   0.854
 1567TIP3   OH2 4706   4.358   4.749   2.484
 1567TIP3    H1 4707   4.405   4.786   2.409
 1567TIP3    H2 4708   4.409   4.672   2.509
 1568TIP3   OH2 4709   2.339   1.279   1.793
 1568TIP3    H1 4710   2.398   1.355   1.794
 1568TIP3    H2 4711   2.331   1.257   1.700
 1569TIP3   OH2 4712   2.552   2.375   0.620
 1569TIP3    H1 4713   2.548   2.374   0.716
 1569TIP3    H2 4714   2.461   2.389   0.593
 1570TIP3   OH2 4715   5.526   4.628   0.339
 1570TIP3    H1 4716   5.524   4.540   0.377
 1570TIP3    H2 4717   5.472   4.622   0.261
 1571TIP3   OH2 4718   5.836   1.176   4.327
 1571TIP3    H1 4719   5.847   1.188   4.233
 1571TIP3    H2 4720   5.822   1.081   4.338
 1572TIP3   OH2 4721   3.108   5.556   3.912
 1572TIP3    H1 4722   3.069   5.472   3.887
 1572TIP3    H2 4723   3.062   5.620   3.857
 1573TIP3   OH2 4724   0.641  -0.011   3.401
 1573TIP3    H1 4725   0.564   0.043   3.418
 1573TIP3    H2 4726   0.654  -0.006   3.307
 1574TIP3   OH2 4727   0.546   1.651   3.470
 1574TIP3    H1 4728   0.512   1.565   3.498
 1574TIP3    H2 4729   0.576   1.636   3.380
 1575TIP3   OH2 4730   4.113   2.330   1.467
 1575TIP3    H1 4731   4.090   2.349   1.376
 1575TIP3    H2 4732   4.059   2.255   1.490
 1576TIP3   OH2 4733   5.438   2.182   4.217
 1576TIP3    H1 4734   5.461   2.273   4.201
 1576TIP3    H2 4735   5.399   2.151   4.135
 1577TIP3   OH2 4736   2.863   4.403   2.508
 1577TIP3    H1 4737   2.909   4.466   2.564
 1577TIP3    H2 4738   2.802   4.358   2.567
 1578TIP3   OH2 4739   4.842   2.374   2.713
 1578TIP3    H1 4740   4.833   2.463   2.678
 1578TIP3    H2 4741   4.765   2.327   2.679
 1579TIP3   OH2 4742   1.291   2.636   2.490
 1579TIP3    H1 4743   1.215   2.594   2.450
 1579TIP3    H2 4744   1.366   2.583   2.463
 1580TIP3   OH2 4745   3.071   1.361   0.621
 1580TIP3    H1 4746   3.001   1.315   0.575
 1580TIP3    H2 4747   3.099   1.429   0.560
 1581TIP3   OH2 4748   0.661   2.326   2.624
 1581TIP3    H1 4749   0.743   2.375   2.614
 1581TIP3    H2 4750   0.665   2.291   2.713
 1582TIP3   OH2 4751   2.230   5.371   3.163
 1582TIP3    H1 4752   2.234   5.444   3.224
 1582TIP3    H2 4753   2.170   5.401   3.094
 1583TIP3   OH2 4754   2.147   1.003   4.319
 1583TIP3    H1 4755   2.215   0.965   4.375
 1583TIP3    H2 4756   2.193   1.025   4.238
 1584TIP3   OH2 4757   0.286   1.508   4.011
 1584TIP3    H1 4758   0.293   1.505   4.106
 1584TIP3    H2 4759   0.202   1.552   3.994
 1585TIP3   OH2 4760   3.520   1.314   3.943
 1585TIP3    H1 4761   3.550   1.284   4.029
 1585TIP3    H2 4762   3.506   1.234   3.893
 1586TIP3   OH2 4763   5.522   0.986   3.612
 1586TIP3    H1 4764   5.459   0.916   3.625
 1586TIP3    H2 4765   5.516   1.008   3.519
 1587TIP3   OH2 4766   2.989   1.408   5.126
 1587TIP3    H1 4767   2.900   1.378   5.146
 1587TIP3    H2 4768   2.977   1.474   5.057
 1588TIP3   OH2 4769   2.019   2.424   0.712
 1588TIP3    H1 4770   1.990   2.399   0.624
 1588TIP3    H2 4771   1.945   2.472   0.749
 1589TIP3   OH2 4772   4.566   1.819   3.814
 1589TIP3    H1 4773   4.553   1.821   3.719
 1589TIP3    H2 4774   4.611   1.736   3.830
 1590TIP3   OH2 4775   5.501   2.396   0.554
 1590TIP3    H1 4776   5.544   2.481   0.560
 1590TIP3    H2 4777   5.520   2.365   0.466
 1591TIP3   OH2 4778   3.657   2.034   1.074
 1591TIP3    H1 4779   3.728   1.979   1.042
 1591TIP3    H2 4780   3.578   1.986   1.052
 1592TIP3   OH2 4781   2.899   4.177   1.950
 1592TIP3    H1 4782   2.808   4.166   1.922
 1592TIP3    H2 4783   2.945   4.203   1.870
 1593TIP3   OH2 4784   5.805   1.959   0.379
 1593TIP3    H1 4785   5.777   1.941   0.469
 1593TIP3    H2 4786   5.854   1.881   0.353
 1594TIP3   OH2 4787   2.162   3.948   2.030
 1594TIP3    H1 4788   2.158   3.904   2.115
 1594TIP3    H2 4789   2.075   3.935   1.992
 1595TIP3   OH2 4790   1.780   2.897   2.804
 1595TIP3    H1 4791   1.766   2.803   2.789
 1595TIP3    H2 4792   1.832   2.900   2.885
 1596TIP3   OH2 4793   6.327   0.812   1.705
 1596TIP3    H1 4794   6.365   0.895   1.732
 1596TIP3    H2 4795   6.267   0.835   1.633
 1597TIP3   OH2 4796   3.791   4.519   4.970
 1597TIP3    H1 4797   3.834   4.449   4.920
 1597TIP3    H2 4798   3.770   4.586   4.905
 1598TIP3   OH2 4799   1.059   3.665   0.303
 1598TIP3    H1 4800   1.030   3.607   0.374
 1598TIP3    H2 4801   1.109   3.733   0.347
 1599TIP3   OH2 4802   1.480   4.066   4.534
 1599TIP3    H1 4803   1.510   4.144   4.581
 1599TIP3    H2 4804   1.413   4.099   4.474
 1600TIP3   OH2 4805   4.637   5.154   3.363
 1600TIP3    H1 4806   4.573   5.134   3.431
 1600TIP3    H2 4807   4.615   5.243   3.335
 1601TIP3   OH2 4808   3.490   1.113   3.760
 1601TIP3    H1 4809   3.399   1.116   3.731
 1601TIP3    H2 4810   3.539   1.152   3.688
 1602TIP3   OH2 4811   4.953   4.036   4.824
 1602TIP3    H1 4812   4.880   4.081   4.781
 1602TIP3    H2 4813   4.930   4.038   4.917
 1603TIP3   OH2 4814   1.295   3.468   3.590
 1603TIP3    H1 4815   1.217   3.454   3.537
 1603TIP3    H2 4816   1.326   3.380   3.611
 1604TIP3   OH2 4817   3.856   0.332   0.906
 1604TIP3    H1 4818   3.872   0.268   0.975
 1604TIP3    H2 4819   3.794   0.393   0.944
 1605TIP3   OH2 4820   3.341   5.608   0.199
 1605TIP3    H1 4821   3.267   5.594   0.141
 1605TIP3    H2 4822   3.416   5.572   0.152
 1606TIP3   OH2 4823   3.584   5.548   2.967
 1606TIP3    H1 4824   3.645   5.585   3.031
 1606TIP3    H2 4825   3.509   5.608   2.967
 1607TIP3   OH2 4826   2.800   1.804   4.213
 1607TIP3    H1 4827   2.787   1.882   4.267
 1607TIP3    H2 4828   2.870   1.756   4.257
 1608TIP3   OH2 4829   4.610   3.140   3.079
 1608TIP3    H1 4830   4.688   3.084   3.082
 1608TIP3    H2 4831   4.640   3.220   3.036
 1609TIP3   OH2 4832   4.516   0.317   5.027
 1609TIP3    H1 4833   4.425   0.343   5.009
 1609TIP3    H2 4834   4.513   0.279   5.114
 1610TIP3   OH2 4835   5.856   4.459   1.169
 1610TIP3    H1 4836   5.849   4.537   1.225
 1610TIP3    H2 4837   5.911   4.487   1.096
 1611TIP3   OH2 4838   0.668   5.581   0.457
 1611TIP3    H1 4839   0.748   5.534   0.482
 1611TIP3    H2 4840   0.599   5.539   0.508
 1612TIP3   OH2 4841   2.585   5.188   3.386
 1612TIP3    H1 4842   2.557   5.234   3.465
 1612TIP3    H2 4843   2.628   5.109   3.418
 1613TIP3   OH2 4844   2.948   3.625   3.885
 1613TIP3    H1 4845   2.863   3.657   3.857
 1613TIP3    H2 4846   3.011   3.688   3.848
 1614TIP3   OH2 4847   2.252   0.267   2.326
 1614TIP3    H1 4848   2.186   0.262   2.257
 1614TIP3    H2 4849   2.327   0.308   2.284
 1615TIP3   OH2 4850   3.391   3.492   3.964
 1615TIP3    H1 4851   3.389   3.491   4.059
 1615TIP3    H2 4852   3.299   3.501   3.938
 1616TIP3   OH2 4853   3.887   0.772   0.863
 1616TIP3    H1 4854   3.972   0.739   0.890
 1616TIP3    H2 4855   3.896   0.867   0.869
 1617TIP3   OH2 4856   0.689   2.106   4.248
 1617TIP3    H1 4857   0.761   2.153   4.290
 1617TIP3    H2 4858   0.658   2.045   4.315
 1618TIP3   OH2 4859   3.536   2.471   4.295
 1618TIP3    H1 4860   3.560   2.442   4.383
 1618TIP3    H2 4861   3.502   2.560   4.307
 1619TIP3   OH2 4862   4.369   4.433   2.883
 1619TIP3    H1 4863   4.446   4.429   2.938
 1619TIP3    H2 4864   4.308   4.369   2.922
 1620TIP3   OH2 4865   1.856   4.888   4.184
 1620TIP3    H1 4866   1.898   4.841   4.257
 1620TIP3    H2 4867   1.843   4.977   4.217
 1621TIP3   OH2 4868   0.031   5.761   1.152
 1621TIP3    H1 4869   0.101   5.793   1.095
 1621TIP3    H2 4870   0.028   5.823   1.225
 1622TIP3   OH2 4871   5.298   1.860   4.363
 1622TIP3    H1 4872   5.245   1.940   4.373
 1622TIP3    H2 4873   5.246   1.792   4.406
 1623TIP3   OH2 4874   3.333   2.571   3.755
 1623TIP3    H1 4875   3.303   2.541   3.841
 1623TIP3    H2 4876   3.393   2.643   3.775
 1624TIP3   OH2 4877   2.129   2.032   0.980
 1624TIP3    H1 4878   2.093   2.082   0.907
 1624TIP3    H2 4879   2.054   2.013   1.035
 1625TIP3   OH2 4880   6.093   1.168   2.185
 1625TIP3    H1 4881   6.061   1.242   2.133
 1625TIP3    H2 4882   6.031   1.161   2.257
 1626TIP3   OH2 4883   4.978   5.701   1.188
 1626TIP3    H1 4884   5.057   5.697   1.242
 1626TIP3    H2 4885   5.003   5.659   1.106
 1627TIP3   OH2 4886   5.936   3.856   3.674
 1627TIP3    H1 4887   5.975   3.902   3.749
 1627TIP3    H2 4888   5.971   3.901   3.597
 1628TIP3   OH2 4889   5.146   2.568   2.654
 1628TIP3    H1 4890   5.170   2.486   2.610
 1628TIP3    H2 4891   5.224   2.623   2.644
 1629TIP3   OH2 4892   1.499   0.774   1.687
 1629TIP3    H1 4893   1.454   0.759   1.770
 1629TIP3    H2 4894   1.535   0.688   1.664
 1630TIP3   OH2 4895   4.117   1.168   0.083
 1630TIP3    H1 4896   4.208   1.198   0.071
 1630TIP3    H2 4897   4.118   1.077   0.054
 1631TIP3   OH2 4898   6.073   0.780   2.506
 1631TIP3    H1 4899   6.100   0.872   2.510
 1631TIP3    H2 4900   6.106   0.742   2.588
 1632TIP3   OH2 4901   6.088   2.853   0.121
 1632TIP3    H1 4902   6.043   2.927   0.161
 1632TIP3    H2 4903   6.084   2.784   0.187
 1633TIP3   OH2 4904   5.729   3.062   4.893
 1633TIP3    H1 4905   5.762   3.143   4.933
 1633TIP3    H2 4906   5.694   3.089   4.808
 1634TIP3   OH2 4907   3.164   5.920   2.784
 1634TIP3    H1 4908   3.152   5.899   2.876
 1634TIP3    H2 4909   3.100   5.989   2.766
 1635TIP3   OH2 4910   0.448   5.551   1.283
 1635TIP3    H1 4911   0.353   5.555   1.273
 1635TIP3    H2 4912   0.462   5.537   1.377
 1636TIP3   OH2 4913   2.242   4.525   2.741
 1636TIP3    H1 4914   2.177   4.573   2.792
 1636TIP3    H2 4915   2.235   4.560   2.652
 1637TIP3   OH2 4916   2.047   0.764   4.547
 1637TIP3    H1 4917   2.088   0.698   4.491
 1637TIP3    H2 4918   2.113   0.833   4.555
 1638TIP3   OH2 4919   0.259   5.989   0.190
 1638TIP3    H1 4920   0.205   6.012   0.114
 1638TIP3    H2 4921   0.203   5.935   0.245
 1639TIP3   OH2 4922   3.036   5.275   3.384
 1639TIP3    H1 4923   2.956   5.306   3.341
 1639TIP3    H2 4924   3.107   5.316   3.333
 1640TIP3   OH2 4925   1.071   1.067   2.329
 1640TIP3    H1 4926   1.158   1.103   2.349
 1640TIP3    H2 4927   1.058   0.999   2.396
 1641TIP3   OH2 4928   2.691   3.371   1.679
 1641TIP3    H1 4929   2.747   3.447   1.661
 1641TIP3    H2 4930   2.610   3.409   1.713
 1642TIP3   OH2 4931   0.427   1.181   0.648
 1642TIP3    H1 4932   0.416   1.179   0.553
 1642TIP3    H2 4933   0.503   1.125   0.665
 1643TIP3   OH2 4934   3.912   0.292   0.649
 1643TIP3    H1 4935   3.932   0.203   0.621
 1643TIP3    H2 4936   3.916   0.289   0.745
 1644TIP3   OH2 4937   4.490   4.400   0.365
 1644TIP3    H1 4938   4.456   4.310   0.360
 1644TIP3    H2 4939   4.437   4.441   0.433
 1645TIP3   OH2 4940   0.128   4.845   3.235
 1645TIP3    H1 4941   0.204   4.902   3.217
 1645TIP3    H2 4942   0.061   4.876   3.173
 1646TIP3   OH2 4943   1.754   4.336   4.881
 1646TIP3    H1 4944   1.795   4.411   4.837
 1646TIP3    H2 4945   1.663   4.362   4.893
 1647TIP3   OH2 4946   3.004   3.291   2.626
 1647TIP3    H1 4947   2.934   3.326   2.571
 1647TIP3    H2 4948   3.001   3.196   2.611
 1648TIP3   OH2 4949   5.799   4.732   3.867
 1648TIP3    H1 4950   5.869   4.699   3.810
 1648TIP3    H2 4951   5.803   4.677   3.945
 1649TIP3   OH2 4952   2.325   0.907   0.562
 1649TIP3    H1 4953   2.372   0.898   0.645
 1649TIP3    H2 4954   2.384   0.870   0.496
 1650TIP3   OH2 4955   5.107   5.766   4.926
 1650TIP3    H1 4956   5.133   5.708   4.854
 1650TIP3    H2 4957   5.188   5.783   4.974
 1651TIP3   OH2 4958   1.527   1.633   1.592
 1651TIP3    H1 4959   1.473   1.626   1.671
 1651TIP3    H2 4960   1.613   1.660   1.624
 1652TIP3   OH2 4961   5.678   1.714   1.775
 1652TIP3    H1 4962   5.628   1.701   1.855
 1652TIP3    H2 4963   5.765   1.739   1.805
 1653TIP3   OH2 4964   0.220   1.298   1.421
 1653TIP3    H1 4965   0.137   1.331   1.386
 1653TIP3    H2 4966   0.284   1.319   1.353
 1654TIP3   OH2 4967   4.552   4.086   2.869
 1654TIP3    H1 4968   4.628   4.109   2.817
 1654TIP3    H2 4969   4.551   4.150   2.940
 1655TIP3   OH2 4970   4.086   2.213   4.106
 1655TIP3    H1 4971   4.047   2.135   4.146
 1655TIP3    H2 4972   4.014   2.277   4.105
 1656TIP3   OH2 4973   5.853   3.917   4.056
 1656TIP3    H1 4974   5.802   3.863   4.116
 1656TIP3    H2 4975   5.792   3.938   3.985
 1657TIP3   OH2 4976   4.898   0.895   1.176
 1657TIP3    H1 4977   4.927   0.898   1.084
 1657TIP3    H2 4978   4.819   0.841   1.174
 1658TIP3   OH2 4979   4.678   3.718   2.947
 1658TIP3    H1 4980   4.653   3.672   2.867
 1658TIP3    H2 4981   4.643   3.664   3.018
 1659TIP3   OH2 4982   5.050   5.652   2.102
 1659TIP3    H1 4983   5.069   5.579   2.161
 1659TIP3    H2 4984   4.960   5.636   2.073
 1660TIP3   OH2 4985   4.211   0.592   0.056
 1660TIP3    H1 4986   4.166   0.533   0.116
 1660TIP3    H2 4987   4.279   0.538   0.016
 1661TIP3   OH2 4988   4.496   5.935   1.718
 1661TIP3    H1 4989   4.577   5.935   1.771
 1661TIP3    H2 4990   4.431   5.977   1.775
 1662TIP3   OH2 4991   0.754   1.677   4.966
 1662TIP3    H1 4992   0.698   1.601   4.951
 1662TIP3    H2 4993   0.830   1.643   5.012
 1663TIP3   OH2 4994   1.561   5.565   1.013
 1663TIP3    H1 4995   1.615   5.644   1.020
 1663TIP3    H2 4996   1.624   5.493   1.014
 1664TIP3   OH2 4997   1.696   4.570   3.449
 1664TIP3    H1 4998   1.706   4.516   3.527
 1664TIP3    H2 4999   1.765   4.538   3.390
 1665TIP3   OH2 5000   2.290   4.521   1.106
 1665TIP3    H1 5001   2.295   4.428   1.131
 1665TIP3    H2 5002   2.360   4.532   1.042
 1666TIP3   OH2 5003   6.185   3.076   2.971
 1666TIP3    H1 5004   6.112   3.016   2.959
 1666TIP3    H2 5005   6.202   3.075   3.065
 1667TIP3   OH2 5006   5.058   3.615   4.219
 1667TIP3    H1 5007   5.102   3.581   4.141
 1667TIP3    H2 5008   4.973   3.570   4.220
 1668TIP3   OH2 5009   2.875   1.676   2.504
 1668TIP3    H1 5010   2.838   1.661   2.590
 1668TIP3    H2 5011   2.847   1.600   2.452
 1669TIP3   OH2 5012   2.538   5.569   4.949
 1669TIP3    H1 5013   2.633   5.561   4.937
 1669TIP3    H2 5014   2.516   5.504   5.016
 1670TIP3   OH2 5015   2.766   0.520   4.620
 1670TIP3    H1 5016   2.734   0.479   4.700
 1670TIP3    H2 5017   2.771   0.449   4.556
 1671TIP3   OH2 5018   4.207   4.976   0.313
 1671TIP3    H1 5019   4.153   4.899   0.331
 1671TIP3    H2 5020   4.183   5.002   0.224
 1672TIP3   OH2 5021   1.172   3.319   4.891
 1672TIP3    H1 5022   1.259   3.289   4.916
 1672TIP3    H2 5023   1.155   3.277   4.806
 1673TIP3   OH2 5024   5.605   0.432   0.043
 1673TIP3    H1 5025   5.654   0.488   0.103
 1673TIP3    H2 5026   5.620   0.343   0.076
 1674TIP3   OH2 5027   3.524   1.287   3.540
 1674TIP3    H1 5028   3.588   1.263   3.473
 1674TIP3    H2 5029   3.446   1.313   3.491
 1675TIP3   OH2 5030   3.452   3.175   0.315
 1675TIP3    H1 5031   3.547   3.166   0.308
 1675TIP3    H2 5032   3.437   3.270   0.317
 1676TIP3   OH2 5033   4.631   5.737   5.152
 1676TIP3    H1 5034   4.727   5.741   5.151
 1676TIP3    H2 5035   4.607   5.729   5.060
 1677TIP3   OH2 5036   0.248   0.217   2.090
 1677TIP3    H1 5037   0.343   0.208   2.081
 1677TIP3    H2 5038   0.233   0.311   2.097
 1678TIP3   OH2 5039   2.533   3.862   2.477
 1678TIP3    H1 5040   2.552   3.829   2.390
 1678TIP3    H2 5041   2.604   3.827   2.532
 1679TIP3   OH2 5042   5.846   2.499   1.995
 1679TIP3    H1 5043   5.938   2.526   2.004
 1679TIP3    H2 5044   5.808   2.511   2.082
 1680TIP3   OH2 5045   3.002   2.774   0.571
 1680TIP3    H1 5046   2.983   2.821   0.652
 1680TIP3    H2 5047   2.933   2.708   0.565
 1681TIP3   OH2 5048   3.840   3.429   2.553
 1681TIP3    H1 5049   3.846   3.496   2.485
 1681TIP3    H2 5050   3.823   3.348   2.505
 1682TIP3   OH2 5051   4.913   3.203   1.032
 1682TIP3    H1 5052   4.865   3.245   0.961
 1682TIP3    H2 5053   4.982   3.265   1.054
 1683TIP3   OH2 5054   2.810   2.072   1.162
 1683TIP3    H1 5055   2.731   2.087   1.213
 1683TIP3    H2 5056   2.876   2.046   1.226
 1684TIP3   OH2 5057   1.958   1.207   5.041
 1684TIP3    H1 5058   1.998   1.283   5.084
 1684TIP3    H2 5059   1.906   1.166   5.110
 1685TIP3   OH2 5060   5.292   5.737   1.615
 1685TIP3    H1 5061   5.251   5.711   1.698
 1685TIP3    H2 5062   5.315   5.829   1.627
 1686TIP3   OH2 5063   6.105   0.325   1.615
 1686TIP3    H1 5064   6.059   0.344   1.697
 1686TIP3    H2 5065   6.184   0.379   1.620
 1687TIP3   OH2 5066   3.190   1.542   0.442
 1687TIP3    H1 5067   3.281   1.513   0.445
 1687TIP3    H2 5068   3.192   1.633   0.470
 1688TIP3   OH2 5069   1.064   4.871   2.197
 1688TIP3    H1 5070   0.982   4.822   2.188
 1688TIP3    H2 5071   1.082   4.903   2.108
 1689TIP3   OH2 5072   0.153   0.683   2.676
 1689TIP3    H1 5073   0.071   0.728   2.696
 1689TIP3    H2 5074   0.166   0.698   2.582
 1690TIP3   OH2 5075   1.264   5.039   5.012
 1690TIP3    H1 5076   1.211   5.055   4.934
 1690TIP3    H2 5077   1.239   5.107   5.074
 1691TIP3   OH2 5078   2.070   2.857   5.141
 1691TIP3    H1 5079   2.128   2.923   5.102
 1691TIP3    H2 5080   2.064   2.788   5.075
 1692TIP3   OH2 5081   4.424   0.452   0.977
 1692TIP3    H1 5082   4.368   0.423   0.905
 1692TIP3    H2 5083   4.486   0.380   0.989
 1693TIP3   OH2 5084   2.348   4.290   1.759
 1693TIP3    H1 5085   2.300   4.295   1.676
 1693TIP3    H2 5086   2.422   4.232   1.741
 1694TIP3   OH2 5087   4.975   3.652   2.944
 1694TIP3    H1 5088   5.023   3.695   2.873
 1694TIP3    H2 5089   4.888   3.691   2.941
 1695TIP3   OH2 5090   4.833   1.291   2.616
 1695TIP3    H1 5091   4.783   1.247   2.547
 1695TIP3    H2 5092   4.779   1.282   2.695
 1696TIP3   OH2 5093   3.816   2.929   2.746
 1696TIP3    H1 5094   3.817   2.975   2.830
 1696TIP3    H2 5095   3.769   2.989   2.687
 1697TIP3   OH2 5096   0.743   5.619   2.467
 1697TIP3    H1 5097   0.675   5.606   2.532
 1697TIP3    H2 5098   0.697   5.652   2.390
 1698TIP3   OH2 5099   3.774   0.530   4.248
 1698TIP3    H1 5100   3.708   0.571   4.304
 1698TIP3    H2 5101   3.857   0.558   4.285
 1699TIP3   OH2 5102   2.687   0.357   2.759
 1699TIP3    H1 5103   2.771   0.312   2.764
 1699TIP3    H2 5104   2.710   0.449   2.743
 1700TIP3   OH2 5105   5.427   1.708   0.145
 1700TIP3    H1 5106   5.495   1.776   0.142
 1700TIP3    H2 5107   5.468   1.635   0.191
 1701TIP3   OH2 5108   1.646   4.043   2.589
 1701TIP3    H1 5109   1.692   4.124   2.609
 1701TIP3    H2 5110   1.686   3.978   2.647
 1702TIP3   OH2 5111   4.459   5.679   2.678
 1702TIP3    H1 5112   4.378   5.663   2.726
 1702TIP3    H2 5113   4.505   5.596   2.679
 1703TIP3   OH2 5114   4.425   2.042   4.461
 1703TIP3    H1 5115   4.454   1.988   4.388
 1703TIP3    H2 5116   4.348   2.088   4.428
 1704TIP3   OH2 5117   1.392   5.843   4.654
 1704TIP3    H1 5118   1.480   5.857   4.620
 1704TIP3    H2 5119   1.385   5.748   4.663
 1705TIP3   OH2 5120   1.015   4.145   0.128
 1705TIP3    H1 5121   0.997   4.051   0.133
 1705TIP3    H2 5122   0.975   4.181   0.207
 1706TIP3   OH2 5123   4.521   4.772   2.945
 1706TIP3    H1 5124   4.591   4.783   3.009
 1706TIP3    H2 5125   4.554   4.709   2.882
 1707TIP3   OH2 5126   0.453   4.562   1.381
 1707TIP3    H1 5127   0.484   4.480   1.419
 1707TIP3    H2 5128   0.532   4.615   1.368
 1708TIP3   OH2 5129   0.119   1.991   1.871
 1708TIP3    H1 5130   0.149   1.903   1.896
 1708TIP3    H2 5131   0.138   2.045   1.948
 1709TIP3   OH2 5132   0.969   4.543   0.741
 1709TIP3    H1 5133   0.929   4.462   0.709
 1709TIP3    H2 5134   1.059   4.540   0.709
 1710TIP3   OH2 5135   0.644   1.589   2.334
 1710TIP3    H1 5136   0.737   1.591   2.313
 1710TIP3    H2 5137   0.623   1.496   2.342
 1711TIP3   OH2 5138   3.951   4.307   1.948
 1711TIP3    H1 5139   3.971   4.325   2.040
 1711TIP3    H2 5140   3.878   4.245   1.950
 1712TIP3   OH2 5141   5.272   0.544   0.197
 1712TIP3    H1 5142   5.221   0.624   0.184
 1712TIP3    H2 5143   5.207   0.474   0.201
 1713TIP3   OH2 5144   3.195   5.048   4.313
 1713TIP3    H1 5145   3.174   5.025   4.404
 1713TIP3    H2 5146   3.263   4.985   4.289
 1714TIP3   OH2 5147   6.117   0.785   2.235
 1714TIP3    H1 5148   6.037   0.794   2.182
 1714TIP3    H2 5149   6.085   0.770   2.324
 1715TIP3   OH2 5150   1.126   4.124   3.564
 1715TIP3    H1 5151   1.165   4.179   3.632
 1715TIP3    H2 5152   1.200   4.101   3.507
 1716TIP3   OH2 5153   3.276   3.534   4.856
 1716TIP3    H1 5154   3.247   3.481   4.782
 1716TIP3    H2 5155   3.223   3.504   4.929
 1717TIP3   OH2 5156   2.045   0.231   1.158
 1717TIP3    H1 5157   2.034   0.302   1.221
 1717TIP3    H2 5158   2.061   0.276   1.075
 1718TIP3   OH2 5159   3.113   0.289   1.393
 1718TIP3    H1 5160   3.122   0.384   1.403
 1718TIP3    H2 5161   3.033   0.278   1.342
 1719TIP3   OH2 5162   4.747   2.315   2.140
 1719TIP3    H1 5163   4.802   2.282   2.069
 1719TIP3    H2 5164   4.703   2.238   2.175
 1720TIP3   OH2 5165   5.714   0.307   1.759
 1720TIP3    H1 5166   5.729   0.282   1.850
 1720TIP3    H2 5167   5.684   0.398   1.764
 1721TIP3   OH2 5168   2.216   0.843   1.270
 1721TIP3    H1 5169   2.294   0.792   1.247
 1721TIP3    H2 5170   2.171   0.791   1.335
 1722TIP3   OH2 5171   0.904   4.022   3.691
 1722TIP3    H1 5172   0.987   4.059   3.659
 1722TIP3    H2 5173   0.839   4.051   3.628
 1723TIP3   OH2 5174   5.953   4.968   3.749
 1723TIP3    H1 5175   5.928   4.889   3.700
 1723TIP3    H2 5176   6.049   4.967   3.748
 1724TIP3   OH2 5177   4.998   4.314   4.776
 1724TIP3    H1 5178   4.935   4.260   4.727
 1724TIP3    H2 5179   5.070   4.327   4.715
 1725TIP3   OH2 5180   1.673   1.428   3.756
 1725TIP3    H1 5181   1.756   1.382   3.742
 1725TIP3    H2 5182   1.646   1.455   3.668
 1726TIP3   OH2 5183   3.992   0.716   1.447
 1726TIP3    H1 5184   4.022   0.733   1.357
 1726TIP3    H2 5185   3.897   0.726   1.442
 1727TIP3   OH2 5186   2.758   1.219   0.779
 1727TIP3    H1 5187   2.845   1.255   0.795
 1727TIP3    H2 5188   2.755   1.205   0.684
 1728TIP3   OH2 5189   3.129   0.363   0.404
 1728TIP3    H1 5190   3.073   0.326   0.472
 1728TIP3    H2 5191   3.069   0.384   0.333
 1729TIP3   OH2 5192   5.350   1.103   3.136
 1729TIP3    H1 5193   5.273   1.101   3.080
 1729TIP3    H2 5194   5.411   1.161   3.092
 1730TIP3   OH2 5195   1.358   1.450   4.975
 1730TIP3    H1 5196   1.402   1.527   5.012
 1730TIP3    H2 5197   1.333   1.478   4.887
 1731TIP3   OH2 5198   0.826   0.518   4.192
 1731TIP3    H1 5199   0.760   0.510   4.261
 1731TIP3    H2 5200   0.790   0.585   4.133
 1732TIP3   OH2 5201   4.948   0.423   5.166
 1732TIP3    H1 5202   5.035   0.413   5.204
 1732TIP3    H2 5203   4.932   0.340   5.120
 1733TIP3   OH2 5204   0.459   4.360   2.181
 1733TIP3    H1 5205   0.381   4.402   2.144
 1733TIP3    H2 5206   0.436   4.267   2.184
 1734TIP3   OH2 5207   1.135   2.438   1.178
 1734TIP3    H1 5208   1.145   2.521   1.131
 1734TIP3    H2 5209   1.044   2.412   1.163
 1735TIP3   OH2 5210   0.300   4.327   4.008
 1735TIP3    H1 5211   0.206   4.344   4.017
 1735TIP3    H2 5212   0.341   4.412   4.024
 1736TIP3   OH2 5213   5.974   2.276   1.601
 1736TIP3    H1 5214   5.956   2.356   1.551
 1736TIP3    H2 5215   6.067   2.259   1.587
 1737TIP3   OH2 5216   3.406   0.386   3.503
 1737TIP3    H1 5217   3.501   0.397   3.495
 1737TIP3    H2 5218   3.389   0.297   3.471
 1738TIP3   OH2 5219   0.906   4.862   2.685
 1738TIP3    H1 5220   0.855   4.781   2.676
 1738TIP3    H2 5221   0.855   4.928   2.638
 1739TIP3   OH2 5222   0.771   2.747   4.964
 1739TIP3    H1 5223   0.801   2.668   5.009
 1739TIP3    H2 5224   0.687   2.723   4.926
 1740TIP3   OH2 5225   3.867   2.997   1.758
 1740TIP3    H1 5226   3.877   2.936   1.686
 1740TIP3    H2 5227   3.878   2.944   1.837
 1741TIP3   OH2 5228   2.128   5.950   4.493
 1741TIP3    H1 5229   2.109   6.004   4.570
 1741TIP3    H2 5230   2.145   5.863   4.528
 1742TIP3   OH2 5231   3.426   3.765   0.665
 1742TIP3    H1 5232   3.396   3.674   0.670
 1742TIP3    H2 5233   3.508   3.761   0.616
 1743TIP3   OH2 5234   1.155   4.758   5.014
 1743TIP3    H1 5235   1.148   4.679   5.068
 1743TIP3    H2 5236   1.181   4.827   5.075
 1744TIP3   OH2 5237   3.865   5.729   2.582
 1744TIP3    H1 5238   3.869   5.642   2.623
 1744TIP3    H2 5239   3.785   5.768   2.616
 1745TIP3   OH2 5240   1.292   0.166   4.275
 1745TIP3    H1 5241   1.357   0.215   4.325
 1745TIP3    H2 5242   1.208   0.203   4.303
 1746TIP3   OH2 5243   1.022   0.785   4.048
 1746TIP3    H1 5244   1.011   0.844   4.123
 1746TIP3    H2 5245   1.062   0.706   4.086
 1747TIP3   OH2 5246   0.368   4.958   3.438
 1747TIP3    H1 5247   0.459   4.928   3.441
 1747TIP3    H2 5248   0.353   4.983   3.347
 1748TIP3   OH2 5249   1.923   0.500   4.016
 1748TIP3    H1 5250   1.847   0.537   4.061
 1748TIP3    H2 5251   1.904   0.406   4.010
 1749TIP3   OH2 5252   2.704   4.669   3.626
 1749TIP3    H1 5253   2.783   4.675   3.571
 1749TIP3    H2 5254   2.633   4.695   3.568
 1750TIP3   OH2 5255   0.683   2.024   0.701
 1750TIP3    H1 5256   0.759   1.978   0.666
 1750TIP3    H2 5257   0.634   2.053   0.624
 1751TIP3   OH2 5258   5.094   0.997   1.631
 1751TIP3    H1 5259   5.058   0.937   1.697
 1751TIP3    H2 5260   5.054   0.968   1.549
 1752TIP3   OH2 5261   5.165   5.790   3.245
 1752TIP3    H1 5262   5.224   5.853   3.286
 1752TIP3    H2 5263   5.125   5.743   3.318
 1753TIP3   OH2 5264   3.112   4.218   2.429
 1753TIP3    H1 5265   3.067   4.192   2.349
 1753TIP3    H2 5266   3.042   4.248   2.488
 1754TIP3   OH2 5267   0.122   5.965   3.546
 1754TIP3    H1 5268   0.032   5.995   3.559
 1754TIP3    H2 5269   0.139   5.979   3.453
 1755TIP3   OH2 5270   0.097   4.435   4.711
 1755TIP3    H1 5271   0.052   4.425   4.795
 1755TIP3    H2 5272   0.029   4.461   4.650
 1756TIP3   OH2 5273   2.052   5.804   3.137
 1756TIP3    H1 5274   1.993   5.838   3.205
 1756TIP3    H2 5275   1.996   5.791   3.061
 1757TIP3   OH2 5276   4.195   1.897   2.169
 1757TIP3    H1 5277   4.237   1.887   2.084
 1757TIP3    H2 5278   4.145   1.978   2.163
 1758TIP3   OH2 5279   5.638   4.283   3.057
 1758TIP3    H1 5280   5.697   4.220   3.016
 1758TIP3    H2 5281   5.627   4.352   2.991
 1759TIP3   OH2 5282   4.365   4.479   4.423
 1759TIP3    H1 5283   4.434   4.544   4.429
 1759TIP3    H2 5284   4.399   4.413   4.362
 1760TIP3   OH2 5285   1.320   5.578   4.596
 1760TIP3    H1 5286   1.349   5.600   4.507
 1760TIP3    H2 5287   1.241   5.526   4.583
 1761TIP3   OH2 5288   4.335   0.419   1.894
 1761TIP3    H1 5289   4.257   0.389   1.848
 1761TIP3    H2 5290   4.359   0.346   1.951
 1762TIP3   OH2 5291   1.740   5.245   2.575
 1762TIP3    H1 5292   1.673   5.275   2.637
 1762TIP3    H2 5293   1.702   5.168   2.533
 1763TIP3   OH2 5294   5.578   2.336   0.306
 1763TIP3    H1 5295   5.659   2.376   0.274
 1763TIP3    H2 5296   5.578   2.248   0.267
 1764TIP3   OH2 5297   6.272   3.151   2.168
 1764TIP3    H1 5298   6.266   3.073   2.113
 1764TIP3    H2 5299   6.341   3.130   2.232
 1765TIP3   OH2 5300   5.140   3.719   1.647
 1765TIP3    H1 5301   5.174   3.757   1.566
 1765TIP3    H2 5302   5.188   3.765   1.716
 1766TIP3   OH2 5303   5.355   5.805   5.029
 1766TIP3    H1 5304   5.399   5.836   5.109
 1766TIP3    H2 5305   5.424   5.804   4.963
 1767TIP3   OH2 5306   1.587   2.470   3.224
 1767TIP3    H1 5307   1.548   2.383   3.230
 1767TIP3    H2 5308   1.615   2.478   3.133
 1768TIP3   OH2 5309   4.407   4.742   4.735
 1768TIP3    H1 5310   4.457   4.763   4.656
 1768TIP3    H2 5311   4.438   4.655   4.760
 1769TIP3   OH2 5312   1.645   3.247   2.647
 1769TIP3    H1 5313   1.728   3.278   2.682
 1769TIP3    H2 5314   1.611   3.188   2.715
 1770TIP3   OH2 5315   1.774   1.503   3.280
 1770TIP3    H1 5316   1.686   1.469   3.296
 1770TIP3    H2 5317   1.820   1.492   3.363
 1771TIP3   OH2 5318   6.229   2.380   0.927
 1771TIP3    H1 5319   6.278   2.302   0.900
 1771TIP3    H2 5320   6.278   2.453   0.891
 1772TIP3   OH2 5321   5.582   2.046   3.854
 1772TIP3    H1 5322   5.577   1.957   3.818
 1772TIP3    H2 5323   5.495   2.063   3.889
 1773TIP3   OH2 5324   2.702   4.538   3.259
 1773TIP3    H1 5325   2.773   4.476   3.239
 1773TIP3    H2 5326   2.625   4.482   3.271
 1774TIP3   OH2 5327   5.228   2.361   2.518
 1774TIP3    H1 5328   5.227   2.299   2.591
 1774TIP3    H2 5329   5.321   2.373   2.499
 1775TIP3   OH2 5330   3.322   0.166   3.985
 1775TIP3    H1 5331   3.352   0.091   4.036
 1775TIP3    H2 5332   3.231   0.179   4.011
 1776TIP3   OH2 5333   2.533   0.382   5.028
 1776TIP3    H1 5334   2.619   0.380   5.069
 1776TIP3    H2 5335   2.478   0.428   5.091
 1777TIP3   OH2 5336   4.695   2.896   4.866
 1777TIP3    H1 5337   4.752   2.970   4.888
 1777TIP3    H2 5338   4.614   2.937   4.835
 1778TIP3   OH2 5339   5.000   0.170   1.345
 1778TIP3    H1 5340   4.935   0.240   1.336
 1778TIP3    H2 5341   4.959   0.106   1.403
 1779TIP3   OH2 5342   2.769   2.197   0.529
 1779TIP3    H1 5343   2.781   2.222   0.437
 1779TIP3    H2 5344   2.688   2.240   0.556
 1780TIP3   OH2 5345   2.885   0.508   0.767
 1780TIP3    H1 5346   2.953   0.464   0.818
 1780TIP3    H2 5347   2.806   0.454   0.780
 1781TIP3   OH2 5348   2.919   3.173   1.394
 1781TIP3    H1 5349   2.950   3.126   1.317
 1781TIP3    H2 5350   2.934   3.113   1.467
 1782TIP3   OH2 5351   4.232   3.138   2.795
 1782TIP3    H1 5352   4.213   3.195   2.869
 1782TIP3    H2 5353   4.180   3.173   2.723
 1783TIP3   OH2 5354   2.331   0.402   0.049
 1783TIP3    H1 5355   2.270   0.459   0.002
 1783TIP3    H2 5356   2.393   0.373  -0.018
 1784TIP3   OH2 5357   0.275   4.154   2.159
 1784TIP3    H1 5358   0.317   4.081   2.114
 1784TIP3    H2 5359   0.201   4.178   2.103
 1785TIP3   OH2 5360   4.548   0.496   1.730
 1785TIP3    H1 5361   4.472   0.473   1.784
 1785TIP3    H2 5362   4.510   0.539   1.653
 1786TIP3   OH2 5363   3.764   3.161   0.814
 1786TIP3    H1 5364   3.819   3.202   0.881
 1786TIP3    H2 5365   3.676   3.194   0.833
 1787TIP3   OH2 5366   3.739   4.918   2.015
 1787TIP3    H1 5367   3.799   4.893   2.085
 1787TIP3    H2 5368   3.792   4.973   1.957
 1788TIP3   OH2 5369   5.380   4.580   3.005
 1788TIP3    H1 5370   5.387   4.675   3.000
 1788TIP3    H2 5371   5.294   4.560   2.969
 1789TIP3   OH2 5372   5.950   0.863   3.144
 1789TIP3    H1 5373   6.027   0.855   3.087
 1789TIP3    H2 5374   5.876   0.868   3.083
 1790TIP3   OH2 5375   1.493   4.303   1.371
 1790TIP3    H1 5376   1.457   4.288   1.284
 1790TIP3    H2 5377   1.524   4.217   1.399
 1791TIP3   OH2 5378   4.113   0.122   1.103
 1791TIP3    H1 5379   4.157   0.193   1.151
 1791TIP3    H2 5380   4.184   0.073   1.061
 1792TIP3   OH2 5381   3.562   0.206   4.318
 1792TIP3    H1 5382   3.524   0.282   4.272
 1792TIP3    H2 5383   3.489   0.166   4.363
 1793TIP3   OH2 5384   4.740   0.282   3.521
 1793TIP3    H1 5385   4.781   0.367   3.505
 1793TIP3    H2 5386   4.716   0.250   3.434
 1794TIP3   OH2 5387   3.611   4.464   1.266
 1794TIP3    H1 5388   3.649   4.549   1.288
 1794TIP3    H2 5389   3.532   4.458   1.319
 1795TIP3   OH2 5390   2.516   0.147   0.848
 1795TIP3    H1 5391   2.515   0.089   0.772
 1795TIP3    H2 5392   2.605   0.183   0.849
 1796TIP3   OH2 5393   3.014   4.335   3.811
 1796TIP3    H1 5394   2.926   4.339   3.849
 1796TIP3    H2 5395   3.017   4.410   3.752
 1797TIP3   OH2 5396   0.949   1.829   1.801
 1797TIP3    H1 5397   0.877   1.770   1.780
 1797TIP3    H2 5398   0.955   1.826   1.896
 1798TIP3   OH2 5399   4.690   3.706   0.688
 1798TIP3    H1 5400   4.752   3.663   0.746
 1798TIP3    H2 5401   4.739   3.724   0.608
 1799TIP3   OH2 5402   5.172   1.929   1.673
 1799TIP3    H1 5403   5.192   1.846   1.631
 1799TIP3    H2 5404   5.257   1.971   1.684
 1800TIP3   OH2 5405   3.149   2.070   0.528
 1800TIP3    H1 5406   3.092   2.036   0.459
 1800TIP3    H2 5407   3.134   2.012   0.602
 1801TIP3   OH2 5408   2.343   3.801   3.899
 1801TIP3    H1 5409   2.307   3.725   3.943
 1801TIP3    H2 5410   2.413   3.832   3.956
 1802TIP3   OH2 5411   1.829   0.486   1.996
 1802TIP3    H1 5412   1.818   0.463   2.088
 1802TIP3    H2 5413   1.787   0.414   1.948
 1803TIP3   OH2 5414   2.788   2.850   3.340
 1803TIP3    H1 5415   2.866   2.901   3.363
 1803TIP3    H2 5416   2.733   2.911   3.292
 1804TIP3   OH2 5417   3.150   1.407   4.447
 1804TIP3    H1 5418   3.212   1.360   4.503
 1804TIP3    H2 5419   3.078   1.430   4.506
 1805TIP3   OH2 5420   5.310   3.799   3.856
 1805TIP3    H1 5421   5.242   3.754   3.907
 1805TIP3    H2 5422   5.313   3.888   3.892
 1806TIP3   OH2 5423   4.709   2.635   4.082
 1806TIP3    H1 5424   4.663   2.571   4.027
 1806TIP3    H2 5425   4.753   2.693   4.020
 1807TIP3   OH2 5426   0.763   5.417   1.092
 1807TIP3    H1 5427   0.687   5.440   1.039
 1807TIP3    H2 5428   0.751   5.324   1.113
 1808TIP3   OH2 5429   3.619   0.518   0.259
 1808TIP3    H1 5430   3.659   0.588   0.207
 1808TIP3    H2 5431   3.529   0.546   0.273
 1809TIP3   OH2 5432   2.700   2.515   4.073
 1809TIP3    H1 5433   2.788   2.480   4.058
 1809TIP3    H2 5434   2.651   2.441   4.108
 1810TIP3   OH2 5435   2.991   3.875   4.602
 1810TIP3    H1 5436   3.010   3.943   4.666
 1810TIP3    H2 5437   2.987   3.794   4.653
 1811TIP3   OH2 5438   5.594   0.986   2.615
 1811TIP3    H1 5439   5.651   0.934   2.558
 1811TIP3    H2 5440   5.628   1.075   2.608
 1812TIP3   OH2 5441   4.903   3.714   2.607
 1812TIP3    H1 5442   4.945   3.647   2.552
 1812TIP3    H2 5443   4.975   3.758   2.651
 1813TIP3   OH2 5444   1.274   3.768   1.930
 1813TIP3    H1 5445   1.302   3.703   1.866
 1813TIP3    H2 5446   1.220   3.719   1.992
 1814TIP3   OH2 5447   3.019   3.809   0.773
 1814TIP3    H1 5448   2.923   3.801   0.775
 1814TIP3    H2 5449   3.050   3.728   0.734
 1815TIP3   OH2 5450   0.129   1.145   0.602
 1815TIP3    H1 5451   0.216   1.176   0.579
 1815TIP3    H2 5452   0.070   1.216   0.575
 1816TIP3   OH2 5453   0.275   1.773   1.979
 1816TIP3    H1 5454   0.270   1.720   2.058
 1816TIP3    H2 5455   0.341   1.729   1.924
 1817TIP3   OH2 5456   2.917   2.881   4.917
 1817TIP3    H1 5457   2.939   2.812   4.855
 1817TIP3    H2 5458   2.916   2.838   5.002
 1818TIP3   OH2 5459   5.560   0.401   3.630
 1818TIP3    H1 5460   5.597   0.482   3.595
 1818TIP3    H2 5461   5.475   0.427   3.666
 1819TIP3   OH2 5462   0.939   1.780   2.332
 1819TIP3    H1 5463   1.019   1.742   2.296
 1819TIP3    H2 5464   0.916   1.723   2.405
 1820TIP3   OH2 5465   4.251   2.402   1.839
 1820TIP3    H1 5466   4.346   2.415   1.834
 1820TIP3    H2 5467   4.240   2.307   1.844
 1821TIP3   OH2 5468   0.585   4.580   4.794
 1821TIP3    H1 5469   0.544   4.648   4.741
 1821TIP3    H2 5470   0.537   4.500   4.773
 1822TIP3   OH2 5471   0.359   4.150   2.727
 1822TIP3    H1 5472   0.395   4.193   2.650
 1822TIP3    H2 5473   0.436   4.121   2.777
 1823TIP3   OH2 5474   3.615   1.891   3.921
 1823TIP3    H1 5475   3.630   1.981   3.895
 1823TIP3    H2 5476   3.616   1.841   3.840
 1824TIP3   OH2 5477   0.520   2.266   0.310
 1824TIP3    H1 5478   0.523   2.299   0.220
 1824TIP3    H2 5479   0.428   2.266   0.333
 1825TIP3   OH2 5480   5.506   1.102   0.802
 1825TIP3    H1 5481   5.482   1.185   0.841
 1825TIP3    H2 5482   5.495   1.038   0.872
 1826TIP3   OH2 5483   1.174   1.117   3.770
 1826TIP3    H1 5484   1.214   1.055   3.709
 1826TIP3    H2 5485   1.107   1.162   3.719
 1827TIP3   OH2 5486   5.609   2.646   0.589
 1827TIP3    H1 5487   5.675   2.704   0.552
 1827TIP3    H2 5488   5.525   2.683   0.561
 1828TIP3   OH2 5489   5.021   2.397   3.844
 1828TIP3    H1 5490   5.039   2.408   3.750
 1828TIP3    H2 5491   4.965   2.319   3.848
 1829TIP3   OH2 5492   4.640   0.668   2.980
 1829TIP3    H1 5493   4.589   0.739   2.942
 1829TIP3    H2 5494   4.706   0.713   3.035
 1830TIP3   OH2 5495   2.913   5.697   4.198
 1830TIP3    H1 5496   2.964   5.635   4.251
 1830TIP3    H2 5497   2.965   5.778   4.198
 1831TIP3   OH2 5498   3.402   5.696   4.451
 1831TIP3    H1 5499   3.429   5.634   4.383
 1831TIP3    H2 5500   3.372   5.641   4.523
 1832TIP3   OH2 5501   1.931   1.838   4.573
 1832TIP3    H1 5502   1.954   1.928   4.595
 1832TIP3    H2 5503   1.884   1.844   4.490
 1833TIP3   OH2 5504   2.205   0.032   2.082
 1833TIP3    H1 5505   2.124  -0.019   2.082
 1833TIP3    H2 5506   2.177   0.123   2.091
 1834TIP3   OH2 5507   0.438   5.463   4.612
 1834TIP3    H1 5508   0.481   5.378   4.608
 1834TIP3    H2 5509   0.428   5.490   4.521
 1835TIP3   OH2 5510   2.236   5.735   0.116
 1835TIP3    H1 5511   2.166   5.754   0.054
 1835TIP3    H2 5512   2.237   5.640   0.124
 1836TIP3   OH2 5513   0.114   3.596   3.716
 1836TIP3    H1 5514   0.058   3.622   3.789
 1836TIP3    H2 5515   0.160   3.518   3.747
 1837TIP3   OH2 5516   3.626   2.062   3.299
 1837TIP3    H1 5517   3.590   2.151   3.301
 1837TIP3    H2 5518   3.596   2.023   3.381
 1838TIP3   OH2 5519   4.155   3.800   1.589
 1838TIP3    H1 5520   4.120   3.835   1.671
 1838TIP3    H2 5521   4.250   3.803   1.600
 1839TIP3   OH2 5522   0.567   5.685   0.203
 1839TIP3    H1 5523   0.569   5.636   0.286
 1839TIP3    H2 5524   0.480   5.726   0.202
 1840TIP3   OH2 5525   4.323   0.672   1.125
 1840TIP3    H1 5526   4.376   0.600   1.092
 1840TIP3    H2 5527   4.368   0.700   1.205
 1841TIP3   OH2 5528   0.030   2.058   2.743
 1841TIP3    H1 5529   0.073   2.116   2.805
 1841TIP3    H2 5530  -0.004   2.116   2.675
 1842TIP3   OH2 5531   2.153   5.585   0.526
 1842TIP3    H1 5532   2.169   5.505   0.477
 1842TIP3    H2 5533   2.098   5.638   0.469
 1843TIP3   OH2 5534   0.038   4.123   2.734
 1843TIP3    H1 5535   0.084   4.164   2.807
 1843TIP3    H2 5536   0.063   4.175   2.657
 1844TIP3   OH2 5537   1.741   2.212   1.709
 1844TIP3    H1 5538   1.769   2.185   1.796
 1844TIP3    H2 5539   1.705   2.299   1.721
 1845TIP3   OH2 5540   5.672   4.919   2.469
 1845TIP3    H1 5541   5.645   5.005   2.501
 1845TIP3    H2 5542   5.593   4.883   2.428
 1846TIP3   OH2 5543   4.898   0.196   5.016
 1846TIP3    H1 5544   4.813   0.186   4.973
 1846TIP3    H2 5545   4.959   0.212   4.944
 1847TIP3   OH2 5546   6.290   4.866   0.746
 1847TIP3    H1 5547   6.368   4.874   0.801
 1847TIP3    H2 5548   6.235   4.939   0.771
 1848TIP3   OH2 5549   5.346   5.727   2.992
 1848TIP3    H1 5550   5.260   5.732   3.032
 1848TIP3    H2 5551   5.330   5.693   2.904
 1849TIP3   OH2 5552   2.475   0.140   4.898
 1849TIP3    H1 5553   2.462   0.233   4.915
 1849TIP3    H2 5554   2.497   0.103   4.984
 1850TIP3   OH2 5555   0.683   3.836   1.770
 1850TIP3    H1 5556   0.610   3.773   1.764
 1850TIP3    H2 5557   0.735   3.805   1.844
 1851TIP3   OH2 5558   3.318   5.719   0.699
 1851TIP3    H1 5559   3.331   5.638   0.748
 1851TIP3    H2 5560   3.300   5.691   0.609
 1852TIP3   OH2 5561   2.293   4.842   4.736
 1852TIP3    H1 5562   2.381   4.829   4.773
 1852TIP3    H2 5563   2.291   4.934   4.712
 1853TIP3   OH2 5564   0.448   1.019   2.058
 1853TIP3    H1 5565   0.407   1.087   2.112
 1853TIP3    H2 5566   0.460   0.945   2.118
 1854TIP3   OH2 5567   5.580   3.840   5.071
 1854TIP3    H1 5568   5.610   3.931   5.069
 1854TIP3    H2 5569   5.587   3.815   5.163
 1855TIP3   OH2 5570   2.714   0.135   3.871
 1855TIP3    H1 5571   2.709   0.051   3.916
 1855TIP3    H2 5572   2.658   0.125   3.794
 1856TIP3   OH2 5573   5.119   0.348   0.943
 1856TIP3    H1 5574   5.119   0.340   0.847
 1856TIP3    H2 5575   5.135   0.440   0.959
 1857TIP3   OH2 5576   1.931   5.497   0.306
 1857TIP3    H1 5577   1.945   5.408   0.275
 1857TIP3    H2 5578   1.994   5.550   0.257
 1858TIP3   OH2 5579   4.339   4.243   2.427
 1858TIP3    H1 5580   4.247   4.231   2.403
 1858TIP3    H2 5581   4.381   4.274   2.347
 1859TIP3   OH2 5582   4.943   4.786   3.410
 1859TIP3    H1 5583   5.010   4.757   3.472
 1859TIP3    H2 5584   4.980   4.768   3.324
 1860TIP3   OH2 5585   5.691   1.382   4.451
 1860TIP3    H1 5586   5.759   1.339   4.399
 1860TIP3    H2 5587   5.737   1.451   4.498
 1861TIP3   OH2 5588   2.776   2.583   2.133
 1861TIP3    H1 5589   2.726   2.626   2.203
 1861TIP3    H2 5590   2.848   2.643   2.116
 1862TIP3   OH2 5591   2.449   1.003   3.825
 1862TIP3    H1 5592   2.409   0.918   3.845
 1862TIP3    H2 5593   2.537   0.981   3.795
 1863TIP3   OH2 5594   1.653   0.810   0.546
 1863TIP3    H1 5595   1.561   0.799   0.525
 1863TIP3    H2 5596   1.654   0.850   0.633
 1864TIP3   OH2 5597   0.747   3.106   2.577
 1864TIP3    H1 5598   0.828   3.083   2.622
 1864TIP3    H2 5599   0.693   3.026   2.583
 1865TIP3   OH2 5600   4.353   1.208   4.708
 1865TIP3    H1 5601   4.357   1.292   4.755
 1865TIP3    H2 5602   4.431   1.208   4.653
 1866TIP3   OH2 5603   2.095   5.399   0.750
 1866TIP3    H1 5604   2.025   5.456   0.717
 1866TIP3    H2 5605   2.122   5.440   0.832
 1867TIP3   OH2 5606   2.256   3.120   2.727
 1867TIP3    H1 5607   2.292   3.040   2.766
 1867TIP3    H2 5608   2.309   3.191   2.764
 1868TIP3   OH2 5609   5.983   2.920   0.482
 1868TIP3    H1 5610   5.922   2.849   0.464
 1868TIP3    H2 5611   5.938   2.974   0.547
 1869TIP3   OH2 5612   1.060   0.931   0.852
 1869TIP3    H1 5613   1.058   0.884   0.769
 1869TIP3    H2 5614   1.149   0.966   0.858
 1870TIP3   OH2 5615   5.683   1.722   4.652
 1870TIP3    H1 5616   5.777   1.710   4.640
 1870TIP3    H2 5617   5.672   1.816   4.665
 1871TIP3   OH2 5618   1.315   0.748   1.208
 1871TIP3    H1 5619   1.330   0.712   1.121
 1871TIP3    H2 5620   1.233   0.708   1.237
 1872TIP3   OH2 5621   3.918   4.823   0.177
 1872TIP3    H1 5622   3.957   4.895   0.127
 1872TIP3    H2 5623   3.903   4.859   0.264
 1873TIP3   OH2 5624   2.181   5.524   0.984
 1873TIP3    H1 5625   2.207   5.453   1.042
 1873TIP3    H2 5626   2.187   5.603   1.038
 1874TIP3   OH2 5627   2.608   2.233   1.258
 1874TIP3    H1 5628   2.526   2.194   1.287
 1874TIP3    H2 5629   2.582   2.304   1.198
 1875TIP3   OH2 5630   2.434   0.277   3.543
 1875TIP3    H1 5631   2.511   0.328   3.565
 1875TIP3    H2 5632   2.371   0.297   3.612
 1876TIP3   OH2 5633   4.902   0.846   0.881
 1876TIP3    H1 5634   4.811   0.869   0.901
 1876TIP3    H2 5635   4.951   0.926   0.898
 1877TIP3   OH2 5636   6.250   0.735   3.182
 1877TIP3    H1 5637   6.274   0.827   3.193
 1877TIP3    H2 5638   6.321   0.697   3.130
 1878TIP3   OH2 5639   2.358   2.790   0.191
 1878TIP3    H1 5640   2.405   2.763   0.112
 1878TIP3    H2 5641   2.303   2.715   0.213
 1879TIP3   OH2 5642   2.849   5.887   3.626
 1879TIP3    H1 5643   2.799   5.967   3.643
 1879TIP3    H2 5644   2.896   5.904   3.544
 1880TIP3   OH2 5645   5.649   3.151   2.873
 1880TIP3    H1 5646   5.624   3.210   2.802
 1880TIP3    H2 5647   5.599   3.071   2.857
 1881TIP3   OH2 5648   0.618   5.548   3.220
 1881TIP3    H1 5649   0.588   5.628   3.264
 1881TIP3    H2 5650   0.571   5.547   3.137
 1882TIP3   OH2 5651   6.087   0.712   2.787
 1882TIP3    H1 5652   6.119   0.784   2.841
 1882TIP3    H2 5653   6.061   0.645   2.850
 1883TIP3   OH2 5654   3.829   0.257   4.271
 1883TIP3    H1 5655   3.816   0.352   4.267
 1883TIP3    H2 5656   3.745   0.220   4.246
 1884TIP3   OH2 5657   1.618   2.651   1.461
 1884TIP3    H1 5658   1.528   2.671   1.487
 1884TIP3    H2 5659   1.630   2.698   1.378
 1885TIP3   OH2 5660   3.604   2.959   0.937
 1885TIP3    H1 5661   3.683   3.000   0.902
 1885TIP3    H2 5662   3.537   2.975   0.871
 1886TIP3   OH2 5663   6.339   5.269   4.225
 1886TIP3    H1 5664   6.300   5.221   4.298
 1886TIP3    H2 5665   6.362   5.354   4.261
 1887TIP3   OH2 5666   6.203   1.932   3.041
 1887TIP3    H1 5667   6.137   1.902   3.104
 1887TIP3    H2 5668   6.267   1.861   3.038
 1888TIP3   OH2 5669   0.888   5.506   3.706
 1888TIP3    H1 5670   0.802   5.475   3.680
 1888TIP3    H2 5671   0.909   5.457   3.785
 1889TIP3   OH2 5672   2.074   1.345   1.839
 1889TIP3    H1 5673   2.168   1.337   1.823
 1889TIP3    H2 5674   2.034   1.338   1.752
 1890TIP3   OH2 5675   4.281   0.340   4.892
 1890TIP3    H1 5676   4.282   0.266   4.831
 1890TIP3    H2 5677   4.214   0.399   4.858
 1891TIP3   OH2 5678   2.632   2.245   5.173
 1891TIP3    H1 5679   2.654   2.158   5.142
 1891TIP3    H2 5680   2.536   2.246   5.176
 1892TIP3   OH2 5681   0.882   2.013   4.893
 1892TIP3    H1 5682   0.787   2.021   4.893
 1892TIP3    H2 5683   0.901   1.952   4.965
 1893TIP3   OH2 5684   5.994   2.552   0.683
 1893TIP3    H1 5685   6.085   2.525   0.676
 1893TIP3    H2 5686   5.948   2.497   0.620
 1894TIP3   OH2 5687   5.109   0.405   4.215
 1894TIP3    H1 5688   5.096   0.381   4.124
 1894TIP3    H2 5689   5.187   0.356   4.242
 1895TIP3   OH2 5690   3.619   5.831   2.674
 1895TIP3    H1 5691   3.524   5.824   2.684
 1895TIP3    H2 5692   3.649   5.861   2.760
 1896TIP3   OH2 5693   4.725   4.536   2.460
 1896TIP3    H1 5694   4.771   4.543   2.377
 1896TIP3    H2 5695   4.641   4.494   2.438
 1897TIP3   OH2 5696   2.497   1.918   4.187
 1897TIP3    H1 5697   2.438   1.916   4.111
 1897TIP3    H2 5698   2.542   2.001   4.180
 1898TIP3   OH2 5699   4.373   5.332   1.687
 1898TIP3    H1 5700   4.339   5.246   1.663
 1898TIP3    H2 5701   4.339   5.347   1.776
 1899TIP3   OH2 5702   5.787   1.826   0.932
 1899TIP3    H1 5703   5.853   1.826   0.862
 1899TIP3    H2 5704   5.821   1.763   0.996
 1900TIP3   OH2 5705   2.740   1.243   3.821
 1900TIP3    H1 5706   2.818   1.296   3.803
 1900TIP3    H2 5707   2.709   1.215   3.735
 1901TIP3   OH2 5708   4.713   2.235   3.834
 1901TIP3    H1 5709   4.683   2.234   3.743
 1901TIP3    H2 5710   4.695   2.323   3.865
 1902TIP3   OH2 5711   2.224   0.053   2.666
 1902TIP3    H1 5712   2.160   0.038   2.596
 1902TIP3    H2 5713   2.227  -0.029   2.714
 1903TIP3   OH2 5714   0.364   3.210   0.416
 1903TIP3    H1 5715   0.437   3.235   0.473
 1903TIP3    H2 5716   0.331   3.129   0.454
 1904TIP3   OH2 5717   6.117   4.697   4.705
 1904TIP3    H1 5718   6.153   4.621   4.659
 1904TIP3    H2 5719   6.038   4.720   4.657
 1905TIP3   OH2 5720   3.210   2.437   3.322
 1905TIP3    H1 5721   3.245   2.527   3.319
 1905TIP3    H2 5722   3.224   2.410   3.413
 1906TIP3   OH2 5723   2.918   3.154   4.844
 1906TIP3    H1 5724   2.969   3.078   4.873
 1906TIP3    H2 5725   2.828   3.122   4.842
 1907TIP3   OH2 5726   1.917   1.369   3.025
 1907TIP3    H1 5727   1.869   1.371   3.108
 1907TIP3    H2 5728   1.898   1.454   2.985
 1908TIP3   OH2 5729   3.594   4.459   4.626
 1908TIP3    H1 5730   3.632   4.371   4.632
 1908TIP3    H2 5731   3.500   4.445   4.628
 1909TIP3   OH2 5732   5.996   4.979   4.031
 1909TIP3    H1 5733   5.951   5.032   4.097
 1909TIP3    H2 5734   5.927   4.954   3.969
 1910TIP3   OH2 5735   0.375   3.497   3.483
 1910TIP3    H1 5736   0.366   3.586   3.448
 1910TIP3    H2 5737   0.390   3.510   3.577
 1911TIP3   OH2 5738   6.061   0.661   4.999
 1911TIP3    H1 5739   6.028   0.622   5.080
 1911TIP3    H2 5740   6.025   0.750   4.999
 1912TIP3   OH2 5741   0.268   2.238   2.037
 1912TIP3    H1 5742   0.256   2.239   1.942
 1912TIP3    H2 5743   0.190   2.194   2.071
 1913TIP3   OH2 5744   5.209   4.633   3.285
 1913TIP3    H1 5745   5.286   4.589   3.249
 1913TIP3    H2 5746   5.174   4.572   3.350
 1914TIP3   OH2 5747   2.921   5.131   3.600
 1914TIP3    H1 5748   2.948   5.170   3.517
 1914TIP3    H2 5749   2.921   5.036   3.582
 1915TIP3   OH2 5750   0.453   3.077   0.036
 1915TIP3    H1 5751   0.357   3.076   0.035
 1915TIP3    H2 5752   0.478   3.020  -0.037
 1916TIP3   OH2 5753   2.271   1.265   1.019
 1916TIP3    H1 5754   2.316   1.210   0.954
 1916TIP3    H2 5755   2.326   1.342   1.027
 1917TIP3   OH2 5756   4.871   0.530   4.771
 1917TIP3    H1 5757   4.783   0.566   4.768
 1917TIP3    H2 5758   4.863   0.444   4.731
 1918TIP3   OH2 5759   2.865   5.253   4.937
 1918TIP3    H1 5760   2.842   5.162   4.954
 1918TIP3    H2 5761   2.951   5.264   4.978
 1919TIP3   OH2 5762   3.652   1.280   1.632
 1919TIP3    H1 5763   3.683   1.269   1.722
 1919TIP3    H2 5764   3.590   1.353   1.636
 1920TIP3   OH2 5765   4.778   1.354   4.010
 1920TIP3    H1 5766   4.840   1.297   3.964
 1920TIP3    H2 5767   4.804   1.347   4.102
 1921TIP3   OH2 5768   6.162   2.271   1.323
 1921TIP3    H1 5769   6.100   2.339   1.349
 1921TIP3    H2 5770   6.200   2.240   1.405
 1922TIP3   OH2 5771   2.576   3.925   1.714
 1922TIP3    H1 5772   2.483   3.945   1.724
 1922TIP3    H2 5773   2.578   3.833   1.690
 1923TIP3   OH2 5774   1.406   2.949   1.193
 1923TIP3    H1 5775   1.427   2.987   1.278
 1923TIP3    H2 5776   1.312   2.963   1.182
 1924TIP3   OH2 5777   4.634   2.699   1.759
 1924TIP3    H1 5778   4.641   2.656   1.845
 1924TIP3    H2 5779   4.559   2.656   1.718
 1925TIP3   OH2 5780   3.193   2.104   1.069
 1925TIP3    H1 5781   3.256   2.115   0.998
 1925TIP3    H2 5782   3.167   2.012   1.064
 1926TIP3   OH2 5783   3.615   2.447   1.849
 1926TIP3    H1 5784   3.622   2.539   1.826
 1926TIP3    H2 5785   3.521   2.429   1.852
 1927TIP3   OH2 5786   1.764   1.111   4.469
 1927TIP3    H1 5787   1.836   1.151   4.518
 1927TIP3    H2 5788   1.711   1.185   4.439
 1928TIP3   OH2 5789   0.281   5.391   3.268
 1928TIP3    H1 5790   0.326   5.320   3.221
 1928TIP3    H2 5791   0.318   5.388   3.356
 1929TIP3   OH2 5792   3.012   2.755   2.261
 1929TIP3    H1 5793   3.077   2.821   2.283
 1929TIP3    H2 5794   3.063   2.680   2.231
 1930TIP3   OH2 5795   5.834   5.704   0.504
 1930TIP3    H1 5796   5.778   5.715   0.581
 1930TIP3    H2 5797   5.922   5.720   0.536
 1931TIP3   OH2 5798   1.643   4.377   4.198
 1931TIP3    H1 5799   1.712   4.314   4.219
 1931TIP3    H2 5800   1.650   4.389   4.103
 1932TIP3   OH2 5801   5.636   0.487   0.925
 1932TIP3    H1 5802   5.656   0.511   1.016
 1932TIP3    H2 5803   5.616   0.394   0.929
 1933TIP3   OH2 5804   5.324   4.917   4.073
 1933TIP3    H1 5805   5.273   4.844   4.109
 1933TIP3    H2 5806   5.259   4.978   4.039
 1934TIP3   OH2 5807   0.399   5.848   3.911
 1934TIP3    H1 5808   0.327   5.801   3.954
 1934TIP3    H2 5809   0.378   5.844   3.818
 1935TIP3   OH2 5810   6.153   2.737   4.497
 1935TIP3    H1 5811   6.227   2.795   4.511
 1935TIP3    H2 5812   6.179   2.681   4.424
 1936TIP3   OH2 5813   4.789   2.891   2.140
 1936TIP3    H1 5814   4.851   2.964   2.147
 1936TIP3    H2 5815   4.712   2.922   2.187
 1937TIP3   OH2 5816   1.821   3.196   4.783
 1937TIP3    H1 5817   1.882   3.250   4.732
 1937TIP3    H2 5818   1.735   3.233   4.764
 1938TIP3   OH2 5819   2.208   4.500   3.441
 1938TIP3    H1 5820   2.277   4.482   3.377
 1938TIP3    H2 5821   2.249   4.558   3.505
 1939TIP3   OH2 5822   2.686   2.187   3.027
 1939TIP3    H1 5823   2.764   2.215   3.075
 1939TIP3    H2 5824   2.622   2.166   3.095
 1940TIP3   OH2 5825   0.491   2.795   3.327
 1940TIP3    H1 5826   0.484   2.829   3.238
 1940TIP3    H2 5827   0.559   2.848   3.368
 1941TIP3   OH2 5828   3.692   4.079   0.608
 1941TIP3    H1 5829   3.634   4.141   0.566
 1941TIP3    H2 5830   3.684   3.999   0.557
 1942TIP3   OH2 5831   0.095   3.655   4.545
 1942TIP3    H1 5832   0.104   3.709   4.466
 1942TIP3    H2 5833   0.130   3.710   4.615
 1943TIP3   OH2 5834   0.568   2.363   1.485
 1943TIP3    H1 5835   0.635   2.336   1.548
 1943TIP3    H2 5836   0.505   2.290   1.486
 1944TIP3   OH2 5837   3.826   1.598   4.368
 1944TIP3    H1 5838   3.890   1.548   4.316
 1944TIP3    H2 5839   3.850   1.581   4.459
 1945TIP3   OH2 5840   3.079   4.942   1.845
 1945TIP3    H1 5841   3.104   4.967   1.934
 1945TIP3    H2 5842   2.984   4.952   1.842
 1946TIP3   OH2 5843   5.721   3.489   0.310
 1946TIP3    H1 5844   5.687   3.536   0.234
 1946TIP3    H2 5845   5.647   3.437   0.342
 1947TIP3   OH2 5846   6.016   1.262   0.917
 1947TIP3    H1 5847   6.080   1.301   0.858
 1947TIP3    H2 5848   6.011   1.170   0.889
 1948TIP3   OH2 5849   5.971   1.928   1.276
 1948TIP3    H1 5850   5.958   2.022   1.293
 1948TIP3    H2 5851   6.022   1.925   1.195
 1949TIP3   OH2 5852   4.122   4.114   2.750
 1949TIP3    H1 5853   4.052   4.178   2.739
 1949TIP3    H2 5854   4.159   4.133   2.836
 1950TIP3   OH2 5855   5.400   1.766   2.804
 1950TIP3    H1 5856   5.371   1.757   2.895
 1950TIP3    H2 5857   5.412   1.860   2.793
 1951TIP3   OH2 5858   2.858   3.003   0.175
 1951TIP3    H1 5859   2.877   2.932   0.113
 1951TIP3    H2 5860   2.790   3.054   0.132
 1952TIP3   OH2 5861   4.589   2.637   1.360
 1952TIP3    H1 5862   4.614   2.580   1.434
 1952TIP3    H2 5863   4.669   2.645   1.308
 1953TIP3   OH2 5864   3.079   2.657   1.759
 1953TIP3    H1 5865   3.121   2.686   1.678
 1953TIP3    H2 5866   2.989   2.686   1.751
 1954TIP3   OH2 5867   4.979   4.829   1.280
 1954TIP3    H1 5868   4.941   4.742   1.268
 1954TIP3    H2 5869   5.046   4.836   1.212
 1955TIP3   OH2 5870   2.066   3.761   5.040
 1955TIP3    H1 5871   2.133   3.700   5.070
 1955TIP3    H2 5872   1.991   3.705   5.018
 1956TIP3   OH2 5873   1.329   1.886   1.233
 1956TIP3    H1 5874   1.413   1.886   1.278
 1956TIP3    H2 5875   1.324   1.972   1.192
 1957TIP3   OH2 5876   5.655   3.590   0.090
 1957TIP3    H1 5877   5.572   3.627   0.120
 1957TIP3    H2 5878   5.693   3.658   0.034
 1958TIP3   OH2 5879   6.022   0.711   1.044
 1958TIP3    H1 5880   5.993   0.702   0.953
 1958TIP3    H2 5881   5.981   0.638   1.090
 1959TIP3   OH2 5882   1.332   1.820   3.168
 1959TIP3    H1 5883   1.248   1.825   3.123
 1959TIP3    H2 5884   1.392   1.871   3.114
 1960TIP3   OH2 5885   1.467   2.795   5.129
 1960TIP3    H1 5886   1.455   2.710   5.088
 1960TIP3    H2 5887   1.386   2.842   5.111
 1961TIP3   OH2 5888   2.795   5.424   2.152
 1961TIP3    H1 5889   2.773   5.387   2.238
 1961TIP3    H2 5890   2.877   5.470   2.166
 1962TIP3   OH2 5891   0.335   3.256   4.764
 1962TIP3    H1 5892   0.403   3.285   4.703
 1962TIP3    H2 5893   0.254   3.292   4.728
 1963TIP3   OH2 5894   2.510   3.758   0.711
 1963TIP3    H1 5895   2.445   3.689   0.698
 1963TIP3    H2 5896   2.467   3.822   0.767
 1964TIP3   OH2 5897   5.583   2.632   0.161
 1964TIP3    H1 5898   5.577   2.718   0.119
 1964TIP3    H2 5899   5.492   2.609   0.181
 1965TIP3   OH2 5900   5.405   5.177   0.792
 1965TIP3    H1 5901   5.437   5.181   0.702
 1965TIP3    H2 5902   5.479   5.142   0.842
 1966TIP3   OH2 5903   6.159   3.543   2.807
 1966TIP3    H1 5904   6.167   3.476   2.739
 1966TIP3    H2 5905   6.193   3.623   2.767
 1967TIP3   OH2 5906   4.463   0.851   3.222
 1967TIP3    H1 5907   4.384   0.878   3.269
 1967TIP3    H2 5908   4.445   0.874   3.131
 1968TIP3   OH2 5909   4.154   2.174   0.230
 1968TIP3    H1 5910   4.180   2.236   0.298
 1968TIP3    H2 5911   4.108   2.227   0.165
 1969TIP3   OH2 5912   6.285   2.628   2.902
 1969TIP3    H1 5913   6.267   2.621   2.996
 1969TIP3    H2 5914   6.200   2.610   2.860
 1970TIP3   OH2 5915   1.299   3.295   4.463
 1970TIP3    H1 5916   1.299   3.384   4.498
 1970TIP3    H2 5917   1.359   3.298   4.388
 1971TIP3   OH2 5918   5.946   2.146   3.153
 1971TIP3    H1 5919   6.018   2.206   3.171
 1971TIP3    H2 5920   5.968   2.106   3.069
 1972TIP3   OH2 5921   2.476   2.371   2.174
 1972TIP3    H1 5922   2.471   2.427   2.097
 1972TIP3    H2 5923   2.451   2.284   2.143
 1973TIP3   OH2 5924   4.459   4.999   1.401
 1973TIP3    H1 5925   4.518   4.924   1.407
 1973TIP3    H2 5926   4.429   5.013   1.491
 1974TIP3   OH2 5927   4.883   2.051   4.020
 1974TIP3    H1 5928   4.843   2.131   3.987
 1974TIP3    H2 5929   4.881   2.061   4.115
 1975TIP3   OH2 5930   5.918   3.895   2.029
 1975TIP3    H1 5931   5.823   3.902   2.035
 1975TIP3    H2 5932   5.949   3.985   2.017
 1976TIP3   OH2 5933   1.756   1.876   3.239
 1976TIP3    H1 5934   1.845   1.884   3.273
 1976TIP3    H2 5935   1.754   1.791   3.196
 1977TIP3   OH2 5936   5.881   1.587   4.344
 1977TIP3    H1 5937   5.916   1.613   4.429
 1977TIP3    H2 5938   5.952   1.539   4.302
 1978TIP3   OH2 5939   4.545   4.979   4.196
 1978TIP3    H1 5940   4.533   5.063   4.241
 1978TIP3    H2 5941   4.590   5.002   4.114
 1979TIP3   OH2 5942   0.869   5.983   0.291
 1979TIP3    H1 5943   0.785   6.026   0.307
 1979TIP3    H2 5944   0.864   5.902   0.342
 1980TIP3   OH2 5945   2.547   4.811   4.810
 1980TIP3    H1 5946   2.595   4.875   4.757
 1980TIP3    H2 5947   2.574   4.829   4.900
 1981TIP3   OH2 5948   4.661   3.588   2.019
 1981TIP3    H1 5949   4.637   3.555   2.106
 1981TIP3    H2 5950   4.741   3.639   2.034
 1982TIP3   OH2 5951   3.213   5.473   0.816
 1982TIP3    H1 5952   3.178   5.498   0.902
 1982TIP3    H2 5953   3.163   5.395   0.792
 1983TIP3   OH2 5954   5.406   5.599   3.881
 1983TIP3    H1 5955   5.425   5.671   3.821
 1983TIP3    H2 5956   5.343   5.545   3.833
 1984TIP3   OH2 5957   1.205   5.366   1.784
 1984TIP3    H1 5958   1.184   5.432   1.850
 1984TIP3    H2 5959   1.278   5.316   1.822
 1985TIP3   OH2 5960   4.456   2.168   0.033
 1985TIP3    H1 5961   4.389   2.102   0.053
 1985TIP3    H2 5962   4.505   2.131  -0.040
 1986TIP3   OH2 5963   2.519   4.574   0.976
 1986TIP3    H1 5964   2.572   4.650   1.001
 1986TIP3    H2 5965   2.582   4.512   0.940
 1987TIP3   OH2 5966   0.237   1.065   3.026
 1987TIP3    H1 5967   0.258   1.093   2.938
 1987TIP3    H2 5968   0.305   1.104   3.081
 1988TIP3   OH2 5969   0.153   0.486   3.122
 1988TIP3    H1 5970   0.100   0.545   3.068
 1988TIP3    H2 5971   0.241   0.491   3.083
 1989TIP3   OH2 5972   3.987   1.039   0.298
 1989TIP3    H1 5973   3.979   1.099   0.224
 1989TIP3    H2 5974   4.011   0.955   0.260
 1990TIP3   OH2 5975   3.915   1.828   0.338
 1990TIP3    H1 5976   3.986   1.769   0.365
 1990TIP3    H2 5977   3.937   1.911   0.379
 1991TIP3   OH2 5978   2.501   1.262   4.252
 1991TIP3    H1 5979   2.460   1.338   4.293
 1991TIP3    H2 5980   2.535   1.294   4.168
 1992TIP3   OH2 5981   5.762   3.632   3.068
 1992TIP3    H1 5982   5.700   3.559   3.078
 1992TIP3    H2 5983   5.785   3.631   2.975
 1993TIP3   OH2 5984   0.447   0.352   1.577
 1993TIP3    H1 5985   0.490   0.426   1.618
 1993TIP3    H2 5986   0.370   0.389   1.534
 1994TIP3   OH2 5987   0.220   2.251   0.625
 1994TIP3    H1 5988   0.175   2.319   0.575
 1994TIP3    H2 5989   0.297   2.295   0.661
 1995TIP3   OH2 5990   2.190   2.691   2.477
 1995TIP3    H1 5991   2.155   2.774   2.508
 1995TIP3    H2 5992   2.280   2.689   2.509
 1996TIP3   OH2 5993   3.358   2.007   4.391
 1996TIP3    H1 5994   3.442   2.031   4.351
 1996TIP3    H2 5995   3.369   1.917   4.419
 1997TIP3   OH2 5996   5.373   2.047   1.192
 1997TIP3    H1 5997   5.431   2.100   1.137
 1997TIP3    H2 5998   5.332   2.110   1.251
 1998TIP3   OH2 5999   0.793   1.209   3.982
 1998TIP3    H1 6000   0.830   1.165   3.905
 1998TIP3    H2 6001   0.823   1.300   3.974
 1999TIP3   OH2 6002   0.574   2.650   1.937
 1999TIP3    H1 6003   0.518   2.598   1.879
 1999TIP3    H2 6004   0.531   2.646   2.022
 2000TIP3   OH2 6005   4.845   3.413   3.336
 2000TIP3    H1 6006   4.907   3.463   3.284
 2000TIP3    H2 6007   4.877   3.420   3.426
 2001TIP3   OH2 6008   4.814   5.105   4.767
 2001TIP3    H1 6009   4.890   5.151   4.732
 2001TIP3    H2 6010   4.850   5.042   4.829
 2002TIP3   OH2 6011   2.191   4.979   4.997
 2002TIP3    H1 6012   2.108   5.026   5.009
 2002TIP3    H2 6013   2.229   5.018   4.917
 2003TIP3   OH2 6014   4.394   1.749   4.436
 2003TIP3    H1 6015   4.398   1.794   4.352
 2003TIP3    H2 6016   4.486   1.739   4.463
 2004TIP3   OH2 6017   5.070   5.467   2.314
 2004TIP3    H1 6018   5.044   5.502   2.399
 2004TIP3    H2 6019   5.126   5.392   2.335
 2005TIP3   OH2 6020   4.383   1.895   4.694
 2005TIP3    H1 6021   4.476   1.916   4.698
 2005TIP3    H2 6022   4.367   1.876   4.601
 2006TIP3   OH2 6023   1.553   4.171   1.821
 2006TIP3    H1 6024   1.636   4.184   1.867
 2006TIP3    H2 6025   1.516   4.092   1.861
 2007TIP3   OH2 6026   5.147   1.650   2.115
 2007TIP3    H1 6027   5.211   1.633   2.046
 2007TIP3    H2 6028   5.103   1.731   2.088
 2008TIP3   OH2 6029   1.096   0.065   0.512
 2008TIP3    H1 6030   1.168   0.010   0.543
 2008TIP3    H2 6031   1.018   0.011   0.525
 2009TIP3   OH2 6032   2.866   3.948   0.553
 2009TIP3    H1 6033   2.860   3.860   0.517
 2009TIP3    H2 6034   2.906   4.000   0.483
 2010TIP3   OH2 6035   0.328   1.895   5.001
 2010TIP3    H1 6036   0.288   1.825   4.950
 2010TIP3    H2 6037   0.255   1.952   5.025
 2011TIP3   OH2 6038   2.926   4.496   4.917
 2011TIP3    H1 6039   2.973   4.454   4.989
 2011TIP3    H2 6040   2.842   4.449   4.912
 2012TIP3   OH2 6041   2.963   2.001   2.644
 2012TIP3    H1 6042   3.018   2.076   2.622
 2012TIP3    H2 6043   2.909   1.986   2.567
 2013TIP3   OH2 6044   1.507   4.684   2.899
 2013TIP3    H1 6045   1.563   4.740   2.846
 2013TIP3    H2 6046   1.451   4.639   2.835
 2014TIP3   OH2 6047   3.258   5.380   3.287
 2014TIP3    H1 6048   3.351   5.363   3.269
 2014TIP3    H2 6049   3.235   5.450   3.227
 2015TIP3   OH2 6050   2.723   3.728   2.622
 2015TIP3    H1 6051   2.739   3.730   2.716
 2015TIP3    H2 6052   2.741   3.638   2.596
 2016TIP3   OH2 6053   5.152   2.901   3.306
 2016TIP3    H1 6054   5.132   2.824   3.253
 2016TIP3    H2 6055   5.083   2.903   3.372
 2017TIP3   OH2 6056   4.165   4.203   4.347
 2017TIP3    H1 6057   4.245   4.150   4.350
 2017TIP3    H2 6058   4.107   4.162   4.411
 2018TIP3   OH2 6059   2.946   2.268   4.493
 2018TIP3    H1 6060   3.010   2.331   4.526
 2018TIP3    H2 6061   2.864   2.318   4.489
 2019TIP3   OH2 6062   3.702   0.135   0.254
 2019TIP3    H1 6063   3.689   0.110   0.346
 2019TIP3    H2 6064   3.614   0.155   0.222
 2020TIP3   OH2 6065   4.553   4.961   1.683
 2020TIP3    H1 6066   4.602   5.043   1.687
 2020TIP3    H2 6067   4.602   4.900   1.738
 2021TIP3   OH2 6068   1.852   4.817   2.538
 2021TIP3    H1 6069   1.925   4.847   2.484
 2021TIP3    H2 6070   1.832   4.729   2.504
 2022TIP3   OH2 6071   3.855   1.756   5.123
 2022TIP3    H1 6072   3.940   1.789   5.154
 2022TIP3    H2 6073   3.816   1.714   5.199
 2023TIP3   OH2 6074   5.055   0.217   4.810
 2023TIP3    H1 6075   5.025   0.243   4.722
 2023TIP3    H2 6076   5.123   0.280   4.831
 2024TIP3   OH2 6077   6.003   3.143   0.199
 2024TIP3    H1 6078   5.948   3.145   0.121
 2024TIP3    H2 6079   5.967   3.212   0.255
 2025TIP3   OH2 6080   0.409   1.579   2.525
 2025TIP3    H1 6081   0.387   1.491   2.494
 2025TIP3    H2 6082   0.499   1.594   2.495
 2026TIP3   OH2 6083   2.790   5.508   0.044
 2026TIP3    H1 6084   2.803   5.503   0.138
 2026TIP3    H2 6085   2.695   5.509   0.032
 2027TIP3   OH2 6086   3.196   4.511   4.423
 2027TIP3    H1 6087   3.124   4.468   4.376
 2027TIP3    H2 6088   3.165   4.601   4.436
 2028TIP3   OH2 6089   1.911   1.346   0.188
 2028TIP3    H1 6090   1.969   1.274   0.214
 2028TIP3    H2 6091   1.911   1.406   0.262
 2029TIP3   OH2 6092   5.374   4.221   0.803
 2029TIP3    H1 6093   5.395   4.310   0.830
 2029TIP3    H2 6094   5.432   4.205   0.728
 2030TIP3   OH2 6095   0.019   1.324   0.448
 2030TIP3    H1 6096   0.072   1.403   0.446
 2030TIP3    H2 6097  -0.009   1.311   0.357
 2031TIP3   OH2 6098   0.527   2.768   0.719
 2031TIP3    H1 6099   0.553   2.784   0.810
 2031TIP3    H2 6100   0.610   2.764   0.671
 2032TIP3   OH2 6101   3.569   1.272   1.358
 2032TIP3    H1 6102   3.611   1.246   1.439
 2032TIP3    H2 6103   3.521   1.194   1.329
 2033TIP3   OH2 6104   2.624   1.926   3.542
 2033TIP3    H1 6105   2.674   1.872   3.481
 2033TIP3    H2 6106   2.601   2.004   3.491
 2034TIP3   OH2 6107   6.036   3.374   2.602
 2034TIP3    H1 6108   5.945   3.401   2.594
 2034TIP3    H2 6109   6.033   3.292   2.651
 2035TIP3   OH2 6110   1.186   1.187  -0.026
 2035TIP3    H1 6111   1.231   1.232   0.046
 2035TIP3    H2 6112   1.145   1.111   0.015
 2036TIP3   OH2 6113   1.956   3.527   0.162
 2036TIP3    H1 6114   2.036   3.572   0.138
 2036TIP3    H2 6115   1.982   3.464   0.229
 2037TIP3   OH2 6116   1.800   2.436   1.478
 2037TIP3    H1 6117   1.892   2.461   1.474
 2037TIP3    H2 6118   1.753   2.520   1.472
 2038TIP3   OH2 6119   5.399   2.590   1.685
 2038TIP3    H1 6120   5.368   2.679   1.671
 2038TIP3    H2 6121   5.423   2.587   1.777
 2039TIP3   OH2 6122   0.239   5.670   1.640
 2039TIP3    H1 6123   0.234   5.706   1.728
 2039TIP3    H2 6124   0.208   5.741   1.583
 2040TIP3   OH2 6125   2.124   3.097   0.807
 2040TIP3    H1 6126   2.063   3.170   0.801
 2040TIP3    H2 6127   2.204   3.130   0.766
 2041TIP3   OH2 6128   5.958   3.380   3.265
 2041TIP3    H1 6129   5.885   3.357   3.208
 2041TIP3    H2 6130   5.950   3.322   3.340
 2042TIP3   OH2 6131   3.994   2.952   4.555
 2042TIP3    H1 6132   3.913   2.972   4.602
 2042TIP3    H2 6133   3.965   2.901   4.479
 2043TIP3   OH2 6134   4.658   4.939   0.641
 2043TIP3    H1 6135   4.579   4.937   0.587
 2043TIP3    H2 6136   4.712   4.867   0.607
 2044TIP3   OH2 6137   2.520   1.388   1.077
 2044TIP3    H1 6138   2.471   1.470   1.090
 2044TIP3    H2 6139   2.598   1.415   1.028
 2045TIP3   OH2 6140   4.565   4.366   1.867
 2045TIP3    H1 6141   4.589   4.310   1.793
 2045TIP3    H2 6142   4.471   4.349   1.881
 2046TIP3   OH2 6143   5.744   1.965   5.197
 2046TIP3    H1 6144   5.730   1.929   5.109
 2046TIP3    H2 6145   5.735   2.060   5.185
 2047TIP3   OH2 6146   4.057   3.196   1.867
 2047TIP3    H1 6147   4.149   3.170   1.879
 2047TIP3    H2 6148   4.027   3.144   1.793
 2048TIP3   OH2 6149   3.932   5.724   5.074
 2048TIP3    H1 6150   3.977   5.775   5.007
 2048TIP3    H2 6151   3.848   5.768   5.085
 2049TIP3   OH2 6152   0.788   5.899   1.451
 2049TIP3    H1 6153   0.768   5.925   1.361
 2049TIP3    H2 6154   0.872   5.941   1.470
 2050TIP3   OH2 6155   4.386   1.170   0.968
 2050TIP3    H1 6156   4.349   1.083   0.954
 2050TIP3    H2 6157   4.471   1.168   0.923
 2051TIP3   OH2 6158   5.998   4.588   3.707
 2051TIP3    H1 6159   6.082   4.543   3.704
 2051TIP3    H2 6160   5.935   4.522   3.678
 2052TIP3   OH2 6161   0.459   4.460   3.055
 2052TIP3    H1 6162   0.518   4.534   3.068
 2052TIP3    H2 6163   0.442   4.427   3.143
 2053TIP3   OH2 6164   4.502   5.104   2.376
 2053TIP3    H1 6165   4.530   5.115   2.467
 2053TIP3    H2 6166   4.544   5.023   2.347
 2054TIP3   OH2 6167   6.223   1.732   2.329
 2054TIP3    H1 6168   6.132   1.705   2.316
 2054TIP3    H2 6169   6.249   1.691   2.412
 2055TIP3   OH2 6170   1.219   5.253   1.457
 2055TIP3    H1 6171   1.298   5.295   1.421
 2055TIP3    H2 6172   1.206   5.295   1.542
 2056TIP3   OH2 6173   3.353   3.128   2.438
 2056TIP3    H1 6174   3.438   3.093   2.413
 2056TIP3    H2 6175   3.373   3.198   2.500
 2057TIP3   OH2 6176   3.853   2.666   2.993
 2057TIP3    H1 6177   3.805   2.732   3.043
 2057TIP3    H2 6178   3.923   2.637   3.051
 2058TIP3   OH2 6179   5.434   5.999   2.948
 2058TIP3    H1 6180   5.402   5.909   2.956
 2058TIP3    H2 6181   5.388   6.034   2.871
 2059TIP3   OH2 6182   1.182   3.775   0.614
 2059TIP3    H1 6183   1.213   3.803   0.528
 2059TIP3    H2 6184   1.262   3.752   0.662
 2060TIP3   OH2 6185   4.354   0.619   0.634
 2060TIP3    H1 6186   4.382   0.548   0.576
 2060TIP3    H2 6187   4.283   0.662   0.587
 2061TIP3   OH2 6188   5.355   1.863   4.945
 2061TIP3    H1 6189   5.356   1.796   4.877
 2061TIP3    H2 6190   5.337   1.945   4.897
 2062TIP3   OH2 6191   4.321   5.737   1.875
 2062TIP3    H1 6192   4.323   5.772   1.964
 2062TIP3    H2 6193   4.406   5.760   1.838
 2063TIP3   OH2 6194   5.061   4.451   1.469
 2063TIP3    H1 6195   5.039   4.535   1.508
 2063TIP3    H2 6196   5.126   4.412   1.528
 2064TIP3   OH2 6197   5.194   1.838   0.125
 2064TIP3    H1 6198   5.263   1.773   0.138
 2064TIP3    H2 6199   5.232   1.920   0.155
 2065TIP3   OH2 6200   0.445   4.337   4.680
 2065TIP3    H1 6201   0.378   4.327   4.748
 2065TIP3    H2 6202   0.504   4.263   4.693
 2066TIP3   OH2 6203   3.228   1.231   0.276
 2066TIP3    H1 6204   3.284   1.289   0.223
 2066TIP3    H2 6205   3.154   1.286   0.300
 2067TIP3   OH2 6206   1.635   1.698   4.313
 2067TIP3    H1 6207   1.703   1.764   4.329
 2067TIP3    H2 6208   1.592   1.727   4.233
 2068TIP3   OH2 6209   5.585   2.501   2.855
 2068TIP3    H1 6210   5.659   2.463   2.806
 2068TIP3    H2 6211   5.625   2.532   2.937
 2069TIP3   OH2 6212   1.346   4.224   1.142
 2069TIP3    H1 6213   1.346   4.128   1.148
 2069TIP3    H2 6214   1.326   4.243   1.050
 2070TIP3   OH2 6215   4.001   4.566   0.250
 2070TIP3    H1 6216   3.972   4.538   0.337
 2070TIP3    H2 6217   3.985   4.660   0.248
 2071TIP3   OH2 6218   1.122   2.633   3.185
 2071TIP3    H1 6219   1.135   2.704   3.123
 2071TIP3    H2 6220   1.191   2.570   3.164
 2072TIP3   OH2 6221   2.989   5.216   4.655
 2072TIP3    H1 6222   2.957   5.241   4.568
 2072TIP3    H2 6223   2.909   5.208   4.707
 2073TIP3   OH2 6224   1.419   5.581   1.701
 2073TIP3    H1 6225   1.370   5.515   1.750
 2073TIP3    H2 6226   1.511   5.556   1.710
 2074TIP3   OH2 6227   2.096   4.288   3.703
 2074TIP3    H1 6228   2.152   4.245   3.768
 2074TIP3    H2 6229   2.123   4.380   3.706
 2075TIP3   OH2 6230   2.129   0.045   3.004
 2075TIP3    H1 6231   2.164   0.067   3.090
 2075TIP3    H2 6232   2.207   0.023   2.952
 2076TIP3   OH2 6233   0.910   0.833   0.204
 2076TIP3    H1 6234   0.844   0.773   0.240
 2076TIP3    H2 6235   0.971   0.776   0.157
 2077TIP3   OH2 6236   2.765   1.076   1.212
 2077TIP3    H1 6237   2.832   1.122   1.264
 2077TIP3    H2 6238   2.741   1.000   1.265
 2078TIP3   OH2 6239   3.923   2.816   1.966
 2078TIP3    H1 6240   3.873   2.740   1.995
 2078TIP3    H2 6241   4.014   2.785   1.963
 2079TIP3   OH2 6242   0.288   4.703   1.726
 2079TIP3    H1 6243   0.299   4.690   1.820
 2079TIP3    H2 6244   0.376   4.694   1.690
 2080TIP3   OH2 6245   1.624   1.148   0.672
 2080TIP3    H1 6246   1.529   1.161   0.665
 2080TIP3    H2 6247   1.660   1.209   0.607
 2081TIP3   OH2 6248   1.838   2.950   4.489
 2081TIP3    H1 6249   1.854   2.928   4.580
 2081TIP3    H2 6250   1.914   2.913   4.442
 2082TIP3   OH2 6251   1.932   2.223   1.238
 2082TIP3    H1 6252   1.966   2.136   1.217
 2082TIP3    H2 6253   1.926   2.224   1.333
 2083TIP3   OH2 6254   3.755   1.215   2.347
 2083TIP3    H1 6255   3.777   1.122   2.342
 2083TIP3    H2 6256   3.749   1.243   2.256
 2084TIP3   OH2 6257   0.687   0.795   1.137
 2084TIP3    H1 6258   0.757   0.813   1.074
 2084TIP3    H2 6259   0.714   0.714   1.181
 2085TIP3   OH2 6260   5.404   2.603   1.135
 2085TIP3    H1 6261   5.429   2.527   1.082
 2085TIP3    H2 6262   5.366   2.565   1.214
 2086TIP3   OH2 6263   5.839   5.653   4.689
 2086TIP3    H1 6264   5.867   5.575   4.736
 2086TIP3    H2 6265   5.868   5.726   4.745
 2087TIP3   OH2 6266   5.017   3.489   1.712
 2087TIP3    H1 6267   5.092   3.547   1.697
 2087TIP3    H2 6268   4.961   3.503   1.636
 2088TIP3   OH2 6269   1.544   5.169   1.699
 2088TIP3    H1 6270   1.536   5.200   1.789
 2088TIP3    H2 6271   1.615   5.222   1.662
 2089TIP3   OH2 6272   4.293   2.953   0.283
 2089TIP3    H1 6273   4.334   2.925   0.365
 2089TIP3    H2 6274   4.293   3.048   0.287
 2090TIP3   OH2 6275   1.629   2.769   1.201
 2090TIP3    H1 6276   1.694   2.785   1.133
 2090TIP3    H2 6277   1.561   2.835   1.186
 2091TIP3   OH2 6278   0.136   4.002   3.807
 2091TIP3    H1 6279   0.135   3.991   3.902
 2091TIP3    H2 6280   0.076   4.074   3.790
 2092TIP3   OH2 6281   1.521   0.992   2.232
 2092TIP3    H1 6282   1.596   1.052   2.238
 2092TIP3    H2 6283   1.561   0.905   2.224
 2093TIP3   OH2 6284   2.171   0.720   2.027
 2093TIP3    H1 6285   2.164   0.666   2.106
 2093TIP3    H2 6286   2.264   0.743   2.021
 2094TIP3   OH2 6287   2.683   4.210   2.250
 2094TIP3    H1 6288   2.646   4.143   2.192
 2094TIP3    H2 6289   2.619   4.282   2.247
 2095TIP3   OH2 6290   1.486   1.069   4.602
 2095TIP3    H1 6291   1.523   1.147   4.562
 2095TIP3    H2 6292   1.561   1.026   4.644
 2096TIP3   OH2 6293   3.822   1.878   4.102
 2096TIP3    H1 6294   3.761   1.838   4.165
 2096TIP3    H2 6295   3.774   1.877   4.019
 2097TIP3   OH2 6296   4.429   0.150   4.066
 2097TIP3    H1 6297   4.393   0.151   4.154
 2097TIP3    H2 6298   4.522   0.167   4.077
 2098TIP3   OH2 6299   3.336   3.886   4.333
 2098TIP3    H1 6300   3.359   3.954   4.396
 2098TIP3    H2 6301   3.404   3.891   4.266
 2099TIP3   OH2 6302   3.173   3.038   5.100
 2099TIP3    H1 6303   3.230   3.018   5.174
 2099TIP3    H2 6304   3.090   3.065   5.139
 2100TIP3   OH2 6305   0.526   0.272   2.058
 2100TIP3    H1 6306   0.602   0.323   2.089
 2100TIP3    H2 6307   0.558   0.228   1.979
 2101TIP3   OH2 6308   1.486   4.798   4.646
 2101TIP3    H1 6309   1.546   4.823   4.716
 2101TIP3    H2 6310   1.399   4.811   4.682
 2102TIP3   OH2 6311   1.694   0.225   1.013
 2102TIP3    H1 6312   1.668   0.145   1.059
 2102TIP3    H2 6313   1.706   0.289   1.083
 2103TIP3   OH2 6314   2.175   2.518   3.406
 2103TIP3    H1 6315   2.229   2.548   3.479
 2103TIP3    H2 6316   2.227   2.537   3.328
 2104TIP3   OH2 6317   1.655   5.485   1.794
 2104TIP3    H1 6318   1.680   5.407   1.844
 2104TIP3    H2 6319   1.635   5.551   1.860
 2105TIP3   OH2 6320   5.942   5.184   1.748
 2105TIP3    H1 6321   5.906   5.271   1.766
 2105TIP3    H2 6322   5.867   5.131   1.721
 2106TIP3   OH2 6323   4.143   2.144   1.838
 2106TIP3    H1 6324   4.048   2.136   1.825
 2106TIP3    H2 6325   4.180   2.137   1.750
 2107TIP3   OH2 6326   5.357   5.475   1.210
 2107TIP3    H1 6327   5.408   5.412   1.261
 2107TIP3    H2 6328   5.308   5.422   1.148
 2108TIP3   OH2 6329   4.995   3.197   3.032
 2108TIP3    H1 6330   5.078   3.243   3.045
 2108TIP3    H2 6331   4.946   3.252   2.972
 2109TIP3   OH2 6332   1.490   1.584   2.953
 2109TIP3    H1 6333   1.401   1.607   2.924
 2109TIP3    H2 6334   1.539   1.571   2.872
 2110TIP3   OH2 6335   0.299   2.009   0.840
 2110TIP3    H1 6336   0.364   2.073   0.869
 2110TIP3    H2 6337   0.229   2.062   0.801
 2111TIP3   OH2 6338   0.115   0.144   1.486
 2111TIP3    H1 6339   0.042   0.190   1.527
 2111TIP3    H2 6340   0.134   0.193   1.407
 2112TIP3   OH2 6341   0.688   3.504   3.409
 2112TIP3    H1 6342   0.685   3.568   3.338
 2112TIP3    H2 6343   0.600   3.508   3.448
 2113TIP3   OH2 6344   2.554   3.967   3.992
 2113TIP3    H1 6345   2.501   4.010   4.059
 2113TIP3    H2 6346   2.639   3.954   4.034
 2114TIP3   OH2 6347   0.404   5.917   4.711
 2114TIP3    H1 6348   0.380   5.975   4.784
 2114TIP3    H2 6349   0.499   5.909   4.718
 2115TIP3   OH2 6350   4.127   2.997   0.819
 2115TIP3    H1 6351   4.178   3.002   0.738
 2115TIP3    H2 6352   4.116   3.088   0.845
 2116TIP3   OH2 6353   4.661   0.492   3.182
 2116TIP3    H1 6354   4.590   0.432   3.208
 2116TIP3    H2 6355   4.621   0.547   3.114
 2117TIP3   OH2 6356   4.623   5.544   0.026
 2117TIP3    H1 6357   4.534   5.508   0.021
 2117TIP3    H2 6358   4.675   5.475   0.065
 2118TIP3   OH2 6359   5.847   4.951   1.066
 2118TIP3    H1 6360   5.869   4.863   1.095
 2118TIP3    H2 6361   5.800   4.990   1.140
 2119TIP3   OH2 6362   0.644   1.197   0.022
 2119TIP3    H1 6363   0.641   1.262   0.092
 2119TIP3    H2 6364   0.569   1.140   0.040
 2120TIP3   OH2 6365   5.147   5.060   4.816
 2120TIP3    H1 6366   5.210   5.071   4.887
 2120TIP3    H2 6367   5.119   5.149   4.794
 2121TIP3   OH2 6368   1.826   3.172   5.051
 2121TIP3    H1 6369   1.756   3.118   5.013
 2121TIP3    H2 6370   1.868   3.211   4.975
 2122TIP3   OH2 6371   0.294   1.391   3.242
 2122TIP3    H1 6372   0.270   1.424   3.329
 2122TIP3    H2 6373   0.338   1.308   3.260
 2123TIP3   OH2 6374   3.102   3.876   2.069
 2123TIP3    H1 6375   3.185   3.850   2.029
 2123TIP3    H2 6376   3.126   3.949   2.127
 2124TIP3   OH2 6377   4.926   3.423   4.454
 2124TIP3    H1 6378   5.021   3.415   4.462
 2124TIP3    H2 6379   4.897   3.459   4.538
 2125TIP3   OH2 6380   3.781   2.875   3.593
 2125TIP3    H1 6381   3.792   2.894   3.499
 2125TIP3    H2 6382   3.833   2.943   3.637
 2126TIP3   OH2 6383   5.129   0.936   4.707
 2126TIP3    H1 6384   5.116   0.864   4.646
 2126TIP3    H2 6385   5.177   0.897   4.780
 2127TIP3   OH2 6386   2.014   1.381   4.323
 2127TIP3    H1 6387   1.988   1.378   4.231
 2127TIP3    H2 6388   2.048   1.470   4.336
 2128TIP3   OH2 6389   3.548   4.803   3.962
 2128TIP3    H1 6390   3.474   4.832   4.016
 2128TIP3    H2 6391   3.525   4.831   3.874
 2129TIP3   OH2 6392   0.052   0.371   1.703
 2129TIP3    H1 6393   0.027   0.433   1.772
 2129TIP3    H2 6394   0.130   0.409   1.663
 2130TIP3   OH2 6395   6.037   1.349   3.508
 2130TIP3    H1 6396   5.952   1.351   3.553
 2130TIP3    H2 6397   6.084   1.277   3.549
 2131TIP3   OH2 6398   1.907   0.906   0.275
 2131TIP3    H1 6399   1.925   0.912   0.181
 2131TIP3    H2 6400   1.834   0.966   0.289
 2132TIP3   OH2 6401   1.504   2.591   4.189
 2132TIP3    H1 6402   1.459   2.530   4.132
 2132TIP3    H2 6403   1.561   2.641   4.131
 2133TIP3   OH2 6404   5.835   1.058   2.320
 2133TIP3    H1 6405   5.857   1.045   2.412
 2133TIP3    H2 6406   5.851   0.972   2.280
 2134TIP3   OH2 6407   4.804   5.538   3.865
 2134TIP3    H1 6408   4.783   5.593   3.790
 2134TIP3    H2 6409   4.891   5.502   3.846
 2135TIP3   OH2 6410   2.360   1.857   0.428
 2135TIP3    H1 6411   2.441   1.837   0.475
 2135TIP3    H2 6412   2.295   1.799   0.466
 2136TIP3   OH2 6413   3.171   5.187   4.066
 2136TIP3    H1 6414   3.177   5.183   4.161
 2136TIP3    H2 6415   3.202   5.101   4.036
 2137TIP3   OH2 6416   3.542   0.088   2.839
 2137TIP3    H1 6417   3.555  -0.002   2.809
 2137TIP3    H2 6418   3.554   0.142   2.761
 2138TIP3   OH2 6419   1.182   0.271   3.109
 2138TIP3    H1 6420   1.204   0.207   3.042
 2138TIP3    H2 6421   1.108   0.319   3.073
 2139TIP3   OH2 6422   1.500   5.332   4.359
 2139TIP3    H1 6423   1.511   5.246   4.318
 2139TIP3    H2 6424   1.526   5.394   4.291
 2140TIP3   OH2 6425   1.072   5.124   4.817
 2140TIP3    H1 6426   0.990   5.078   4.839
 2140TIP3    H2 6427   1.081   5.113   4.722
 2141TIP3   OH2 6428   2.022   5.875   4.219
 2141TIP3    H1 6429   2.111   5.841   4.209
 2141TIP3    H2 6430   1.999   5.856   4.310
 2142TIP3   OH2 6431   3.701   0.717   2.327
 2142TIP3    H1 6432   3.692   0.700   2.421
 2142TIP3    H2 6433   3.753   0.644   2.294
 2143TIP3   OH2 6434   0.833   2.466   4.997
 2143TIP3    H1 6435   0.769   2.490   5.065
 2143TIP3    H2 6436   0.908   2.432   5.046
 2144TIP3   OH2 6437   3.922   0.809   2.567
 2144TIP3    H1 6438   3.887   0.892   2.600
 2144TIP3    H2 6439   3.865   0.742   2.604
 2145TIP3   OH2 6440   0.364   5.506   4.346
 2145TIP3    H1 6441   0.344   5.452   4.271
 2145TIP3    H2 6442   0.296   5.574   4.346
 2146TIP3   OH2 6443   1.383   1.919   4.326
 2146TIP3    H1 6444   1.457   1.974   4.356
 2146TIP3    H2 6445   1.411   1.885   4.241
 2147TIP3   OH2 6446   2.961   1.561   1.827
 2147TIP3    H1 6447   2.940   1.652   1.805
 2147TIP3    H2 6448   2.944   1.555   1.921
 2148TIP3   OH2 6449   0.947   1.633   4.424
 2148TIP3    H1 6450   0.983   1.630   4.513
 2148TIP3    H2 6451   0.988   1.559   4.379
 2149TIP3   OH2 6452   2.533   1.315   3.988
 2149TIP3    H1 6453   2.500   1.226   3.976
 2149TIP3    H2 6454   2.585   1.332   3.910
 2150TIP3   OH2 6455   2.443   3.379   3.268
 2150TIP3    H1 6456   2.385   3.316   3.309
 2150TIP3    H2 6457   2.450   3.450   3.331
 2151TIP3   OH2 6458   4.193   0.597   4.517
 2151TIP3    H1 6459   4.120   0.579   4.458
 2151TIP3    H2 6460   4.266   0.618   4.458
 2152TIP3   OH2 6461   4.299   5.870   4.552
 2152TIP3    H1 6462   4.282   5.923   4.474
 2152TIP3    H2 6463   4.231   5.897   4.615
 2153TIP3   OH2 6464   4.629   1.400   3.261
 2153TIP3    H1 6465   4.646   1.308   3.243
 2153TIP3    H2 6466   4.716   1.440   3.266
 2154TIP3   OH2 6467   4.068   1.600   2.503
 2154TIP3    H1 6468   4.062   1.634   2.414
 2154TIP3    H2 6469   3.984   1.621   2.543
 2155TIP3   OH2 6470   3.750   3.118   2.931
 2155TIP3    H1 6471   3.796   3.172   2.995
 2155TIP3    H2 6472   3.701   3.181   2.878
 2156TIP3   OH2 6473   4.937   0.728   0.626
 2156TIP3    H1 6474   4.880   0.797   0.592
 2156TIP3    H2 6475   4.953   0.753   0.717
 2157TIP3   OH2 6476   5.561   4.279   1.984
 2157TIP3    H1 6477   5.560   4.355   1.926
 2157TIP3    H2 6478   5.489   4.294   2.045
 2158TIP3   OH2 6479   3.483   4.979   1.835
 2158TIP3    H1 6480   3.476   4.887   1.812
 2158TIP3    H2 6481   3.565   4.986   1.884
 2159TIP3   OH2 6482   1.782   4.816   2.129
 2159TIP3    H1 6483   1.759   4.853   2.044
 2159TIP3    H2 6484   1.736   4.732   2.132
 2160TIP3   OH2 6485   5.414   2.274   2.924
 2160TIP3    H1 6486   5.480   2.342   2.912
 2160TIP3    H2 6487   5.347   2.293   2.858
 2161TIP3   OH2 6488   5.094   4.505   2.850
 2161TIP3    H1 6489   5.056   4.518   2.763
 2161TIP3    H2 6490   5.120   4.413   2.851
 2162TIP3   OH2 6491   3.425   4.996   0.959
 2162TIP3    H1 6492   3.457   4.959   1.041
 2162TIP3    H2 6493   3.374   5.073   0.986
 2163TIP3   OH2 6494   2.807   3.247   2.994
 2163TIP3    H1 6495   2.786   3.268   3.085
 2163TIP3    H2 6496   2.726   3.210   2.959
 2164TIP3   OH2 6497   4.192   2.827   1.073
 2164TIP3    H1 6498   4.131   2.756   1.095
 2164TIP3    H2 6499   4.191   2.830   0.978
 2165TIP3   OH2 6500   2.584   2.936   2.605
 2165TIP3    H1 6501   2.673   2.904   2.590
 2165TIP3    H2 6502   2.590   3.030   2.587
 2166TIP3   OH2 6503   1.016   5.928   3.453
 2166TIP3    H1 6504   0.943   5.891   3.403
 2166TIP3    H2 6505   1.023   5.872   3.530
 2167TIP3   OH2 6506   0.272   4.912   3.679
 2167TIP3    H1 6507   0.311   4.826   3.697
 2167TIP3    H2 6508   0.306   4.935   3.592
 2168TIP3   OH2 6509   4.501   1.510   0.104
 2168TIP3    H1 6510   4.519   1.495   0.197
 2168TIP3    H2 6511   4.582   1.485   0.060
 2169TIP3   OH2 6512   4.970   5.780   0.003
 2169TIP3    H1 6513   4.981   5.685   0.007
 2169TIP3    H2 6514   5.014   5.812   0.082
 2170TIP3   OH2 6515   4.724   3.934   0.835
 2170TIP3    H1 6516   4.789   3.950   0.766
 2170TIP3    H2 6517   4.665   3.869   0.797
 2171TIP3   OH2 6518   6.195   5.279   1.802
 2171TIP3    H1 6519   6.114   5.251   1.759
 2171TIP3    H2 6520   6.265   5.242   1.749
 2172TIP3   OH2 6521   2.744   3.811   5.197
 2172TIP3    H1 6522   2.749   3.896   5.154
 2172TIP3    H2 6523   2.659   3.776   5.172
 2173TIP3   OH2 6524   4.200   4.407   0.004
 2173TIP3    H1 6525   4.135   4.386   0.070
 2173TIP3    H2 6526   4.205   4.502   0.004
 2174TIP3   OH2 6527   3.202   4.443   3.565
 2174TIP3    H1 6528   3.254   4.377   3.611
 2174TIP3    H2 6529   3.267   4.498   3.520
 2175TIP3   OH2 6530   3.077   5.384   0.497
 2175TIP3    H1 6531   3.131   5.336   0.435
 2175TIP3    H2 6532   3.093   5.342   0.581
 2176TIP3   OH2 6533   2.534   0.775   0.431
 2176TIP3    H1 6534   2.626   0.764   0.406
 2176TIP3    H2 6535   2.487   0.710   0.380
 2177TIP3   OH2 6536   4.655   1.946   4.763
 2177TIP3    H1 6537   4.747   1.973   4.762
 2177TIP3    H2 6538   4.608   2.020   4.802
 2178TIP3   OH2 6539   6.024   3.697   4.223
 2178TIP3    H1 6540   6.061   3.690   4.311
 2178TIP3    H2 6541   6.016   3.791   4.207
 2179TIP3   OH2 6542   3.324   0.607   0.054
 2179TIP3    H1 6543   3.388   0.544   0.021
 2179TIP3    H2 6544   3.376   0.685   0.076
 2180TIP3   OH2 6545   4.927   2.684   1.968
 2180TIP3    H1 6546   4.897   2.768   2.003
 2180TIP3    H2 6547   4.912   2.622   2.039
 2181TIP3   OH2 6548   0.948   0.807   5.165
 2181TIP3    H1 6549   0.944   0.712   5.152
 2181TIP3    H2 6550   1.036   0.831   5.136
 2182TIP3   OH2 6551   4.920   1.490   1.164
 2182TIP3    H1 6552   4.955   1.537   1.240
 2182TIP3    H2 6553   4.982   1.508   1.094
 2183TIP3   OH2 6554   5.518   0.587   2.349
 2183TIP3    H1 6555   5.471   0.653   2.400
 2183TIP3    H2 6556   5.542   0.520   2.413
 2184TIP3   OH2 6557   1.298   1.050   2.783
 2184TIP3    H1 6558   1.332   1.139   2.778
 2184TIP3    H2 6559   1.241   1.050   2.860
 2185TIP3   OH2 6560   5.320   0.917   5.061
 2185TIP3    H1 6561   5.263   0.977   5.013
 2185TIP3    H2 6562   5.268   0.890   5.137
 2186TIP3   OH2 6563   4.486   3.350   1.577
 2186TIP3    H1 6564   4.459   3.406   1.649
 2186TIP3    H2 6565   4.433   3.270   1.587
 2187TIP3   OH2 6566   5.401   5.803   2.425
 2187TIP3    H1 6567   5.443   5.888   2.414
 2187TIP3    H2 6568   5.382   5.773   2.335
 2188TIP3   OH2 6569   2.938   3.359   0.190
 2188TIP3    H1 6570   2.911   3.282   0.241
 2188TIP3    H2 6571   2.856   3.403   0.168
 2189TIP3   OH2 6572   3.558   4.068   4.497
 2189TIP3    H1 6573   3.636   4.100   4.542
 2189TIP3    H2 6574   3.485   4.101   4.549
 2190TIP3   OH2 6575   3.227   1.158   4.300
 2190TIP3    H1 6576   3.161   1.100   4.339
 2190TIP3    H2 6577   3.311   1.117   4.322
 2191TIP3   OH2 6578   6.264   5.003   4.424
 2191TIP3    H1 6579   6.272   4.991   4.518
 2191TIP3    H2 6580   6.354   4.997   4.391
 2192TIP3   OH2 6581   0.657   3.975   2.850
 2192TIP3    H1 6582   0.716   3.929   2.909
 2192TIP3    H2 6583   0.617   4.043   2.904
 2193TIP3   OH2 6584   0.169   5.502   3.569
 2193TIP3    H1 6585   0.262   5.512   3.587
 2193TIP3    H2 6586   0.156   5.548   3.485
 2194TIP3   OH2 6587   6.001   0.098   3.584
 2194TIP3    H1 6588   5.957   0.180   3.562
 2194TIP3    H2 6589   6.003   0.096   3.680
 2195TIP3   OH2 6590   0.942   2.370   3.937
 2195TIP3    H1 6591   1.028   2.339   3.966
 2195TIP3    H2 6592   0.946   2.368   3.841
 2196TIP3   OH2 6593   1.082   3.153   0.359
 2196TIP3    H1 6594   1.172   3.177   0.339
 2196TIP3    H2 6595   1.087   3.110   0.445
 2197TIP3   OH2 6596   1.887   3.702   4.634
 2197TIP3    H1 6597   1.930   3.660   4.560
 2197TIP3    H2 6598   1.876   3.793   4.607
 2198TIP3   OH2 6599   5.528   1.065   2.239
 2198TIP3    H1 6600   5.598   1.008   2.272
 2198TIP3    H2 6601   5.573   1.127   2.182
 2199TIP3   OH2 6602   1.341   5.218   0.036
 2199TIP3    H1 6603   1.271   5.152   0.042
 2199TIP3    H2 6604   1.382   5.218   0.122
 2200TIP3   OH2 6605   6.086   4.605   2.122
 2200TIP3    H1 6606   6.139   4.589   2.200
 2200TIP3    H2 6607   5.997   4.586   2.151
 2201TIP3   OH2 6608   5.803   2.461   0.190
 2201TIP3    H1 6609   5.845   2.455   0.104
 2201TIP3    H2 6610   5.731   2.522   0.176
 2202TIP3   OH2 6611   1.662   2.399   1.009
 2202TIP3    H1 6612   1.614   2.329   0.965
 2202TIP3    H2 6613   1.622   2.406   1.095
 2203TIP3   OH2 6614   0.023   2.330   0.111
 2203TIP3    H1 6615  -0.050   2.302   0.056
 2203TIP3    H2 6616   0.099   2.325   0.053
 2204TIP3   OH2 6617   5.521   0.019   2.545
 2204TIP3    H1 6618   5.506  -0.005   2.637
 2204TIP3    H2 6619   5.444   0.070   2.521
 2205TIP3   OH2 6620   2.987   5.617   0.693
 2205TIP3    H1 6621   3.016   5.617   0.785
 2205TIP3    H2 6622   3.049   5.559   0.649
 2206TIP3   OH2 6623   6.208   5.574   4.825
 2206TIP3    H1 6624   6.230   5.654   4.775
 2206TIP3    H2 6625   6.274   5.511   4.798
 2207TIP3   OH2 6626   5.362   2.432   0.066
 2207TIP3    H1 6627   5.449   2.409   0.032
 2207TIP3    H2 6628   5.309   2.446  -0.012
 2208TIP3   OH2 6629   4.654   1.318   1.112
 2208TIP3    H1 6630   4.748   1.335   1.108
 2208TIP3    H2 6631   4.639   1.246   1.051
 2209TIP3   OH2 6632   2.718   1.026   3.603
 2209TIP3    H1 6633   2.692   0.970   3.675
 2209TIP3    H2 6634   2.679   0.985   3.525
 2210TIP3   OH2 6635   1.054   0.150   1.393
 2210TIP3    H1 6636   0.962   0.140   1.367
 2210TIP3    H2 6637   1.056   0.119   1.484
 2211TIP3   OH2 6638   2.447   1.620   0.850
 2211TIP3    H1 6639   2.508   1.616   0.777
 2211TIP3    H2 6640   2.411   1.708   0.847
 2212TIP3   OH2 6641   5.233   3.361   0.816
 2212TIP3    H1 6642   5.293   3.304   0.768
 2212TIP3    H2 6643   5.274   3.448   0.812
 2213TIP3   OH2 6644   2.178   3.585   3.075
 2213TIP3    H1 6645   2.144   3.673   3.093
 2213TIP3    H2 6646   2.140   3.530   3.145
 2214TIP3   OH2 6647   2.691   2.482   2.738
 2214TIP3    H1 6648   2.676   2.498   2.645
 2214TIP3    H2 6649   2.630   2.540   2.783
 2215TIP3   OH2 6650   3.858   1.648   0.751
 2215TIP3    H1 6651   3.779   1.649   0.806
 2215TIP3    H2 6652   3.864   1.737   0.716
 2216TIP3   OH2 6653   1.358   1.637   1.817
 2216TIP3    H1 6654   1.403   1.604   1.895
 2216TIP3    H2 6655   1.272   1.594   1.819
 2217TIP3   OH2 6656   0.034   1.732   3.049
 2217TIP3    H1 6657   0.105   1.796   3.056
 2217TIP3    H2 6658   0.076   1.652   3.017
 2218TIP3   OH2 6659   5.020   4.805   3.859
 2218TIP3    H1 6660   5.069   4.732   3.820
 2218TIP3    H2 6661   5.032   4.877   3.797
 2219TIP3   OH2 6662   5.918   3.839   0.207
 2219TIP3    H1 6663   5.953   3.819   0.120
 2219TIP3    H2 6664   5.909   3.934   0.208
 2220TIP3   OH2 6665   3.749   5.305   0.422
 2220TIP3    H1 6666   3.728   5.393   0.390
 2220TIP3    H2 6667   3.841   5.293   0.399
 2221TIP3   OH2 6668   3.379   0.307   2.487
 2221TIP3    H1 6669   3.288   0.338   2.490
 2221TIP3    H2 6670   3.408   0.311   2.578
 2222TIP3   OH2 6671   6.246   2.698   1.354
 2222TIP3    H1 6672   6.175   2.746   1.396
 2222TIP3    H2 6673   6.279   2.757   1.286
 2223TIP3   OH2 6674   3.893   4.585   2.269
 2223TIP3    H1 6675   3.957   4.620   2.330
 2223TIP3    H2 6676   3.841   4.661   2.243
 2224TIP3   OH2 6677   4.102   1.777   4.431
 2224TIP3    H1 6678   4.189   1.741   4.445
 2224TIP3    H2 6679   4.082   1.825   4.511
 2225TIP3   OH2 6680   5.674   1.655   2.475
 2225TIP3    H1 6681   5.585   1.687   2.487
 2225TIP3    H2 6682   5.697   1.614   2.559
 2226TIP3   OH2 6683   5.930   1.652   1.865
 2226TIP3    H1 6684   5.920   1.598   1.787
 2226TIP3    H2 6685   5.986   1.600   1.923
 2227TIP3   OH2 6686   1.741   3.255   0.310
 2227TIP3    H1 6687   1.687   3.327   0.281
 2227TIP3    H2 6688   1.759   3.273   0.402
 2228TIP3   OH2 6689   3.897   1.682   1.918
 2228TIP3    H1 6690   3.870   1.632   1.995
 2228TIP3    H2 6691   3.989   1.656   1.904
 2229TIP3   OH2 6692   1.114   3.649   2.127
 2229TIP3    H1 6693   1.137   3.705   2.201
 2229TIP3    H2 6694   1.060   3.580   2.165
 2230TIP3   OH2 6695   3.267   3.838   1.309
 2230TIP3    H1 6696   3.241   3.929   1.317
 2230TIP3    H2 6697   3.275   3.823   1.215
 2231TIP3   OH2 6698   2.167   4.211   3.415
 2231TIP3    H1 6699   2.178   4.273   3.487
 2231TIP3    H2 6700   2.073   4.194   3.412
 2232TIP3   OH2 6701   1.768   2.113   1.981
 2232TIP3    H1 6702   1.676   2.093   1.968
 2232TIP3    H2 6703   1.768   2.195   2.030
 2233TIP3   OH2 6704   0.525   2.679   4.844
 2233TIP3    H1 6705   0.439   2.707   4.875
 2233TIP3    H2 6706   0.520   2.688   4.749
 2234TIP3   OH2 6707   0.998   2.743   1.494
 2234TIP3    H1 6708   1.068   2.741   1.559
 2234TIP3    H2 6709   0.967   2.653   1.488
 2235TIP3   OH2 6710   3.963   0.673   1.987
 2235TIP3    H1 6711   4.052   0.702   1.968
 2235TIP3    H2 6712   3.945   0.606   1.921
 2236TIP3   OH2 6713   4.022   2.061   0.452
 2236TIP3    H1 6714   4.114   2.050   0.476
 2236TIP3    H2 6715   4.012   2.154   0.432
 2237TIP3   OH2 6716   3.802   4.668   3.622
 2237TIP3    H1 6717   3.897   4.675   3.608
 2237TIP3    H2 6718   3.793   4.648   3.715
 2238TIP3   OH2 6719   5.544   1.450   0.130
 2238TIP3    H1 6720   5.580   1.408   0.208
 2238TIP3    H2 6721   5.614   1.507   0.099
 2239TIP3   OH2 6722   4.073   5.831   0.371
 2239TIP3    H1 6723   4.028   5.915   0.372
 2239TIP3    H2 6724   4.062   5.796   0.460
 2240TIP3   OH2 6725   2.964   2.616   3.606
 2240TIP3    H1 6726   3.041   2.568   3.639
 2240TIP3    H2 6727   2.922   2.649   3.685
 2241TIP3   OH2 6728   2.972   1.736   0.008
 2241TIP3    H1 6729   3.047   1.676   0.000
 2241TIP3    H2 6730   3.011   1.820   0.029
 2242TIP3   OH2 6731   4.727   2.622   1.094
 2242TIP3    H1 6732   4.779   2.685   1.144
 2242TIP3    H2 6733   4.721   2.661   1.007
 2243TIP3   OH2 6734   5.689   1.167   1.076
 2243TIP3    H1 6735   5.637   1.134   1.002
 2243TIP3    H2 6736   5.776   1.129   1.062
 2244TIP3   OH2 6737   5.375   5.212   0.360
 2244TIP3    H1 6738   5.400   5.147   0.295
 2244TIP3    H2 6739   5.455   5.231   0.408
 2245TIP3   OH2 6740   3.141   2.366   0.599
 2245TIP3    H1 6741   3.194   2.306   0.546
 2245TIP3    H2 6742   3.071   2.311   0.635
 2246TIP3   OH2 6743   0.847   2.648   1.773
 2246TIP3    H1 6744   0.925   2.701   1.755
 2246TIP3    H2 6745   0.786   2.708   1.815
 2247TIP3   OH2 6746   6.182   5.798   2.964
 2247TIP3    H1 6747   6.111   5.848   2.923
 2247TIP3    H2 6748   6.251   5.863   2.979
 2248TIP3   OH2 6749   3.339   4.578   0.671
 2248TIP3    H1 6750   3.389   4.541   0.744
 2248TIP3    H2 6751   3.325   4.504   0.612
 2249TIP3   OH2 6752   5.468   1.559   4.483
 2249TIP3    H1 6753   5.522   1.480   4.481
 2249TIP3    H2 6754   5.518   1.621   4.536
 2250TIP3   OH2 6755   3.801   0.914   2.055
 2250TIP3    H1 6756   3.829   0.823   2.046
 2250TIP3    H2 6757   3.710   0.915   2.025
 2251TIP3   OH2 6758   5.481   2.983   3.826
 2251TIP3    H1 6759   5.504   2.905   3.775
 2251TIP3    H2 6760   5.515   2.965   3.914
 2252TIP3   OH2 6761   1.659   1.269   1.164
 2252TIP3    H1 6762   1.700   1.220   1.093
 2252TIP3    H2 6763   1.690   1.225   1.244
 2253TIP3   OH2 6764   4.648   4.814   1.421
 2253TIP3    H1 6765   4.640   4.744   1.485
 2253TIP3    H2 6766   4.654   4.769   1.336
 2254TIP3   OH2 6767   1.595   4.072   1.562
 2254TIP3    H1 6768   1.596   4.121   1.644
 2254TIP3    H2 6769   1.503   4.068   1.537
 2255TIP3   OH2 6770   2.247   5.644   2.772
 2255TIP3    H1 6771   2.287   5.680   2.694
 2255TIP3    H2 6772   2.229   5.552   2.750
 2256TIP3   OH2 6773   0.518   1.449   3.864
 2256TIP3    H1 6774   0.437   1.460   3.913
 2256TIP3    H2 6775   0.582   1.418   3.929
 2257TIP3   OH2 6776   0.432   1.807   1.485
 2257TIP3    H1 6777   0.398   1.727   1.444
 2257TIP3    H2 6778   0.365   1.873   1.467
 2258TIP3   OH2 6779   4.077   4.665   3.952
 2258TIP3    H1 6780   4.048   4.663   3.861
 2258TIP3    H2 6781   4.170   4.641   3.948
 2259TIP3   OH2 6782   1.018   3.906   5.135
 2259TIP3    H1 6783   0.973   3.934   5.056
 2259TIP3    H2 6784   1.102   3.951   5.133
 2260TIP3   OH2 6785   5.692   4.647   3.148
 2260TIP3    H1 6786   5.766   4.587   3.137
 2260TIP3    H2 6787   5.630   4.599   3.204
 2261TIP3   OH2 6788   4.131   1.493   3.615
 2261TIP3    H1 6789   4.174   1.575   3.637
 2261TIP3    H2 6790   4.086   1.510   3.532
 2262TIP3   OH2 6791   5.066   2.498   4.849
 2262TIP3    H1 6792   5.119   2.510   4.770
 2262TIP3    H2 6793   5.101   2.563   4.910
 2263TIP3   OH2 6794   2.630   3.933   0.227
 2263TIP3    H1 6795   2.603   3.930   0.319
 2263TIP3    H2 6796   2.722   3.960   0.231
 2264TIP3   OH2 6797   2.357   3.424   4.752
 2264TIP3    H1 6798   2.270   3.457   4.772
 2264TIP3    H2 6799   2.391   3.483   4.685
 2265TIP3   OH2 6800   3.476   2.209   1.740
 2265TIP3    H1 6801   3.483   2.138   1.676
 2265TIP3    H2 6802   3.431   2.169   1.815
 2266TIP3   OH2 6803   3.467   0.340   1.204
 2266TIP3    H1 6804   3.494   0.393   1.129
 2266TIP3    H2 6805   3.386   0.298   1.175
 2267TIP3   OH2 6806   3.584   2.194   0.858
 2267TIP3    H1 6807   3.609   2.168   0.947
 2267TIP3    H2 6808   3.644   2.266   0.837
 2268TIP3   OH2 6809   3.450   0.712   3.970
 2268TIP3    H1 6810   3.539   0.691   3.941
 2268TIP3    H2 6811   3.422   0.634   4.018
 2269TIP3   OH2 6812   4.829   2.409   1.210
 2269TIP3    H1 6813   4.793   2.465   1.140
 2269TIP3    H2 6814   4.760   2.405   1.275
 2270TIP3   OH2 6815   6.211   0.539   3.897
 2270TIP3    H1 6816   6.152   0.475   3.858
 2270TIP3    H2 6817   6.299   0.507   3.875
 2271TIP3   OH2 6818   4.752   0.709   4.503
 2271TIP3    H1 6819   4.833   0.674   4.465
 2271TIP3    H2 6820   4.691   0.635   4.499
 2272TIP3   OH2 6821   3.016   3.813   4.951
 2272TIP3    H1 6822   3.098   3.791   4.907
 2272TIP3    H2 6823   3.037   3.890   5.003
 2273TIP3   OH2 6824   4.640   3.259   1.829
 2273TIP3    H1 6825   4.621   3.165   1.821
 2273TIP3    H2 6826   4.589   3.288   1.904
 2274TIP3   OH2 6827   3.627   3.804   2.880
 2274TIP3    H1 6828   3.634   3.896   2.857
 2274TIP3    H2 6829   3.594   3.804   2.970
 2275TIP3   OH2 6830   5.800   2.097   1.038
 2275TIP3    H1 6831   5.806   2.008   1.003
 2275TIP3    H2 6832   5.889   2.130   1.035
 2276TIP3   OH2 6833   1.031   5.112   1.142
 2276TIP3    H1 6834   0.938   5.126   1.161
 2276TIP3    H2 6835   1.058   5.044   1.204
 2277TIP3   OH2 6836   3.610   0.828   0.859
 2277TIP3    H1 6837   3.701   0.798   0.852
 2277TIP3    H2 6838   3.605   0.903   0.800
 2278TIP3   OH2 6839   1.606   5.838   0.975
 2278TIP3    H1 6840   1.618   5.832   0.880
 2278TIP3    H2 6841   1.611   5.932   0.994
 2279TIP3   OH2 6842   0.751   2.025   1.041
 2279TIP3    H1 6843   0.777   2.116   1.027
 2279TIP3    H2 6844   0.752   1.985   0.954
 2280TIP3   OH2 6845   1.690   2.970   0.236
 2280TIP3    H1 6846   1.632   2.958   0.160
 2280TIP3    H2 6847   1.694   3.065   0.249
 2281TIP3   OH2 6848   5.984   4.157   4.901
 2281TIP3    H1 6849   5.915   4.204   4.948
 2281TIP3    H2 6850   5.940   4.085   4.858
 2282TIP3   OH2 6851   1.689   0.705   0.924
 2282TIP3    H1 6852   1.605   0.675   0.959
 2282TIP3    H2 6853   1.730   0.625   0.889
 2283TIP3   OH2 6854   1.461   3.543   3.315
 2283TIP3    H1 6855   1.413   3.609   3.265
 2283TIP3    H2 6856   1.443   3.565   3.407
 2284TIP3   OH2 6857   1.186   1.511   2.433
 2284TIP3    H1 6858   1.157   1.583   2.490
 2284TIP3    H2 6859   1.109   1.453   2.428
 2285TIP3   OH2 6860   3.100   3.090   4.182
 2285TIP3    H1 6861   3.152   3.131   4.113
 2285TIP3    H2 6862   3.116   3.144   4.259
 2286TIP3   OH2 6863   0.985   3.761   3.940
 2286TIP3    H1 6864   1.064   3.814   3.951
 2286TIP3    H2 6865   0.961   3.774   3.848
 2287TIP3   OH2 6866   1.579   4.818   2.637
 2287TIP3    H1 6867   1.591   4.906   2.671
 2287TIP3    H2 6868   1.647   4.809   2.570
 2288TIP3   OH2 6869   0.150   0.866   4.455
 2288TIP3    H1 6870   0.087   0.816   4.404
 2288TIP3    H2 6871   0.219   0.890   4.393
 2289TIP3   OH2 6872   3.512   2.880   4.552
 2289TIP3    H1 6873   3.574   2.946   4.584
 2289TIP3    H2 6874   3.552   2.796   4.574
 2290TIP3   OH2 6875   4.913   4.501   4.581
 2290TIP3    H1 6876   4.867   4.488   4.663
 2290TIP3    H2 6877   4.996   4.454   4.592
 2291TIP3   OH2 6878   1.924   2.040   2.974
 2291TIP3    H1 6879   1.886   2.128   2.969
 2291TIP3    H2 6880   1.853   1.985   3.007
 2292TIP3   OH2 6881   4.103   4.094   1.795
 2292TIP3    H1 6882   4.034   4.034   1.824
 2292TIP3    H2 6883   4.057   4.164   1.749
 2293TIP3   OH2 6884   1.604   2.555   3.934
 2293TIP3    H1 6885   1.555   2.491   3.882
 2293TIP3    H2 6886   1.676   2.582   3.877
 2294TIP3   OH2 6887   1.695   4.004   2.899
 2294TIP3    H1 6888   1.767   3.989   2.961
 2294TIP3    H2 6889   1.721   4.083   2.851
 2295TIP3   OH2 6890   0.047   3.731   0.073
 2295TIP3    H1 6891   0.080   3.662   0.131
 2295TIP3    H2 6892   0.063   3.698  -0.015
 2296TIP3   OH2 6893   4.349   3.213   2.215
 2296TIP3    H1 6894   4.354   3.165   2.298
 2296TIP3    H2 6895   4.269   3.265   2.223
 2297TIP3   OH2 6896   3.555   4.873   0.743
 2297TIP3    H1 6897   3.576   4.935   0.673
 2297TIP3    H2 6898   3.516   4.927   0.812
 2298TIP3   OH2 6899   6.327   3.222   2.776
 2298TIP3    H1 6900   6.378   3.263   2.846
 2298TIP3    H2 6901   6.259   3.172   2.822
 2299TIP3   OH2 6902   3.794   4.172   2.202
 2299TIP3    H1 6903   3.771   4.159   2.110
 2299TIP3    H2 6904   3.804   4.083   2.237
 2300TIP3   OH2 6905   6.258   3.103   0.824
 2300TIP3    H1 6906   6.201   3.145   0.761
 2300TIP3    H2 6907   6.229   3.012   0.825
 2301TIP3   OH2 6908   5.732   5.386   3.375
 2301TIP3    H1 6909   5.761   5.298   3.352
 2301TIP3    H2 6910   5.718   5.430   3.291
 2302TIP3   OH2 6911   0.592   5.425   0.076
 2302TIP3    H1 6912   0.556   5.513   0.065
 2302TIP3    H2 6913   0.647   5.431   0.155
 2303TIP3   OH2 6914   1.435   4.187   2.700
 2303TIP3    H1 6915   1.496   4.257   2.674
 2303TIP3    H2 6916   1.481   4.106   2.680
 2304TIP3   OH2 6917   1.929   1.228   3.420
 2304TIP3    H1 6918   1.928   1.160   3.487
 2304TIP3    H2 6919   1.838   1.233   3.389
 2305TIP3   OH2 6920   2.567   1.877   0.612
 2305TIP3    H1 6921   2.639   1.885   0.549
 2305TIP3    H2 6922   2.551   1.966   0.641
 2306TIP3   OH2 6923   5.206   4.839   4.706
 2306TIP3    H1 6924   5.180   4.926   4.738
 2306TIP3    H2 6925   5.155   4.827   4.626
 2307TIP3   OH2 6926   3.482   2.963   3.093
 2307TIP3    H1 6927   3.429   3.043   3.085
 2307TIP3    H2 6928   3.498   2.954   3.186
 2308TIP3   OH2 6929   5.687   5.362   2.125
 2308TIP3    H1 6930   5.706   5.353   2.218
 2308TIP3    H2 6931   5.600   5.402   2.123
 2309TIP3   OH2 6932   2.602   4.862   1.603
 2309TIP3    H1 6933   2.516   4.859   1.561
 2309TIP3    H2 6934   2.627   4.770   1.612
 2310TIP3   OH2 6935   2.589   1.721   4.855
 2310TIP3    H1 6936   2.523   1.653   4.852
 2310TIP3    H2 6937   2.539   1.802   4.866
 2311TIP3   OH2 6938   5.742   0.982   1.609
 2311TIP3    H1 6939   5.756   0.943   1.523
 2311TIP3    H2 6940   5.705   1.068   1.591
 2312TIP3   OH2 6941   5.331   3.358   4.858
 2312TIP3    H1 6942   5.322   3.269   4.824
 2312TIP3    H2 6943   5.259   3.368   4.920
 2313TIP3   OH2 6944   5.381   3.586   0.812
 2313TIP3    H1 6945   5.454   3.606   0.870
 2313TIP3    H2 6946   5.352   3.671   0.779
 2314TIP3   OH2 6947   0.158   4.712   0.102
 2314TIP3    H1 6948   0.083   4.732   0.158
 2314TIP3    H2 6949   0.216   4.788   0.111
 2315TIP3   OH2 6950   0.502   3.400   4.609
 2315TIP3    H1 6951   0.478   3.488   4.639
 2315TIP3    H2 6952   0.555   3.416   4.531
 2316TIP3   OH2 6953   2.226   2.568   0.303
 2316TIP3    H1 6954   2.131   2.561   0.304
 2316TIP3    H2 6955   2.256   2.484   0.269
 2317TIP3   OH2 6956   5.954   5.609   3.294
 2317TIP3    H1 6957   5.945   5.556   3.374
 2317TIP3    H2 6958   5.961   5.699   3.326
 2318TIP3   OH2 6959   0.486   1.610   2.116
 2318TIP3    H1 6960   0.533   1.597   2.198
 2318TIP3    H2 6961   0.536   1.678   2.070
 2319TIP3   OH2 6962   3.518   0.232   3.065
 2319TIP3    H1 6963   3.597   0.196   3.103
 2319TIP3    H2 6964   3.506   0.184   2.983
 2320TIP3   OH2 6965   3.711   2.013   1.338
 2320TIP3    H1 6966   3.672   2.008   1.250
 2320TIP3    H2 6967   3.750   2.100   1.341
 2321TIP3   OH2 6968   5.409   0.297   3.323
 2321TIP3    H1 6969   5.371   0.382   3.344
 2321TIP3    H2 6970   5.429   0.302   3.229
 2322TIP3   OH2 6971   5.864   3.586   2.818
 2322TIP3    H1 6972   5.924   3.517   2.788
 2322TIP3    H2 6973   5.913   3.667   2.803
 2323TIP3   OH2 6974   4.302   0.464   2.384
 2323TIP3    H1 6975   4.267   0.526   2.448
 2323TIP3    H2 6976   4.339   0.520   2.315
 2324TIP3   OH2 6977   6.316   4.204   1.156
 2324TIP3    H1 6978   6.274   4.202   1.242
 2324TIP3    H2 6979   6.255   4.253   1.100
 2325TIP3   OH2 6980   4.665   1.925   1.792
 2325TIP3    H1 6981   4.635   1.839   1.763
 2325TIP3    H2 6982   4.755   1.930   1.762
 2326TIP3   OH2 6983   6.296   3.885   3.117
 2326TIP3    H1 6984   6.288   3.892   3.213
 2326TIP3    H2 6985   6.247   3.806   3.095
 2327TIP3   OH2 6986   4.774   0.779   3.475
 2327TIP3    H1 6987   4.818   0.696   3.496
 2327TIP3    H2 6988   4.683   0.755   3.458
 2328TIP3   OH2 6989   0.264   4.410   4.929
 2328TIP3    H1 6990   0.195   4.393   4.993
 2328TIP3    H2 6991   0.220   4.411   4.845
 2329TIP3   OH2 6992   3.808   1.228   3.725
 2329TIP3    H1 6993   3.898   1.222   3.756
 2329TIP3    H2 6994   3.786   1.321   3.733
 2330TIP3   OH2 6995   4.574   0.199   2.829
 2330TIP3    H1 6996   4.657   0.151   2.830
 2330TIP3    H2 6997   4.546   0.196   2.737
 2331TIP3   OH2 6998   0.041   5.975   1.701
 2331TIP3    H1 6999  -0.025   5.909   1.678
 2331TIP3    H2 7000   0.093   5.933   1.770
 2332TIP3   OH2 7001   5.889   3.464   1.438
 2332TIP3    H1 7002   5.925   3.528   1.499
 2332TIP3    H2 7003   5.823   3.417   1.488
 2333TIP3   OH2 7004   5.983   1.715   3.414
 2333TIP3    H1 7005   5.958   1.801   3.378
 2333TIP3    H2 7006   5.944   1.714   3.502
 2334TIP3   OH2 7007   2.118   0.251   0.195
 2334TIP3    H1 7008   2.093   0.340   0.218
 2334TIP3    H2 7009   2.111   0.247   0.100
 2335TIP3   OH2 7010   0.929   0.552   5.041
 2335TIP3    H1 7011   0.865   0.486   5.068
 2335TIP3    H2 7012   0.904   0.575   4.951
 2336TIP3   OH2 7013   2.544   5.222   0.906
 2336TIP3    H1 7014   2.512   5.266   0.828
 2336TIP3    H2 7015   2.640   5.229   0.900
 2337TIP3   OH2 7016   2.028   0.513   1.286
 2337TIP3    H1 7017   2.002   0.586   1.229
 2337TIP3    H2 7018   2.097   0.550   1.341
 2338TIP3   OH2 7019   0.057   0.975   2.730
 2338TIP3    H1 7020   0.058   1.062   2.771
 2338TIP3    H2 7021   0.135   0.974   2.674
 2339TIP3   OH2 7022   3.617   3.783   1.268
 2339TIP3    H1 7023   3.707   3.762   1.245
 2339TIP3    H2 7024   3.622   3.870   1.308
 2340TIP3   OH2 7025   5.417   5.913   4.125
 2340TIP3    H1 7026   5.457   5.971   4.191
 2340TIP3    H2 7027   5.394   5.972   4.053
 2341TIP3   OH2 7028   1.805   4.470   4.603
 2341TIP3    H1 7029   1.786   4.521   4.682
 2341TIP3    H2 7030   1.888   4.427   4.621
 2342TIP3   OH2 7031   2.836   3.662   0.421
 2342TIP3    H1 7032   2.905   3.596   0.416
 2342TIP3    H2 7033   2.784   3.637   0.497
 2343TIP3   OH2 7034   4.209   3.714   2.777
 2343TIP3    H1 7035   4.152   3.770   2.723
 2343TIP3    H2 7036   4.254   3.775   2.836
 2344TIP3   OH2 7037   3.099   5.509   1.280
 2344TIP3    H1 7038   3.050   5.467   1.350
 2344TIP3    H2 7039   3.188   5.478   1.289
 2345TIP3   OH2 7040   2.159   4.262   2.647
 2345TIP3    H1 7041   2.220   4.326   2.684
 2345TIP3    H2 7042   2.155   4.192   2.712
 2346TIP3   OH2 7043   2.741   0.973   4.383
 2346TIP3    H1 7044   2.770   0.993   4.471
 2346TIP3    H2 7045   2.782   1.039   4.328
 2347TIP3   OH2 7046   4.199   0.923   3.185
 2347TIP3    H1 7047   4.177   0.950   3.096
 2347TIP3    H2 7048   4.115   0.919   3.231
 2348TIP3   OH2 7049   5.750   5.661   2.228
 2348TIP3    H1 7050   5.800   5.689   2.152
 2348TIP3    H2 7051   5.659   5.667   2.201
 2349TIP3   OH2 7052   1.710   5.455   3.464
 2349TIP3    H1 7053   1.779   5.435   3.401
 2349TIP3    H2 7054   1.667   5.370   3.480
 2350TIP3   OH2 7055   2.651   1.662   1.677
 2350TIP3    H1 7056   2.729   1.691   1.723
 2350TIP3    H2 7057   2.658   1.703   1.590
 2351TIP3   OH2 7058   1.745   1.090   2.013
 2351TIP3    H1 7059   1.839   1.078   2.000
 2351TIP3    H2 7060   1.707   1.005   1.993
 2352TIP3   OH2 7061   0.634   2.895   5.126
 2352TIP3    H1 7062   0.685   2.837   5.069
 2352TIP3    H2 7063   0.664   2.873   5.214
 2353TIP3   OH2 7064   2.703   0.311   4.807
 2353TIP3    H1 7065   2.692   0.362   4.888
 2353TIP3    H2 7066   2.667   0.225   4.828
 2354TIP3   OH2 7067   1.468   0.742   2.414
 2354TIP3    H1 7068   1.496   0.824   2.454
 2354TIP3    H2 7069   1.425   0.694   2.485
 2355TIP3   OH2 7070   3.716   3.022   4.645
 2355TIP3    H1 7071   3.723   3.045   4.737
 2355TIP3    H2 7072   3.735   3.104   4.598
 2356TIP3   OH2 7073   2.656   4.163   0.608
 2356TIP3    H1 7074   2.637   4.183   0.700
 2356TIP3    H2 7075   2.736   4.110   0.611
 2357TIP3   OH2 7076   6.205   4.826   0.009
 2357TIP3    H1 7077   6.273   4.869  -0.042
 2357TIP3    H2 7078   6.244   4.813   0.096
 2358TIP3   OH2 7079   1.030   3.235   3.115
 2358TIP3    H1 7080   0.995   3.210   3.200
 2358TIP3    H2 7081   0.977   3.187   3.051
 2359TIP3   OH2 7082   3.902   2.908   0.381
 2359TIP3    H1 7083   3.944   2.980   0.335
 2359TIP3    H2 7084   3.858   2.858   0.312
 2360TIP3   OH2 7085   3.349   1.007   4.059
 2360TIP3    H1 7086   3.352   1.096   4.094
 2360TIP3    H2 7087   3.437   0.972   4.075
 2361TIP3   OH2 7088   1.105   3.566   0.791
 2361TIP3    H1 7089   1.023   3.585   0.836
 2361TIP3    H2 7090   1.159   3.644   0.806
 2362TIP3   OH2 7091   1.312   2.219   3.938
 2362TIP3    H1 7092   1.338   2.130   3.915
 2362TIP3    H2 7093   1.239   2.208   3.999
 2363TIP3   OH2 7094  -0.003   1.671   3.359
 2363TIP3    H1 7095   0.064   1.604   3.374
 2363TIP3    H2 7096   0.011   1.697   3.268
 2364TIP3   OH2 7097   2.669   0.957   1.668
 2364TIP3    H1 7098   2.633   1.033   1.622
 2364TIP3    H2 7099   2.685   0.988   1.757
 2365TIP3   OH2 7100   0.530   4.891   0.892
 2365TIP3    H1 7101   0.570   4.817   0.939
 2365TIP3    H2 7102   0.506   4.855   0.807
 2366TIP3   OH2 7103   2.881   2.148   3.964
 2366TIP3    H1 7104   2.809   2.115   4.018
 2366TIP3    H2 7105   2.926   2.212   4.020
 2367TIP3   OH2 7106   4.956   1.972   3.767
 2367TIP3    H1 7107   5.032   2.030   3.765
 2367TIP3    H2 7108   4.938   1.957   3.860
 2368TIP3   OH2 7109   2.910   4.308   0.745
 2368TIP3    H1 7110   2.980   4.336   0.804
 2368TIP3    H2 7111   2.938   4.223   0.712
 2369TIP3   OH2 7112   0.973   3.484   1.599
 2369TIP3    H1 7113   0.879   3.499   1.591
 2369TIP3    H2 7114   1.013   3.565   1.570
 2370TIP3   OH2 7115   0.890   4.967   5.010
 2370TIP3    H1 7116   0.854   4.979   4.922
 2370TIP3    H2 7117   0.949   4.892   5.002
 2371TIP3   OH2 7118   4.099   1.239   3.385
 2371TIP3    H1 7119   4.169   1.290   3.425
 2371TIP3    H2 7120   4.058   1.299   3.323
 2372TIP3   OH2 7121   0.314   2.574   4.149
 2372TIP3    H1 7122   0.366   2.604   4.074
 2372TIP3    H2 7123   0.229   2.551   4.110
 2373TIP3   OH2 7124   1.542   1.518   2.019
 2373TIP3    H1 7125   1.627   1.493   1.982
 2373TIP3    H2 7126   1.495   1.435   2.029
 2374TIP3   OH2 7127   4.186   5.112   3.488
 2374TIP3    H1 7128   4.147   5.047   3.430
 2374TIP3    H2 7129   4.112   5.168   3.514
 2375TIP3   OH2 7130   4.219   1.533   1.247
 2375TIP3    H1 7131   4.208   1.441   1.224
 2375TIP3    H2 7132   4.156   1.548   1.317
 2376TIP3   OH2 7133   1.597   2.302   0.315
 2376TIP3    H1 7134   1.689   2.285   0.293
 2376TIP3    H2 7135   1.600   2.337   0.404
 2377TIP3   OH2 7136   5.003   5.620   2.931
 2377TIP3    H1 7137   5.006   5.716   2.937
 2377TIP3    H2 7138   5.005   5.590   3.022
 2378TIP3   OH2 7139   3.890   1.593   2.791
 2378TIP3    H1 7140   3.957   1.659   2.809
 2378TIP3    H2 7141   3.939   1.519   2.755
 2379TIP3   OH2 7142   2.986   5.028   0.239
 2379TIP3    H1 7143   3.050   5.008   0.171
 2379TIP3    H2 7144   2.915   5.073   0.193
 2380TIP3   OH2 7145   4.144   0.229   3.494
 2380TIP3    H1 7146   4.207   0.180   3.441
 2380TIP3    H2 7147   4.177   0.222   3.583
 2381TIP3   OH2 7148   5.995   2.495   1.361
 2381TIP3    H1 7149   6.017   2.510   1.453
 2381TIP3    H2 7150   5.989   2.583   1.324
 2382TIP3   OH2 7151   0.603   4.824   1.354
 2382TIP3    H1 7152   0.525   4.860   1.312
 2382TIP3    H2 7153   0.645   4.899   1.395
 2383TIP3   OH2 7154   6.149   4.240   1.365
 2383TIP3    H1 7155   6.128   4.332   1.353
 2383TIP3    H2 7156   6.175   4.233   1.457
 2384TIP3   OH2 7157   0.539   5.752   2.268
 2384TIP3    H1 7158   0.591   5.816   2.220
 2384TIP3    H2 7159   0.488   5.804   2.330
 2385TIP3   OH2 7160   3.656   0.238   0.748
 2385TIP3    H1 7161   3.731   0.276   0.794
 2385TIP3    H2 7162   3.592   0.222   0.817
 2386TIP3   OH2 7163   1.206   0.275   2.712
 2386TIP3    H1 7164   1.175   0.350   2.662
 2386TIP3    H2 7165   1.266   0.230   2.652
 2387TIP3   OH2 7166   2.222   3.942   1.374
 2387TIP3    H1 7167   2.168   3.996   1.432
 2387TIP3    H2 7168   2.309   3.983   1.376
 2388TIP3   OH2 7169   3.020   4.262   0.093
 2388TIP3    H1 7170   3.071   4.253   0.012
 2388TIP3    H2 7171   2.951   4.324   0.072
 2389TIP3   OH2 7172   4.834   4.446   1.669
 2389TIP3    H1 7173   4.876   4.402   1.742
 2389TIP3    H2 7174   4.760   4.389   1.646
 2390TIP3   OH2 7175   2.615   0.061   3.597
 2390TIP3    H1 7176   2.537   0.117   3.596
 2390TIP3    H2 7177   2.676   0.104   3.538
 2391TIP3   OH2 7178   5.560   0.458   4.461
 2391TIP3    H1 7179   5.647   0.420   4.447
 2391TIP3    H2 7180   5.531   0.423   4.545
 2392TIP3   OH2 7181   4.663   0.266   2.160
 2392TIP3    H1 7182   4.732   0.209   2.195
 2392TIP3    H2 7183   4.630   0.313   2.237
 2393TIP3   OH2 7184   6.286   3.975   0.101
 2393TIP3    H1 7185   6.322   3.887   0.089
 2393TIP3    H2 7186   6.346   4.032   0.052
 2394TIP3   OH2 7187   1.922   5.668   0.984
 2394TIP3    H1 7188   2.005   5.625   1.005
 2394TIP3    H2 7189   1.899   5.716   1.064
 2395TIP3   OH2 7190   1.951   1.890   0.200
 2395TIP3    H1 7191   2.004   1.964   0.168
 2395TIP3    H2 7192   1.960   1.893   0.295
 2396TIP3   OH2 7193   2.330   2.717   3.296
 2396TIP3    H1 7194   2.425   2.701   3.297
 2396TIP3    H2 7195   2.312   2.748   3.207
 2397TIP3   OH2 7196   1.731   0.630   2.468
 2397TIP3    H1 7197   1.690   0.555   2.511
 2397TIP3    H2 7198   1.657   0.687   2.445
 2398TIP3   OH2 7199   6.025   2.064   3.475
 2398TIP3    H1 7200   6.001   2.021   3.558
 2398TIP3    H2 7201   5.967   2.140   3.470
 2399TIP3   OH2 7202   2.554   2.505   3.817
 2399TIP3    H1 7203   2.591   2.516   3.905
 2399TIP3    H2 7204   2.531   2.412   3.812
 2400TIP3   OH2 7205   3.751   1.477   4.089
 2400TIP3    H1 7206   3.832   1.524   4.070
 2400TIP3    H2 7207   3.758   1.396   4.039
 2401TIP3   OH2 7208   1.134   2.525   5.059
 2401TIP3    H1 7209   1.105   2.534   4.968
 2401TIP3    H2 7210   1.076   2.583   5.108
 2402TIP3   OH2 7211   1.431   3.315   1.048
 2402TIP3    H1 7212   1.449   3.257   0.974
 2402TIP3    H2 7213   1.489   3.390   1.035
 2403TIP3   OH2 7214   4.876   1.271   0.944
 2403TIP3    H1 7215   4.912   1.356   0.967
 2403TIP3    H2 7216   4.940   1.207   0.975
 2404TIP3   OH2 7217   1.961   3.898   4.027
 2404TIP3    H1 7218   1.913   3.858   3.954
 2404TIP3    H2 7219   2.034   3.839   4.043
 2405TIP3   OH2 7220   5.546   0.930   3.882
 2405TIP3    H1 7221   5.461   0.936   3.926
 2405TIP3    H2 7222   5.527   0.953   3.791
 2406TIP3   OH2 7223   1.902   5.295   1.700
 2406TIP3    H1 7224   1.836   5.287   1.632
 2406TIP3    H2 7225   1.855   5.272   1.781
 2407TIP3   OH2 7226   3.754   0.693   3.187
 2407TIP3    H1 7227   3.762   0.666   3.279
 2407TIP3    H2 7228   3.715   0.780   3.191
 2408TIP3   OH2 7229   6.156   4.076   3.227
 2408TIP3    H1 7230   6.193   4.158   3.194
 2408TIP3    H2 7231   6.182   4.010   3.163
 2409TIP3   OH2 7232   5.580   0.227   0.905
 2409TIP3    H1 7233   5.577   0.141   0.865
 2409TIP3    H2 7234   5.526   0.220   0.983
 2410TIP3   OH2 7235   0.440   5.162   4.001
 2410TIP3    H1 7236   0.375   5.167   3.931
 2410TIP3    H2 7237   0.523   5.183   3.958
 2411TIP3   OH2 7238   5.164   0.403   3.495
 2411TIP3    H1 7239   5.173   0.308   3.487
 2411TIP3    H2 7240   5.219   0.427   3.570
 2412TIP3   OH2 7241   1.788   0.807   3.266
 2412TIP3    H1 7242   1.794   0.894   3.226
 2412TIP3    H2 7243   1.844   0.814   3.344
 2413TIP3   OH2 7244   0.647   4.529   3.341
 2413TIP3    H1 7245   0.735   4.564   3.327
 2413TIP3    H2 7246   0.618   4.569   3.423
 2414TIP3   OH2 7247   3.084   4.102   0.767
 2414TIP3    H1 7248   3.179   4.094   0.771
 2414TIP3    H2 7249   3.054   4.016   0.736
 2415TIP3   OH2 7250   2.959   4.483   4.262
 2415TIP3    H1 7251   2.987   4.405   4.215
 2415TIP3    H2 7252   2.977   4.555   4.201
 2416TIP3   OH2 7253   0.224   2.272   1.773
 2416TIP3    H1 7254   0.282   2.240   1.704
 2416TIP3    H2 7255   0.152   2.314   1.726
 2417TIP3   OH2 7256   0.065   2.588   5.018
 2417TIP3    H1 7257   0.080   2.676   4.985
 2417TIP3    H2 7258  -0.029   2.584   5.034
 2418TIP3   OH2 7259   3.154   2.064   0.052
 2418TIP3    H1 7260   3.240   2.023   0.066
 2418TIP3    H2 7261   3.158   2.096  -0.038
 2419TIP3   OH2 7262   2.407   4.750   3.749
 2419TIP3    H1 7263   2.445   4.792   3.826
 2419TIP3    H2 7264   2.456   4.786   3.675
 2420TIP3   OH2 7265   1.357   2.515   0.320
 2420TIP3    H1 7266   1.451   2.505   0.303
 2420TIP3    H2 7267   1.346   2.609   0.334
 2421TIP3   OH2 7268   1.483   5.791   3.526
 2421TIP3    H1 7269   1.502   5.863   3.586
 2421TIP3    H2 7270   1.564   5.740   3.525
 2422TIP3   OH2 7271   0.939   3.860   0.128
 2422TIP3    H1 7272   0.974   3.783   0.172
 2422TIP3    H2 7273   0.859   3.881   0.176
 2423TIP3   OH2 7274   5.817   2.204   2.860
 2423TIP3    H1 7275   5.800   2.296   2.879
 2423TIP3    H2 7276   5.912   2.194   2.873
 2424TIP3   OH2 7277   0.770   3.348   0.805
 2424TIP3    H1 7278   0.700   3.328   0.867
 2424TIP3    H2 7279   0.726   3.386   0.729
 2425TIP3   OH2 7280   4.862   2.128   1.413
 2425TIP3    H1 7281   4.890   2.064   1.477
 2425TIP3    H2 7282   4.940   2.181   1.396
 2426TIP3   OH2 7283   1.563   0.714   1.317
 2426TIP3    H1 7284   1.474   0.728   1.284
 2426TIP3    H2 7285   1.619   0.756   1.251
 2427TIP3   OH2 7286   1.184   0.477   0.838
 2427TIP3    H1 7287   1.128   0.399   0.846
 2427TIP3    H2 7288   1.128   0.542   0.795
 2428TIP3   OH2 7289   2.695   1.665   0.719
 2428TIP3    H1 7290   2.758   1.708   0.776
 2428TIP3    H2 7291   2.633   1.735   0.696
 2429TIP3   OH2 7292   6.234   5.727   3.508
 2429TIP3    H1 7293   6.230   5.673   3.429
 2429TIP3    H2 7294   6.326   5.722   3.536
 2430TIP3   OH2 7295   1.158   2.581   2.752
 2430TIP3    H1 7296   1.217   2.526   2.700
 2430TIP3    H2 7297   1.075   2.534   2.751
 2431TIP3   OH2 7298   0.377   1.848   4.013
 2431TIP3    H1 7299   0.366   1.942   4.007
 2431TIP3    H2 7300   0.299   1.817   4.060
 2432TIP3   OH2 7301   0.438   0.477   3.101
 2432TIP3    H1 7302   0.523   0.510   3.130
 2432TIP3    H2 7303   0.455   0.438   3.016
 2433TIP3   OH2 7304   5.619   4.489  -0.002
 2433TIP3    H1 7305   5.700   4.449   0.031
 2433TIP3    H2 7306   5.565   4.414  -0.028
 2434TIP3   OH2 7307   6.149   1.809   1.716
 2434TIP3    H1 7308   6.099   1.890   1.721
 2434TIP3    H2 7309   6.205   1.820   1.640
 2435TIP3   OH2 7310   0.535   5.360   2.417
 2435TIP3    H1 7311   0.592   5.342   2.491
 2435TIP3    H2 7312   0.464   5.296   2.425
 2436TIP3   OH2 7313   4.946   3.467   4.856
 2436TIP3    H1 7314   5.026   3.509   4.824
 2436TIP3    H2 7315   4.931   3.506   4.942
 2437TIP3   OH2 7316   0.706   2.103   0.093
 2437TIP3    H1 7317   0.783   2.060   0.056
 2437TIP3    H2 7318   0.739   2.146   0.173
 2438TIP3   OH2 7319   5.312   1.131   2.410
 2438TIP3    H1 7320   5.329   1.199   2.475
 2438TIP3    H2 7321   5.397   1.114   2.370
 2439TIP3   OH2 7322   1.790   1.882   2.104
 2439TIP3    H1 7323   1.767   1.920   2.189
 2439TIP3    H2 7324   1.832   1.954   2.057
 2440TIP3   OH2 7325   6.294   4.260   3.054
 2440TIP3    H1 7326   6.287   4.350   3.086
 2440TIP3    H2 7327   6.388   4.246   3.043
 2441TIP3   OH2 7328   0.894   2.794   2.913
 2441TIP3    H1 7329   0.980   2.830   2.935
 2441TIP3    H2 7330   0.831   2.858   2.946
 2442TIP3   OH2 7331   2.482   2.696   1.580
 2442TIP3    H1 7332   2.548   2.637   1.542
 2442TIP3    H2 7333   2.495   2.778   1.532
 2443TIP3   OH2 7334   2.766   2.847   1.529
 2443TIP3    H1 7335   2.724   2.928   1.557
 2443TIP3    H2 7336   2.797   2.806   1.609
 2444TIP3   OH2 7337   0.514   2.184   2.442
 2444TIP3    H1 7338   0.538   2.207   2.531
 2444TIP3    H2 7339   0.590   2.208   2.389
 2445TIP3   OH2 7340   0.751   2.762   1.350
 2445TIP3    H1 7341   0.715   2.695   1.291
 2445TIP3    H2 7342   0.842   2.736   1.362
 2446TIP3   OH2 7343   6.236   1.367   1.560
 2446TIP3    H1 7344   6.205   1.452   1.590
 2446TIP3    H2 7345   6.329   1.365   1.582
 2447TIP3   OH2 7346   2.469   2.050   2.447
 2447TIP3    H1 7347   2.442   1.999   2.372
 2447TIP3    H2 7348   2.416   2.130   2.442
 2448TIP3   OH2 7349   5.478   4.115   1.097
 2448TIP3    H1 7350   5.542   4.177   1.064
 2448TIP3    H2 7351   5.484   4.040   1.038
 2449TIP3   OH2 7352   5.987   5.846   3.434
 2449TIP3    H1 7353   6.018   5.903   3.363
 2449TIP3    H2 7354   6.067   5.818   3.478
 2450TIP3   OH2 7355   4.216   1.050   0.703
 2450TIP3    H1 7356   4.165   1.125   0.733
 2450TIP3    H2 7357   4.233   0.999   0.783
 2451TIP3   OH2 7358   2.366   0.577   5.164
 2451TIP3    H1 7359   2.336   0.639   5.231
 2451TIP3    H2 7360   2.285   0.543   5.125
 2452TIP3   OH2 7361   3.042   3.396   4.236
 2452TIP3    H1 7362   3.053   3.484   4.271
 2452TIP3    H2 7363   3.075   3.338   4.305
 2453TIP3   OH2 7364   5.666   5.427   1.144
 2453TIP3    H1 7365   5.628   5.382   1.220
 2453TIP3    H2 7366   5.747   5.465   1.178
 2454TIP3   OH2 7367   0.635   5.058   0.474
 2454TIP3    H1 7368   0.721   5.098   0.491
 2454TIP3    H2 7369   0.621   5.072   0.380
 2455TIP3   OH2 7370   4.072   2.900   4.885
 2455TIP3    H1 7371   4.040   2.815   4.857
 2455TIP3    H2 7372   4.167   2.897   4.874
 2456TIP3   OH2 7373   5.737   4.351   4.495
 2456TIP3    H1 7374   5.732   4.291   4.570
 2456TIP3    H2 7375   5.750   4.437   4.534
 2457TIP3   OH2 7376   2.810   5.144   0.066
 2457TIP3    H1 7377   2.724   5.186   0.067
 2457TIP3    H2 7378   2.792   5.054   0.037
 2458TIP3   OH2 7379   6.168   5.622   1.065
 2458TIP3    H1 7380   6.248   5.665   1.094
 2458TIP3    H2 7381   6.130   5.586   1.145
 2459TIP3   OH2 7382   5.452   4.024   1.767
 2459TIP3    H1 7383   5.503   4.073   1.832
 2459TIP3    H2 7384   5.444   4.085   1.694
 2460TIP3   OH2 7385   1.294   0.879   4.530
 2460TIP3    H1 7386   1.357   0.948   4.548
 2460TIP3    H2 7387   1.347   0.802   4.509
 2461TIP3   OH2 7388   5.919   3.371   4.416
 2461TIP3    H1 7389   5.907   3.361   4.322
 2461TIP3    H2 7390   5.898   3.462   4.434
 2462TIP3   OH2 7391   5.292   1.141   4.570
 2462TIP3    H1 7392   5.298   1.052   4.537
 2462TIP3    H2 7393   5.218   1.180   4.523
 2463TIP3   OH2 7394   1.965   0.112   3.608
 2463TIP3    H1 7395   1.874   0.106   3.580
 2463TIP3    H2 7396   2.010   0.154   3.534
 2464TIP3   OH2 7397   4.359   4.345   2.120
 2464TIP3    H1 7398   4.397   4.258   2.106
 2464TIP3    H2 7399   4.308   4.362   2.041
 2465TIP3   OH2 7400   3.751   2.492   0.506
 2465TIP3    H1 7401   3.713   2.557   0.565
 2465TIP3    H2 7402   3.834   2.531   0.478
 2466TIP3   OH2 7403   5.016   1.620   0.293
 2466TIP3    H1 7404   5.102   1.641   0.327
 2466TIP3    H2 7405   4.986   1.700   0.250
 2467TIP3   OH2 7406   3.206   4.739   2.758
 2467TIP3    H1 7407   3.284   4.695   2.724
 2467TIP3    H2 7408   3.204   4.823   2.712
 2468TIP3   OH2 7409   6.034   1.282   1.727
 2468TIP3    H1 7410   6.097   1.307   1.660
 2468TIP3    H2 7411   5.950   1.314   1.695
 2469TIP3   OH2 7412   4.401   1.782   1.047
 2469TIP3    H1 7413   4.425   1.701   1.002
 2469TIP3    H2 7414   4.406   1.760   1.140
 2470TIP3   OH2 7415   2.279   0.422   3.012
 2470TIP3    H1 7416   2.323   0.361   2.953
 2470TIP3    H2 7417   2.276   0.377   3.096
 2471TIP3   OH2 7418   4.452   5.951   2.172
 2471TIP3    H1 7419   4.463   6.041   2.140
 2471TIP3    H2 7420   4.357   5.939   2.179
 2472TIP3   OH2 7421   1.163   0.065   0.840
 2472TIP3    H1 7422   1.111   0.144   0.855
 2472TIP3    H2 7423   1.098  -0.004   0.829
 2473TIP3   OH2 7424   2.779   1.419   4.185
 2473TIP3    H1 7425   2.732   1.452   4.108
 2473TIP3    H2 7426   2.784   1.494   4.244
 2474TIP3   OH2 7427   2.328   5.381   3.812
 2474TIP3    H1 7428   2.399   5.318   3.807
 2474TIP3    H2 7429   2.307   5.401   3.721
 2475TIP3   OH2 7430   3.821   0.347   0.137
 2475TIP3    H1 7431   3.784   0.260   0.151
 2475TIP3    H2 7432   3.778   0.402   0.203
 2476TIP3   OH2 7433   6.042   4.757   3.173
 2476TIP3    H1 7434   5.971   4.739   3.112
 2476TIP3    H2 7435   6.010   4.728   3.258
 2477TIP3   OH2 7436   0.446   4.244   5.183
 2477TIP3    H1 7437   0.391   4.199   5.118
 2477TIP3    H2 7438   0.529   4.258   5.138
 2478TIP3   OH2 7439   1.272   1.408   3.642
 2478TIP3    H1 7440   1.222   1.432   3.720
 2478TIP3    H2 7441   1.324   1.332   3.669
 2479TIP3   OH2 7442   1.652   5.504   5.120
 2479TIP3    H1 7443   1.582   5.498   5.055
 2479TIP3    H2 7444   1.687   5.593   5.108
 2480TIP3   OH2 7445   1.791   0.820   1.730
 2480TIP3    H1 7446   1.846   0.742   1.732
 2480TIP3    H2 7447   1.745   0.818   1.814
 2481TIP3   OH2 7448   0.367   5.977   5.142
 2481TIP3    H1 7449   0.415   5.905   5.182
 2481TIP3    H2 7450   0.275   5.955   5.156
 2482TIP3   OH2 7451   3.624   1.927   2.895
 2482TIP3    H1 7452   3.617   1.831   2.888
 2482TIP3    H2 7453   3.537   1.955   2.924
 2483TIP3   OH2 7454   2.715   2.922   1.248
 2483TIP3    H1 7455   2.742   2.918   1.340
 2483TIP3    H2 7456   2.773   2.988   1.209
 2484TIP3   OH2 7457   3.164   4.374   2.954
 2484TIP3    H1 7458   3.206   4.419   2.881
 2484TIP3    H2 7459   3.093   4.324   2.913
 2485TIP3   OH2 7460   1.483   0.844   2.808
 2485TIP3    H1 7461   1.424   0.914   2.780
 2485TIP3    H2 7462   1.540   0.828   2.733
 2486TIP3   OH2 7463   3.675   4.711   0.184
 2486TIP3    H1 7464   3.628   4.775   0.131
 2486TIP3    H2 7465   3.765   4.743   0.186
 2487TIP3   OH2 7466   6.119   4.097   2.878
 2487TIP3    H1 7467   6.133   4.129   2.789
 2487TIP3    H2 7468   6.173   4.154   2.933
 2488TIP3   OH2 7469   4.814   5.721   3.484
 2488TIP3    H1 7470   4.906   5.695   3.489
 2488TIP3    H2 7471   4.814   5.803   3.435
 2489TIP3   OH2 7472   1.050   1.137   4.602
 2489TIP3    H1 7473   1.021   1.053   4.567
 2489TIP3    H2 7474   1.041   1.127   4.697
 2490TIP3   OH2 7475   2.896   2.579   3.325
 2490TIP3    H1 7476   2.861   2.667   3.312
 2490TIP3    H2 7477   2.932   2.581   3.413
 2491TIP3   OH2 7478   4.864   1.186   1.417
 2491TIP3    H1 7479   4.826   1.101   1.438
 2491TIP3    H2 7480   4.937   1.167   1.358
 2492TIP3   OH2 7481   0.139   0.736   2.962
 2492TIP3    H1 7482   0.060   0.781   2.933
 2492TIP3    H2 7483   0.186   0.715   2.881
 2493TIP3   OH2 7484   0.915   4.231   2.086
 2493TIP3    H1 7485   1.009   4.226   2.104
 2493TIP3    H2 7486   0.891   4.321   2.109
 2494TIP3   OH2 7487   2.083   1.056   1.439
 2494TIP3    H1 7488   2.130   0.982   1.400
 2494TIP3    H2 7489   2.130   1.133   1.409
 2495TIP3   OH2 7490   4.343   1.924   1.924
 2495TIP3    H1 7491   4.369   1.842   1.883
 2495TIP3    H2 7492   4.323   1.983   1.851
 2496TIP3   OH2 7493   0.867   3.460   4.292
 2496TIP3    H1 7494   0.830   3.542   4.258
 2496TIP3    H2 7495   0.949   3.486   4.333
 2497TIP3   OH2 7496   6.092   3.573   0.408
 2497TIP3    H1 7497   6.150   3.613   0.343
 2497TIP3    H2 7498   6.066   3.646   0.464
 2498TIP3   OH2 7499   3.363   4.548   1.096
 2498TIP3    H1 7500   3.434   4.569   1.035
 2498TIP3    H2 7501   3.394   4.581   1.180
 2499TIP3   OH2 7502   3.903   2.076   4.271
 2499TIP3    H1 7503   3.816   2.113   4.258
 2499TIP3    H2 7504   3.902   1.994   4.221
 2500TIP3   OH2 7505   2.967   3.780   1.832
 2500TIP3    H1 7506   2.974   3.868   1.793
 2500TIP3    H2 7507   2.994   3.792   1.923
 2501TIP3   OH2 7508   3.731   0.215   4.700
 2501TIP3    H1 7509   3.741   0.128   4.661
 2501TIP3    H2 7510   3.637   0.227   4.708
 2502TIP3   OH2 7511   4.875   2.945   2.996
 2502TIP3    H1 7512   4.913   3.032   3.001
 2502TIP3    H2 7513   4.817   2.948   2.920
 2503TIP3   OH2 7514   0.141   1.378   2.542
 2503TIP3    H1 7515   0.096   1.408   2.621
 2503TIP3    H2 7516   0.077   1.323   2.497
 2504TIP3   OH2 7517   0.301   1.323   0.172
 2504TIP3    H1 7518   0.263   1.408   0.192
 2504TIP3    H2 7519   0.242   1.285   0.106
 2505TIP3   OH2 7520   4.200   0.190   0.370
 2505TIP3    H1 7521   4.148   0.193   0.290
 2505TIP3    H2 7522   4.271   0.129   0.350
 2506TIP3   OH2 7523   1.847   4.821   3.392
 2506TIP3    H1 7524   1.910   4.846   3.460
 2506TIP3    H2 7525   1.785   4.763   3.436
 2507TIP3   OH2 7526   1.310   3.773   2.825
 2507TIP3    H1 7527   1.280   3.863   2.815
 2507TIP3    H2 7528   1.231   3.725   2.850
 2508TIP3   OH2 7529   0.983   1.928   0.607
 2508TIP3    H1 7530   1.000   2.014   0.646
 2508TIP3    H2 7531   0.973   1.869   0.682
 2509TIP3   OH2 7532   0.505   5.822   1.342
 2509TIP3    H1 7533   0.573   5.888   1.327
 2509TIP3    H2 7534   0.552   5.739   1.342
 2510TIP3   OH2 7535   5.594   5.142   0.986
 2510TIP3    H1 7536   5.577   5.112   1.075
 2510TIP3    H2 7537   5.689   5.135   0.976
 2511TIP3   OH2 7538   3.067   1.576   1.193
 2511TIP3    H1 7539   3.158   1.548   1.202
 2511TIP3    H2 7540   3.022   1.501   1.155
 2512TIP3   OH2 7541   1.494   4.800   0.235
 2512TIP3    H1 7542   1.503   4.840   0.149
 2512TIP3    H2 7543   1.564   4.734   0.238
 2513TIP3   OH2 7544   2.209   3.657   0.191
 2513TIP3    H1 7545   2.264   3.735   0.185
 2513TIP3    H2 7546   2.263   3.587   0.154
 2514TIP3   OH2 7547   6.266   3.414   2.052
 2514TIP3    H1 7548   6.196   3.410   1.987
 2514TIP3    H2 7549   6.273   3.325   2.087
 2515TIP3   OH2 7550   0.421   2.115   1.556
 2515TIP3    H1 7551   0.436   2.045   1.619
 2515TIP3    H2 7552   0.384   2.071   1.480
 2516TIP3   OH2 7553   1.000   0.254   0.360
 2516TIP3    H1 7554   1.019   0.193   0.431
 2516TIP3    H2 7555   0.957   0.200   0.293
 2517TIP3   OH2 7556   3.539   4.122   4.233
 2517TIP3    H1 7557   3.555   4.128   4.327
 2517TIP3    H2 7558   3.527   4.029   4.216
 2518TIP3   OH2 7559   5.854   3.820   0.868
 2518TIP3    H1 7560   5.898   3.904   0.852
 2518TIP3    H2 7561   5.921   3.765   0.909
 2519TIP3   OH2 7562   1.564   1.300   4.419
 2519TIP3    H1 7563   1.484   1.323   4.371
 2519TIP3    H2 7564   1.565   1.360   4.493
 2520TIP3   OH2 7565   2.376   0.149   4.569
 2520TIP3    H1 7566   2.374   0.082   4.501
 2520TIP3    H2 7567   2.454   0.130   4.620
 2521TIP3   OH2 7568   0.257   3.559   0.589
 2521TIP3    H1 7569   0.166   3.535   0.607
 2521TIP3    H2 7570   0.307   3.480   0.610
 2522TIP3   OH2 7571   1.292   0.290   1.966
 2522TIP3    H1 7572   1.244   0.352   2.021
 2522TIP3    H2 7573   1.375   0.277   2.012
 2523TIP3   OH2 7574   6.063   0.934   4.514
 2523TIP3    H1 7575   5.990   0.885   4.476
 2523TIP3    H2 7576   6.112   0.869   4.564
 2524TIP3   OH2 7577   1.597   1.058   5.086
 2524TIP3    H1 7578   1.639   1.117   5.024
 2524TIP3    H2 7579   1.580   0.978   5.036
 2525TIP3   OH2 7580   0.541   0.774   0.910
 2525TIP3    H1 7581   0.448   0.769   0.932
 2525TIP3    H2 7582   0.585   0.776   0.995
 2526TIP3   OH2 7583   0.039   0.178   3.598
 2526TIP3    H1 7584  -0.040   0.231   3.586
 2526TIP3    H2 7585   0.100   0.211   3.532
 2527TIP3   OH2 7586   5.214   5.699   1.346
 2527TIP3    H1 7587   5.242   5.614   1.310
 2527TIP3    H2 7588   5.240   5.695   1.438
 2528TIP3   OH2 7589   0.346   2.622   4.560
 2528TIP3    H1 7590   0.340   2.540   4.511
 2528TIP3    H2 7591   0.294   2.608   4.639
 2529TIP3   OH2 7592   6.182   2.322   3.263
 2529TIP3    H1 7593   6.240   2.376   3.317
 2529TIP3    H2 7594   6.221   2.325   3.176
 2530TIP3   OH2 7595   5.389   0.813   0.377
 2530TIP3    H1 7596   5.389   0.881   0.444
 2530TIP3    H2 7597   5.306   0.767   0.389
 2531TIP3   OH2 7598   4.563   2.046   3.983
 2531TIP3    H1 7599   4.608   2.108   3.925
 2531TIP3    H2 7600   4.572   1.961   3.938
 2532TIP3   OH2 7601   4.737   1.934   2.878
 2532TIP3    H1 7602   4.787   1.985   2.942
 2532TIP3    H2 7603   4.707   1.858   2.927
 2533TIP3   OH2 7604   4.282   5.657   3.369
 2533TIP3    H1 7605   4.247   5.575   3.334
 2533TIP3    H2 7606   4.271   5.650   3.464
 2534TIP3   OH2 7607   5.941   4.518   4.065
 2534TIP3    H1 7608   5.960   4.495   3.974
 2534TIP3    H2 7609   5.887   4.447   4.098
 2535TIP3   OH2 7610   1.900   2.620   4.456
 2535TIP3    H1 7611   1.809   2.614   4.486
 2535TIP3    H2 7612   1.893   2.642   4.363
 2536TIP3   OH2 7613   4.774   3.192   2.268
 2536TIP3    H1 7614   4.837   3.193   2.196
 2536TIP3    H2 7615   4.817   3.142   2.337
 2537TIP3   OH2 7616   2.356   3.630   4.966
 2537TIP3    H1 7617   2.400   3.545   4.955
 2537TIP3    H2 7618   2.263   3.609   4.968
 2538TIP3   OH2 7619   3.732   1.006   1.110
 2538TIP3    H1 7620   3.821   0.988   1.079
 2538TIP3    H2 7621   3.701   1.077   1.055
 2539TIP3   OH2 7622   4.141   1.826   3.753
 2539TIP3    H1 7623   4.137   1.912   3.796
 2539TIP3    H2 7624   4.050   1.798   3.747
 2540TIP3   OH2 7625   0.944   4.625   3.971
 2540TIP3    H1 7626   0.976   4.619   4.060
 2540TIP3    H2 7627   0.938   4.534   3.941
 2541TIP3   OH2 7628   2.182   4.093   0.249
 2541TIP3    H1 7629   2.206   4.126   0.336
 2541TIP3    H2 7630   2.221   4.006   0.245
 2542TIP3   OH2 7631   4.030   5.985   1.075
 2542TIP3    H1 7632   4.117   6.005   1.111
 2542TIP3    H2 7633   4.044   5.907   1.021
 2543TIP3   OH2 7634   5.940   1.644   1.106
 2543TIP3    H1 7635   5.898   1.660   1.191
 2543TIP3    H2 7636   5.925   1.551   1.089
 2544TIP3   OH2 7637   4.346   0.494   1.500
 2544TIP3    H1 7638   4.254   0.489   1.526
 2544TIP3    H2 7639   4.358   0.585   1.473
 2545TIP3   OH2 7640   5.353   2.086   4.765
 2545TIP3    H1 7641   5.390   2.133   4.690
 2545TIP3    H2 7642   5.308   2.153   4.816
 2546TIP3   OH2 7643   1.218   2.064   0.404
 2546TIP3    H1 7644   1.267   2.043   0.483
 2546TIP3    H2 7645   1.282   2.061   0.333
 2547TIP3   OH2 7646   4.340   5.182   3.907
 2547TIP3    H1 7647   4.433   5.180   3.929
 2547TIP3    H2 7648   4.304   5.103   3.947
 2548TIP3   OH2 7649   2.897   4.253   2.866
 2548TIP3    H1 7650   2.922   4.163   2.850
 2548TIP3    H2 7651   2.810   4.262   2.825
 2549TIP3   OH2 7652   1.683   2.297   3.447
 2549TIP3    H1 7653   1.619   2.362   3.476
 2549TIP3    H2 7654   1.758   2.309   3.505
 2550TIP3   OH2 7655   4.265   5.323   2.653
 2550TIP3    H1 7656   4.250   5.278   2.736
 2550TIP3    H2 7657   4.359   5.313   2.636
 2551TIP3   OH2 7658   5.749   4.633   2.676
 2551TIP3    H1 7659   5.769   4.571   2.746
 2551TIP3    H2 7660   5.725   4.713   2.722
 2552TIP3   OH2 7661   0.224   2.272   2.643
 2552TIP3    H1 7662   0.254   2.217   2.716
 2552TIP3    H2 7663   0.204   2.356   2.684
 2553TIP3   OH2 7664   4.326   1.310   3.514
 2553TIP3    H1 7665   4.381   1.387   3.500
 2553TIP3    H2 7666   4.291   1.322   3.603
 2554TIP3   OH2 7667   3.533   0.538   2.415
 2554TIP3    H1 7668   3.525   0.557   2.509
 2554TIP3    H2 7669   3.474   0.465   2.400
 2555TIP3   OH2 7670   5.669   3.104   0.334
 2555TIP3    H1 7671   5.658   3.147   0.250
 2555TIP3    H2 7672   5.698   3.015   0.312
 2556TIP3   OH2 7673   0.377   0.055   1.041
 2556TIP3    H1 7674   0.463   0.018   1.022
 2556TIP3    H2 7675   0.316  -0.017   1.024
 2557TIP3   OH2 7676   2.850   1.405   4.593
 2557TIP3    H1 7677   2.869   1.483   4.645
 2557TIP3    H2 7678   2.789   1.355   4.647
 2558TIP3   OH2 7679   5.341   1.901   2.177
 2558TIP3    H1 7680   5.246   1.891   2.178
 2558TIP3    H2 7681   5.363   1.923   2.087
 2559TIP3   OH2 7682   4.586   5.693   4.900
 2559TIP3    H1 7683   4.570   5.785   4.880
 2559TIP3    H2 7684   4.559   5.646   4.821
 2560TIP3   OH2 7685   5.492   1.265   0.517
 2560TIP3    H1 7686   5.474   1.192   0.458
 2560TIP3    H2 7687   5.587   1.264   0.528
 2561TIP3   OH2 7688   0.100   5.104   2.179
 2561TIP3    H1 7689   0.114   5.184   2.229
 2561TIP3    H2 7690   0.040   5.129   2.109
 2562TIP3   OH2 7691   2.481   3.038   3.557
 2562TIP3    H1 7692   2.464   3.025   3.463
 2562TIP3    H2 7693   2.399   3.011   3.599
 2563TIP3   OH2 7694   5.332   2.159   0.826
 2563TIP3    H1 7695   5.288   2.216   0.890
 2563TIP3    H2 7696   5.293   2.184   0.742
 2564TIP3   OH2 7697   0.439   1.618   1.767
 2564TIP3    H1 7698   0.469   1.527   1.775
 2564TIP3    H2 7699   0.356   1.612   1.719
 2565TIP3   OH2 7700   0.245   2.285   0.308
 2565TIP3    H1 7701   0.234   2.319   0.219
 2565TIP3    H2 7702   0.157   2.264   0.337
 2566TIP3   OH2 7703   5.880   1.451   0.130
 2566TIP3    H1 7704   5.878   1.383   0.063
 2566TIP3    H2 7705   5.823   1.419   0.199
 2567TIP3   OH2 7706   4.148   1.463   2.921
 2567TIP3    H1 7707   4.229   1.499   2.885
 2567TIP3    H2 7708   4.132   1.383   2.871
 2568TIP3   OH2 7709   3.647   1.323   2.778
 2568TIP3    H1 7710   3.683   1.363   2.698
 2568TIP3    H2 7711   3.623   1.234   2.751
 2569TIP3   OH2 7712   5.306   5.154   2.261
 2569TIP3    H1 7713   5.301   5.208   2.340
 2569TIP3    H2 7714   5.331   5.067   2.293
 2570TIP3   OH2 7715   4.660   4.908   4.640
 2570TIP3    H1 7716   4.715   4.973   4.684
 2570TIP3    H2 7717   4.628   4.952   4.561
 2571TIP3   OH2 7718   5.208   3.768   3.159
 2571TIP3    H1 7719   5.127   3.718   3.150
 2571TIP3    H2 7720   5.271   3.722   3.103
 2572TIP3   OH2 7721   6.142   1.333   0.615
 2572TIP3    H1 7722   6.219   1.334   0.557
 2572TIP3    H2 7723   6.177   1.307   0.700
 2573TIP3   OH2 7724   0.118   2.141   4.065
 2573TIP3    H1 7725   0.069   2.221   4.088
 2573TIP3    H2 7726   0.210   2.166   4.073
 2574TIP3   OH2 7727   0.888   3.443   1.940
 2574TIP3    H1 7728   0.915   3.446   2.032
 2574TIP3    H2 7729   0.885   3.535   1.913
 2575TIP3   OH2 7730   5.517   0.862   0.942
 2575TIP3    H1 7731   5.462   0.784   0.956
 2575TIP3    H2 7732   5.599   0.827   0.907
 2576TIP3   OH2 7733   0.998   5.501   3.376
 2576TIP3    H1 7734   1.080   5.458   3.403
 2576TIP3    H2 7735   1.020   5.544   3.294
 2577TIP3   OH2 7736   2.796   3.606   1.950
 2577TIP3    H1 7737   2.842   3.684   1.920
 2577TIP3    H2 7738   2.707   3.635   1.966
 2578TIP3   OH2 7739   5.053   4.507   0.498
 2578TIP3    H1 7740   5.034   4.414   0.511
 2578TIP3    H2 7741   5.127   4.525   0.557
 2579TIP3   OH2 7742   3.130   0.638   2.265
 2579TIP3    H1 7743   3.069   0.668   2.197
 2579TIP3    H2 7744   3.075   0.611   2.338
 2580TIP3   OH2 7745   5.860   3.266   5.038
 2580TIP3    H1 7746   5.934   3.225   5.083
 2580TIP3    H2 7747   5.860   3.356   5.070
 2581TIP3   OH2 7748   3.403   0.747   1.826
 2581TIP3    H1 7749   3.342   0.819   1.808
 2581TIP3    H2 7750   3.450   0.774   1.905
 2582TIP3   OH2 7751   1.792   0.114   0.802
 2582TIP3    H1 7752   1.762   0.161   0.880
 2582TIP3    H2 7753   1.873   0.071   0.830
 2583TIP3   OH2 7754   0.925   4.327   3.969
 2583TIP3    H1 7755   0.864   4.254   3.976
 2583TIP3    H2 7756   0.988   4.312   4.039
 2584TIP3   OH2 7757   4.552   1.672   0.361
 2584TIP3    H1 7758   4.572   1.765   0.367
 2584TIP3    H2 7759   4.456   1.668   0.351
 2585TIP3   OH2 7760   1.838   2.570   4.177
 2585TIP3    H1 7761   1.883   2.486   4.181
 2585TIP3    H2 7762   1.823   2.584   4.083
 2586TIP3   OH2 7763   0.489   3.463   1.531
 2586TIP3    H1 7764   0.428   3.391   1.546
 2586TIP3    H2 7765   0.575   3.424   1.541
 2587TIP3   OH2 7766   4.914   0.465   2.314
 2587TIP3    H1 7767   4.823   0.496   2.307
 2587TIP3    H2 7768   4.961   0.537   2.355
 2588TIP3   OH2 7769   2.488   2.287   4.307
 2588TIP3    H1 7770   2.466   2.247   4.390
 2588TIP3    H2 7771   2.405   2.324   4.275
 2589TIP3   OH2 7772   6.292   1.315   3.188
 2589TIP3    H1 7773   6.316   1.280   3.274
 2589TIP3    H2 7774   6.230   1.385   3.208
 2590TIP3   OH2 7775   5.203   1.036   3.386
 2590TIP3    H1 7776   5.177   0.944   3.385
 2590TIP3    H2 7777   5.187   1.065   3.296
 2591TIP3   OH2 7778   2.067   1.936   1.804
 2591TIP3    H1 7779   1.990   1.880   1.787
 2591TIP3    H2 7780   2.031   2.025   1.809
 2592TIP3   OH2 7781   0.734   0.262   2.993
 2592TIP3    H1 7782   0.673   0.300   2.929
 2592TIP3    H2 7783   0.793   0.208   2.940
 2593TIP3   OH2 7784   5.584   1.944   4.361
 2593TIP3    H1 7785   5.518   1.892   4.408
 2593TIP3    H2 7786   5.547   2.032   4.356
 2594TIP3   OH2 7787   1.512   3.990   4.832
 2594TIP3    H1 7788   1.442   3.938   4.872
 2594TIP3    H2 7789   1.479   4.080   4.833
 2595TIP3   OH2 7790   0.588   0.239   0.214
 2595TIP3    H1 7791   0.614   0.165   0.269
 2595TIP3    H2 7792   0.493   0.245   0.225
 2596TIP3   OH2 7793   6.035   2.397   3.675
 2596TIP3    H1 7794   6.057   2.474   3.726
 2596TIP3    H2 7795   6.100   2.332   3.699
 2597TIP3   OH2 7796   0.175   3.067   0.015
 2597TIP3    H1 7797   0.163   3.000  -0.052
 2597TIP3    H2 7798   0.087   3.090   0.043
 2598TIP3   OH2 7799   1.743   0.255   1.883
 2598TIP3    H1 7800   1.725   0.177   1.936
 2598TIP3    H2 7801   1.670   0.259   1.821
 2599TIP3   OH2 7802   2.868   4.427   0.519
 2599TIP3    H1 7803   2.873   4.383   0.604
 2599TIP3    H2 7804   2.816   4.368   0.465
 2600TIP3   OH2 7805   1.524   0.982   3.809
 2600TIP3    H1 7806   1.522   0.937   3.894
 2600TIP3    H2 7807   1.489   1.069   3.827
 2601TIP3   OH2 7808   4.728   5.753   2.064
 2601TIP3    H1 7809   4.663   5.700   2.017
 2601TIP3    H2 7810   4.724   5.839   2.022
 2602TIP3   OH2 7811   0.573   2.786   4.564
 2602TIP3    H1 7812   0.610   2.733   4.493
 2602TIP3    H2 7813   0.481   2.762   4.565
 2603TIP3   OH2 7814   1.224   2.377   0.535
 2603TIP3    H1 7815   1.269   2.415   0.460
 2603TIP3    H2 7816   1.245   2.283   0.531
 2604TIP3   OH2 7817   2.087   2.192   3.334
 2604TIP3    H1 7818   2.117   2.123   3.275
 2604TIP3    H2 7819   2.079   2.270   3.279
 2605TIP3   OH2 7820   0.730   4.987   2.486
 2605TIP3    H1 7821   0.650   4.937   2.503
 2605TIP3    H2 7822   0.746   4.976   2.393
 2606TIP3   OH2 7823   1.673   4.167   3.185
 2606TIP3    H1 7824   1.637   4.254   3.202
 2606TIP3    H2 7825   1.604   4.121   3.138
 2607TIP3   OH2 7826   3.309   3.731   2.846
 2607TIP3    H1 7827   3.303   3.658   2.908
 2607TIP3    H2 7828   3.367   3.698   2.777
 2608TIP3   OH2 7829   4.594   4.691   3.647
 2608TIP3    H1 7830   4.524   4.688   3.712
 2608TIP3    H2 7831   4.558   4.745   3.576
 2609TIP3   OH2 7832   5.120   4.030   1.765
 2609TIP3    H1 7833   5.039   4.013   1.717
 2609TIP3    H2 7834   5.187   4.040   1.697
 2610TIP3   OH2 7835   1.924   1.163   1.671
 2610TIP3    H1 7836   1.975   1.151   1.591
 2610TIP3    H2 7837   1.953   1.091   1.728
 2611TIP3   OH2 7838   0.802   2.185   3.372
 2611TIP3    H1 7839   0.837   2.269   3.342
 2611TIP3    H2 7840   0.879   2.137   3.403
 2612TIP3   OH2 7841   2.883   0.954   2.844
 2612TIP3    H1 7842   2.948   0.894   2.880
 2612TIP3    H2 7843   2.870   1.020   2.912
 2613TIP3   OH2 7844   2.478   2.655   4.201
 2613TIP3    H1 7845   2.558   2.619   4.164
 2613TIP3    H2 7846   2.454   2.725   4.140
 2614TIP3   OH2 7847   4.740   2.435   1.495
 2614TIP3    H1 7848   4.801   2.480   1.553
 2614TIP3    H2 7849   4.752   2.342   1.515
 2615TIP3   OH2 7850   3.011   1.968   3.140
 2615TIP3    H1 7851   3.090   1.915   3.141
 2615TIP3    H2 7852   3.021   2.024   3.064
 2616TIP3   OH2 7853   1.385   1.327   0.871
 2616TIP3    H1 7854   1.306   1.356   0.916
 2616TIP3    H2 7855   1.456   1.351   0.930
 2617TIP3   OH2 7856   5.109   1.945   1.024
 2617TIP3    H1 7857   5.107   1.851   1.009
 2617TIP3    H2 7858   5.180   1.958   1.088
 2618TIP3   OH2 7859   4.142   4.506   3.091
 2618TIP3    H1 7860   4.142   4.414   3.117
 2618TIP3    H2 7861   4.102   4.507   3.004
 2619TIP3   OH2 7862   0.820   5.936   2.179
 2619TIP3    H1 7863   0.863   6.020   2.162
 2619TIP3    H2 7864   0.812   5.932   2.274
 2620TIP3   OH2 7865   4.421   3.869   4.931
 2620TIP3    H1 7866   4.394   3.832   5.015
 2620TIP3    H2 7867   4.505   3.827   4.913
 2621TIP3   OH2 7868   2.080   0.264   4.663
 2621TIP3    H1 7869   2.132   0.184   4.663
 2621TIP3    H2 7870   2.092   0.299   4.752
 2622TIP3   OH2 7871   0.683   2.293   2.899
 2622TIP3    H1 7872   0.723   2.227   2.955
 2622TIP3    H2 7873   0.740   2.369   2.907
 2623TIP3   OH2 7874   4.787   1.386   3.547
 2623TIP3    H1 7875   4.715   1.326   3.525
 2623TIP3    H2 7876   4.760   1.427   3.629
 2624TIP3   OH2 7877   5.739   4.717   4.186
 2624TIP3    H1 7878   5.815   4.659   4.189
 2624TIP3    H2 7879   5.666   4.662   4.212
 2625TIP3   OH2 7880   0.214   4.394   3.623
 2625TIP3    H1 7881   0.150   4.463   3.609
 2625TIP3    H2 7882   0.298   4.439   3.630
 2626TIP3   OH2 7883   0.914   0.080   2.369
 2626TIP3    H1 7884   1.009   0.082   2.375
 2626TIP3    H2 7885   0.885   0.156   2.419
 2627TIP3   OH2 7886   0.793   0.092   1.322
 2627TIP3    H1 7887   0.711   0.140   1.334
 2627TIP3    H2 7888   0.779   0.009   1.369
 2628TIP3   OH2 7889   2.130   1.526   3.222
 2628TIP3    H1 7890   2.083   1.595   3.175
 2628TIP3    H2 7891   2.084   1.517   3.305
 2629TIP3   OH2 7892   3.657   2.660   1.705
 2629TIP3    H1 7893   3.621   2.749   1.700
 2629TIP3    H2 7894   3.689   2.642   1.617
 2630TIP3   OH2 7895   0.554   1.434   1.493
 2630TIP3    H1 7896   0.640   1.453   1.531
 2630TIP3    H2 7897   0.574   1.377   1.419
 2631TIP3   OH2 7898   3.922   3.339   4.115
 2631TIP3    H1 7899   3.920   3.298   4.202
 2631TIP3    H2 7900   3.969   3.421   4.129
 2632TIP3   OH2 7901   0.852   0.641   4.802
 2632TIP3    H1 7902   0.852   0.619   4.709
 2632TIP3    H2 7903   0.782   0.706   4.811
 2633TIP3   OH2 7904   1.859   5.554   0.737
 2633TIP3    H1 7905   1.830   5.597   0.656
 2633TIP3    H2 7906   1.864   5.625   0.801
 2634TIP3   OH2 7907   5.428   1.964   1.925
 2634TIP3    H1 7908   5.410   2.034   1.862
 2634TIP3    H2 7909   5.523   1.964   1.933
 2635TIP3   OH2 7910   1.051   0.102   3.679
 2635TIP3    H1 7911   1.086   0.188   3.655
 2635TIP3    H2 7912   0.956   0.112   3.669
 2636TIP3   OH2 7913   6.273   4.154   1.593
 2636TIP3    H1 7914   6.266   4.059   1.587
 2636TIP3    H2 7915   6.367   4.171   1.605
 2637TIP3   OH2 7916   4.939   5.191   3.819
 2637TIP3    H1 7917   4.951   5.259   3.753
 2637TIP3    H2 7918   4.887   5.124   3.775
 2638TIP3   OH2 7919   5.070   0.916   1.367
 2638TIP3    H1 7920   4.995   0.903   1.308
 2638TIP3    H2 7921   5.136   0.958   1.311
 2639TIP3   OH2 7922   3.829   5.715   4.057
 2639TIP3    H1 7923   3.800   5.784   3.997
 2639TIP3    H2 7924   3.756   5.653   4.059
 2640TIP3   OH2 7925   1.173   0.603   0.522
 2640TIP3    H1 7926   1.114   0.588   0.448
 2640TIP3    H2 7927   1.123   0.573   0.598
 2641TIP3   OH2 7928   0.815   3.531   3.745
 2641TIP3    H1 7929   0.778   3.596   3.805
 2641TIP3    H2 7930   0.817   3.575   3.660
 2642TIP3   OH2 7931   4.240   5.280   0.397
 2642TIP3    H1 7932   4.315   5.234   0.435
 2642TIP3    H2 7933   4.274   5.366   0.374
 2643TIP3   OH2 7934   4.899   0.979   2.756
 2643TIP3    H1 7935   4.988   0.946   2.746
 2643TIP3    H2 7936   4.892   1.003   2.848
 2644TIP3   OH2 7937   4.009   0.419   3.329
 2644TIP3    H1 7938   4.054   0.351   3.379
 2644TIP3    H2 7939   4.016   0.497   3.384
 2645TIP3   OH2 7940   6.076   1.594   2.779
 2645TIP3    H1 7941   6.077   1.627   2.869
 2645TIP3    H2 7942   6.081   1.672   2.725
 2646TIP3   OH2 7943   1.844   3.739   3.821
 2646TIP3    H1 7944   1.840   3.777   3.733
 2646TIP3    H2 7945   1.753   3.718   3.843
 2647TIP3   OH2 7946   4.073   4.469   1.114
 2647TIP3    H1 7947   4.154   4.512   1.142
 2647TIP3    H2 7948   4.078   4.382   1.152
 2648TIP3   OH2 7949   5.451   2.604   2.315
 2648TIP3    H1 7950   5.491   2.675   2.265
 2648TIP3    H2 7951   5.382   2.570   2.258
 2649TIP3   OH2 7952   4.849   3.404   4.120
 2649TIP3    H1 7953   4.907   3.347   4.170
 2649TIP3    H2 7954   4.774   3.350   4.097
 2650TIP3   OH2 7955   2.903   0.294   1.224
 2650TIP3    H1 7956   2.953   0.317   1.146
 2650TIP3    H2 7957   2.811   0.298   1.196
 2651TIP3   OH2 7958   5.299   5.683   3.616
 2651TIP3    H1 7959   5.356   5.748   3.659
 2651TIP3    H2 7960   5.360   5.627   3.568
 2652TIP3   OH2 7961   5.141   3.259   5.077
 2652TIP3    H1 7962   5.048   3.275   5.094
 2652TIP3    H2 7963   5.185   3.287   5.158
 2653TIP3   OH2 7964   5.936   1.954   1.918
 2653TIP3    H1 7965   6.008   2.016   1.923
 2653TIP3    H2 7966   5.977   1.869   1.931
 2654TIP3   OH2 7967   4.369   3.870   2.920
 2654TIP3    H1 7968   4.415   3.951   2.901
 2654TIP3    H2 7969   4.394   3.848   3.010
 2655TIP3   OH2 7970   5.061   3.782   0.467
 2655TIP3    H1 7971   5.117   3.845   0.421
 2655TIP3    H2 7972   5.038   3.826   0.549
 2656TIP3   OH2 7973   5.535   5.081   4.135
 2656TIP3    H1 7974   5.532   5.155   4.074
 2656TIP3    H2 7975   5.480   5.014   4.094
 2657TIP3   OH2 7976   0.355   0.926   5.088
 2657TIP3    H1 7977   0.290   0.907   5.019
 2657TIP3    H2 7978   0.406   0.999   5.054
 2658TIP3   OH2 7979   4.042   4.944   4.640
 2658TIP3    H1 7980   4.106   4.963   4.709
 2658TIP3    H2 7981   4.044   4.848   4.632
 2659TIP3   OH2 7982   6.203   5.140   4.003
 2659TIP3    H1 7983   6.127   5.086   4.026
 2659TIP3    H2 7984   6.253   5.147   4.084
 2660TIP3   OH2 7985   2.552   4.019   3.718
 2660TIP3    H1 7986   2.561   3.981   3.806
 2660TIP3    H2 7987   2.463   4.053   3.716
 2661TIP3   OH2 7988   0.730   4.993   1.538
 2661TIP3    H1 7989   0.826   4.996   1.536
 2661TIP3    H2 7990   0.707   5.052   1.610
 2662TIP3   OH2 7991   3.083   3.408   3.957
 2662TIP3    H1 7992   3.036   3.488   3.932
 2662TIP3    H2 7993   3.075   3.404   4.052
 2663TIP3   OH2 7994   6.255   3.851   4.747
 2663TIP3    H1 7995   6.180   3.814   4.701
 2663TIP3    H2 7996   6.271   3.790   4.820
 2664TIP3   OH2 7997   2.214   3.969   4.861
 2664TIP3    H1 7998   2.198   4.046   4.915
 2664TIP3    H2 7999   2.139   3.911   4.879
 2665TIP3   OH2 8000   3.070   2.951   0.813
 2665TIP3    H1 8001   3.111   3.020   0.865
 2665TIP3    H2 8002   3.005   2.997   0.760
 2666TIP3   OH2 8003   5.142   5.871   0.586
 2666TIP3    H1 8004   5.189   5.803   0.537
 2666TIP3    H2 8005   5.157   5.849   0.678
 2667TIP3   OH2 8006   4.573   5.740   2.922
 2667TIP3    H1 8007   4.634   5.809   2.895
 2667TIP3    H2 8008   4.544   5.700   2.840
 2668TIP3   OH2 8009   4.142   4.491   4.880
 2668TIP3    H1 8010   4.232   4.462   4.899
 2668TIP3    H2 8011   4.119   4.546   4.955
 2669TIP3   OH2 8012   3.277   0.174   4.543
 2669TIP3    H1 8013   3.214   0.152   4.612
 2669TIP3    H2 8014   3.280   0.096   4.487
 2670TIP3   OH2 8015   2.886   3.233   3.735
 2670TIP3    H1 8016   2.824   3.274   3.796
 2670TIP3    H2 8017   2.884   3.140   3.757
 2671TIP3   OH2 8018   2.179   1.314   3.056
 2671TIP3    H1 8019   2.191   1.396   3.104
 2671TIP3    H2 8020   2.095   1.324   3.012
 2672TIP3   OH2 8021   0.681   1.480   4.137
 2672TIP3    H1 8022   0.754   1.470   4.077
 2672TIP3    H2 8023   0.646   1.568   4.120
 2673TIP3   OH2 8024   4.752   5.079   1.199
 2673TIP3    H1 8025   4.778   5.121   1.117
 2673TIP3    H2 8026   4.834   5.055   1.241
 2674TIP3   OH2 8027   2.220   2.867   4.811
 2674TIP3    H1 8028   2.242   2.938   4.871
 2674TIP3    H2 8029   2.302   2.847   4.766
 2675TIP3   OH2 8030   5.508   2.269   2.005
 2675TIP3    H1 8031   5.572   2.280   1.935
 2675TIP3    H2 8032   5.454   2.195   1.977
 2676TIP3   OH2 8033   2.545   3.123   4.435
 2676TIP3    H1 8034   2.521   3.142   4.525
 2676TIP3    H2 8035   2.476   3.163   4.382
 2677TIP3   OH2 8036   1.475   3.064   2.119
 2677TIP3    H1 8037   1.489   2.969   2.115
 2677TIP3    H2 8038   1.482   3.092   2.027
 2678TIP3   OH2 8039   4.085   0.470   3.050
 2678TIP3    H1 8040   4.167   0.420   3.051
 2678TIP3    H2 8041   4.061   0.478   3.142
 2679TIP3   OH2 8042   1.575   3.610   4.530
 2679TIP3    H1 8043   1.489   3.651   4.532
 2679TIP3    H2 8044   1.631   3.669   4.582
 2680TIP3   OH2 8045   1.171   3.407   0.991
 2680TIP3    H1 8046   1.226   3.331   0.976
 2680TIP3    H2 8047   1.151   3.441   0.904
 2681TIP3   OH2 8048   2.436   3.573   4.550
 2681TIP3    H1 8049   2.365   3.627   4.515
 2681TIP3    H2 8050   2.514   3.604   4.504
 2682TIP3   OH2 8051   3.131   5.417   4.785
 2682TIP3    H1 8052   3.078   5.426   4.864
 2682TIP3    H2 8053   3.084   5.353   4.732
 2683TIP3   OH2 8054   5.449   3.416   4.497
 2683TIP3    H1 8055   5.440   3.322   4.480
 2683TIP3    H2 8056   5.440   3.424   4.592
 2684TIP3   OH2 8057   2.408   1.357   3.485
 2684TIP3    H1 8058   2.485   1.335   3.433
 2684TIP3    H2 8059   2.385   1.276   3.530
 2685TIP3   OH2 8060   2.374   4.327   0.725
 2685TIP3    H1 8061   2.447   4.315   0.785
 2685TIP3    H2 8062   2.413   4.366   0.647
 2686TIP3   OH2 8063   4.442   2.592   0.999
 2686TIP3    H1 8064   4.515   2.641   1.037
 2686TIP3    H2 8065   4.429   2.519   1.059
 2687TIP3   OH2 8066   2.841   0.040   0.849
 2687TIP3    H1 8067   2.805   0.074   0.768
 2687TIP3    H2 8068   2.912   0.101   0.870
 2688TIP3   OH2 8069   2.749   1.862   0.139
 2688TIP3    H1 8070   2.686   1.896   0.075
 2688TIP3    H2 8071   2.812   1.813   0.086
 2689TIP3   OH2 8072   2.057   5.822   3.545
 2689TIP3    H1 8073   2.104   5.807   3.627
 2689TIP3    H2 8074   2.119   5.872   3.491
 2690TIP3   OH2 8075   4.984   5.924   1.729
 2690TIP3    H1 8076   4.985   6.008   1.684
 2690TIP3    H2 8077   5.071   5.916   1.768
 2691TIP3   OH2 8078   0.955   4.551   4.620
 2691TIP3    H1 8079   1.029   4.497   4.647
 2691TIP3    H2 8080   0.887   4.489   4.595
 2692TIP3   OH2 8081   1.044   1.348   4.416
 2692TIP3    H1 8082   1.026   1.300   4.497
 2692TIP3    H2 8083   0.999   1.299   4.348
 2693TIP3   OH2 8084   1.905   0.349   0.629
 2693TIP3    H1 8085   1.989   0.317   0.594
 2693TIP3    H2 8086   1.866   0.272   0.670
 2694TIP3   OH2 8087   3.754   1.573   0.390
 2694TIP3    H1 8088   3.765   1.659   0.429
 2694TIP3    H2 8089   3.843   1.540   0.378
 2695TIP3   OH2 8090   4.338   3.389   4.494
 2695TIP3    H1 8091   4.260   3.350   4.534
 2695TIP3    H2 8092   4.335   3.481   4.520
 2696TIP3   OH2 8093   4.198   0.658   3.263
 2696TIP3    H1 8094   4.176   0.747   3.238
 2696TIP3    H2 8095   4.230   0.618   3.183
 2697TIP3   OH2 8096   0.207   4.207   2.962
 2697TIP3    H1 8097   0.265   4.212   2.886
 2697TIP3    H2 8098   0.265   4.193   3.037
 2698TIP3   OH2 8099   3.648   0.181   1.334
 2698TIP3    H1 8100   3.603   0.155   1.415
 2698TIP3    H2 8101   3.578   0.211   1.277
 2699TIP3   OH2 8102   0.929   4.556   5.031
 2699TIP3    H1 8103   0.965   4.640   5.001
 2699TIP3    H2 8104   1.006   4.500   5.042
 2700TIP3   OH2 8105   2.654   3.672   4.047
 2700TIP3    H1 8106   2.705   3.730   4.104
 2700TIP3    H2 8107   2.571   3.661   4.093
 2701TIP3   OH2 8108   5.632   2.398   4.122
 2701TIP3    H1 8109   5.668   2.315   4.094
 2701TIP3    H2 8110   5.607   2.443   4.041
 2702TIP3   OH2 8111   5.189   4.025   2.990
 2702TIP3    H1 8112   5.274   3.983   2.975
 2702TIP3    H2 8113   5.160   3.991   3.075
 2703TIP3   OH2 8114   0.233   0.970   3.701
 2703TIP3    H1 8115   0.205   1.028   3.630
 2703TIP3    H2 8116   0.263   1.029   3.770
 2704TIP3   OH2 8117   3.537   1.964   5.049
 2704TIP3    H1 8118   3.478   1.889   5.044
 2704TIP3    H2 8119   3.618   1.934   5.007
 2705TIP3   OH2 8120   1.557   3.096   2.423
 2705TIP3    H1 8121   1.571   3.135   2.510
 2705TIP3    H2 8122   1.547   3.002   2.440
 2706TIP3   OH2 8123   5.158   3.614   4.752
 2706TIP3    H1 8124   5.253   3.626   4.757
 2706TIP3    H2 8125   5.132   3.668   4.677
 2707TIP3   OH2 8126   5.283   0.225   4.345
 2707TIP3    H1 8127   5.301   0.181   4.428
 2707TIP3    H2 8128   5.366   0.222   4.298
 2708TIP3   OH2 8129   5.665   3.168   4.649
 2708TIP3    H1 8130   5.627   3.153   4.563
 2708TIP3    H2 8131   5.705   3.254   4.644
 2709TIP3   OH2 8132   3.112   5.698   0.015
 2709TIP3    H1 8133   3.043   5.700   0.081
 2709TIP3    H2 8134   3.109   5.785  -0.026
 2710TIP3   OH2 8135   5.199   4.177   3.492
 2710TIP3    H1 8136   5.228   4.268   3.487
 2710TIP3    H2 8137   5.271   4.126   3.455
 2711TIP3   OH2 8138   3.657   5.514   2.336
 2711TIP3    H1 8139   3.726   5.451   2.314
 2711TIP3    H2 8140   3.692   5.598   2.306
 2712TIP3   OH2 8141   2.783   1.674   3.700
 2712TIP3    H1 8142   2.687   1.670   3.694
 2712TIP3    H2 8143   2.799   1.718   3.784
 2713TIP3   OH2 8144   0.311   4.947   5.016
 2713TIP3    H1 8145   0.272   4.870   4.974
 2713TIP3    H2 8146   0.350   4.913   5.097
 2714TIP3   OH2 8147   2.742   3.934   3.138
 2714TIP3    H1 8148   2.686   3.866   3.176
 2714TIP3    H2 8149   2.756   3.997   3.209
 2715TIP3   OH2 8150   5.883   4.727   2.475
 2715TIP3    H1 8151   5.823   4.798   2.450
 2715TIP3    H2 8152   5.837   4.680   2.545
 2716TIP3   OH2 8153   3.736   0.726   3.969
 2716TIP3    H1 8154   3.751   0.810   3.927
 2716TIP3    H2 8155   3.764   0.739   4.060
 2717TIP3   OH2 8156   2.690   2.004   5.048
 2717TIP3    H1 8157   2.649   1.930   5.094
 2717TIP3    H2 8158   2.779   1.975   5.031
 2718TIP3   OH2 8159   1.064   2.404   2.074
 2718TIP3    H1 8160   1.010   2.482   2.062
 2718TIP3    H2 8161   1.010   2.332   2.042
 2719TIP3   OH2 8162   1.069   4.619   2.434
 2719TIP3    H1 8163   1.098   4.709   2.446
 2719TIP3    H2 8164   0.975   4.627   2.414
 2720TIP3   OH2 8165   4.522   5.448   2.423
 2720TIP3    H1 8166   4.590   5.388   2.393
 2720TIP3    H2 8167   4.537   5.456   2.517
 2721TIP3   OH2 8168   3.191   3.162   3.920
 2721TIP3    H1 8169   3.153   3.110   3.849
 2721TIP3    H2 8170   3.149   3.248   3.911
 2722TIP3   OH2 8171   1.599   0.184   2.452
 2722TIP3    H1 8172   1.636   0.266   2.482
 2722TIP3    H2 8173   1.511   0.182   2.489
 2723TIP3   OH2 8174   4.184   1.969   0.660
 2723TIP3    H1 8175   4.182   2.042   0.722
 2723TIP3    H2 8176   4.277   1.959   0.637
 2724TIP3   OH2 8177   2.524   2.338   1.535
 2724TIP3    H1 8178   2.476   2.392   1.598
 2724TIP3    H2 8179   2.578   2.399   1.486
 2725TIP3   OH2 8180   6.084   4.317   3.843
 2725TIP3    H1 8181   6.163   4.268   3.819
 2725TIP3    H2 8182   6.053   4.275   3.923
 2726TIP3   OH2 8183   5.199   5.747   0.231
 2726TIP3    H1 8184   5.185   5.685   0.303
 2726TIP3    H2 8185   5.251   5.697   0.167
 2727TIP3   OH2 8186   2.857   2.218   4.780
 2727TIP3    H1 8187   2.854   2.260   4.866
 2727TIP3    H2 8188   2.871   2.291   4.719
 2728TIP3   OH2 8189   0.268   3.771   0.376
 2728TIP3    H1 8190   0.329   3.742   0.308
 2728TIP3    H2 8191   0.256   3.694   0.432
 2729TIP3   OH2 8192   1.510   5.372   4.630
 2729TIP3    H1 8193   1.460   5.454   4.636
 2729TIP3    H2 8194   1.493   5.340   4.541
 2730TIP3   OH2 8195   0.846   4.714   4.793
 2730TIP3    H1 8196   0.762   4.675   4.814
 2730TIP3    H2 8197   0.891   4.648   4.740
 2731TIP3   OH2 8198   1.418   3.208   4.999
 2731TIP3    H1 8199   1.490   3.148   4.979
 2731TIP3    H2 8200   1.375   3.171   5.076
 2732TIP3   OH2 8201   1.745   5.873   1.574
 2732TIP3    H1 8202   1.752   5.884   1.669
 2732TIP3    H2 8203   1.828   5.908   1.540
 2733TIP3   OH2 8204   0.800   4.609   1.344
 2733TIP3    H1 8205   0.890   4.621   1.374
 2733TIP3    H2 8206   0.759   4.695   1.356
 2734TIP3   OH2 8207   2.083   3.641   4.071
 2734TIP3    H1 8208   2.120   3.570   4.018
 2734TIP3    H2 8209   2.088   3.609   4.161
 2735TIP3   OH2 8210   3.371   3.510   0.591
 2735TIP3    H1 8211   3.404   3.505   0.501
 2735TIP3    H2 8212   3.432   3.455   0.641
 2736TIP3   OH2 8213   2.978   2.775   1.016
 2736TIP3    H1 8214   2.934   2.704   0.969
 2736TIP3    H2 8215   3.008   2.834   0.947
 2737TIP3   OH2 8216   0.282   2.890   4.346
 2737TIP3    H1 8217   0.295   2.797   4.365
 2737TIP3    H2 8218   0.336   2.935   4.411
 2738TIP3   OH2 8219   0.835   5.676   4.999
 2738TIP3    H1 8220   0.886   5.600   5.027
 2738TIP3    H2 8221   0.863   5.691   4.909
 2739TIP3   OH2 8222   4.786   4.482   2.006
 2739TIP3    H1 8223   4.853   4.415   1.995
 2739TIP3    H2 8224   4.709   4.447   1.960
 2740TIP3   OH2 8225   1.310   4.061   0.572
 2740TIP3    H1 8226   1.237   4.051   0.510
 2740TIP3    H2 8227   1.386   4.079   0.517
 2741TIP3   OH2 8228   0.255   0.109   0.511
 2741TIP3    H1 8229   0.235   0.197   0.544
 2741TIP3    H2 8230   0.283   0.061   0.589
 2742TIP3   OH2 8231   4.443   3.444   3.678
 2742TIP3    H1 8232   4.422   3.358   3.716
 2742TIP3    H2 8233   4.508   3.426   3.611
 2743TIP3   OH2 8234   3.582   2.180   4.349
 2743TIP3    H1 8235   3.578   2.220   4.262
 2743TIP3    H2 8236   3.559   2.251   4.409
 2744TIP3   OH2 8237   5.820   1.579   5.026
 2744TIP3    H1 8238   5.873   1.513   5.070
 2744TIP3    H2 8239   5.744   1.531   4.994
 2745TIP3   OH2 8240   1.747   1.453   1.469
 2745TIP3    H1 8241   1.729   1.525   1.409
 2745TIP3    H2 8242   1.762   1.377   1.412
 2746TIP3   OH2 8243   5.264   4.641   4.373
 2746TIP3    H1 8244   5.272   4.652   4.279
 2746TIP3    H2 8245   5.351   4.660   4.407
 2747TIP3   OH2 8246   0.649   0.553   4.415
 2747TIP3    H1 8247   0.618   0.613   4.483
 2747TIP3    H2 8248   0.613   0.467   4.441
 2748TIP3   OH2 8249   5.436   1.308   3.620
 2748TIP3    H1 8250   5.404   1.321   3.531
 2748TIP3    H2 8251   5.357   1.299   3.674
 2749TIP3   OH2 8252   2.964   1.397   2.451
 2749TIP3    H1 8253   2.871   1.403   2.429
 2749TIP3    H2 8254   2.997   1.325   2.397
 2750TIP3   OH2 8255   4.142   1.738   0.520
 2750TIP3    H1 8256   4.163   1.684   0.596
 2750TIP3    H2 8257   4.116   1.823   0.556
 2751TIP3   OH2 8258   5.708   0.334   1.302
 2751TIP3    H1 8259   5.627   0.375   1.272
 2751TIP3    H2 8260   5.679   0.260   1.356
 2752TIP3   OH2 8261   1.781   0.005   2.860
 2752TIP3    H1 8262   1.691  -0.010   2.888
 2752TIP3    H2 8263   1.775   0.010   2.764
 2753TIP3   OH2 8264   0.209   0.904   0.298
 2753TIP3    H1 8265   0.255   0.862   0.226
 2753TIP3    H2 8266   0.259   0.985   0.314
 2754TIP3   OH2 8267   0.314   2.293   4.894
 2754TIP3    H1 8268   0.399   2.280   4.852
 2754TIP3    H2 8269   0.268   2.209   4.883
 2755TIP3   OH2 8270   1.199   0.558   2.998
 2755TIP3    H1 8271   1.123   0.501   2.994
 2755TIP3    H2 8272   1.230   0.550   3.088
 2756TIP3   OH2 8273   1.238   1.852   4.590
 2756TIP3    H1 8274   1.305   1.806   4.540
 2756TIP3    H2 8275   1.179   1.784   4.621
 2757TIP3   OH2 8276   6.283   5.283   1.020
 2757TIP3    H1 8277   6.242   5.342   0.957
 2757TIP3    H2 8278   6.362   5.329   1.048
 2758TIP3   OH2 8279   3.374   2.985   0.746
 2758TIP3    H1 8280   3.284   2.956   0.762
 2758TIP3    H2 8281   3.364   3.065   0.695
 2759TIP3   OH2 8282   0.824   5.483   3.001
 2759TIP3    H1 8283   0.814   5.515   2.911
 2759TIP3    H2 8284   0.744   5.511   3.045
 2760TIP3   OH2 8285   0.538   2.247   1.959
 2760TIP3    H1 8286   0.554   2.311   1.889
 2760TIP3    H2 8287   0.443   2.243   1.967
 2761TIP3   OH2 8288   3.970   2.467   4.111
 2761TIP3    H1 8289   4.024   2.524   4.056
 2761TIP3    H2 8290   3.881   2.501   4.102
 2762TIP3   OH2 8291   6.111   3.650   0.010
 2762TIP3    H1 8292   6.186   3.681   0.059
 2762TIP3    H2 8293   6.104   3.557   0.033
 2763TIP3   OH2 8294   1.949   0.686   1.053
 2763TIP3    H1 8295   1.872   0.686   0.996
 2763TIP3    H2 8296   1.946   0.771   1.097
 2764TIP3   OH2 8297   5.227   5.410   3.796
 2764TIP3    H1 8298   5.169   5.417   3.720
 2764TIP3    H2 8299   5.194   5.333   3.844
 2765TIP3   OH2 8300   1.718   4.611   1.768
 2765TIP3    H1 8301   1.777   4.557   1.821
 2765TIP3    H2 8302   1.634   4.567   1.772
 2766TIP3   OH2 8303   5.783   5.421   1.834
 2766TIP3    H1 8304   5.721   5.494   1.834
 2766TIP3    H2 8305   5.770   5.379   1.918
 2767TIP3   OH2 8306   5.430   3.637   2.983
 2767TIP3    H1 8307   5.476   3.569   3.033
 2767TIP3    H2 8308   5.454   3.620   2.892
 2768TIP3   OH2 8309   1.860   5.990   0.636
 2768TIP3    H1 8310   1.800   5.947   0.575
 2768TIP3    H2 8311   1.913   5.919   0.672
 2769TIP3   OH2 8312   2.107   4.722   4.973
 2769TIP3    H1 8313   2.125   4.686   5.060
 2769TIP3    H2 8314   2.114   4.817   4.985
 2770TIP3   OH2 8315   4.801   2.537   4.920
 2770TIP3    H1 8316   4.894   2.537   4.944
 2770TIP3    H2 8317   4.778   2.445   4.913
 2771TIP3   OH2 8318   0.520   5.784   2.549
 2771TIP3    H1 8319   0.432   5.749   2.564
 2771TIP3    H2 8320   0.551   5.812   2.635
 2772TIP3   OH2 8321   1.697   1.678   1.318
 2772TIP3    H1 8322   1.657   1.631   1.245
 2772TIP3    H2 8323   1.638   1.751   1.335
 2773TIP3   OH2 8324   1.156   4.248   1.394
 2773TIP3    H1 8325   1.198   4.299   1.324
 2773TIP3    H2 8326   1.079   4.210   1.352
 2774TIP3   OH2 8327   4.094   1.054   2.392
 2774TIP3    H1 8328   4.005   1.020   2.385
 2774TIP3    H2 8329   4.107   1.103   2.311
 2775TIP3   OH2 8330   5.780   3.157   1.718
 2775TIP3    H1 8331   5.730   3.109   1.784
 2775TIP3    H2 8332   5.870   3.154   1.750
 2776TIP3   OH2 8333   2.278   5.721   3.700
 2776TIP3    H1 8334   2.266   5.640   3.651
 2776TIP3    H2 8335   2.244   5.703   3.787
 2777TIP3   OH2 8336   2.837   4.247   4.383
 2777TIP3    H1 8337   2.920   4.209   4.412
 2777TIP3    H2 8338   2.862   4.311   4.317
 2778TIP3   OH2 8339   1.207   3.833   4.164
 2778TIP3    H1 8340   1.127   3.886   4.160
 2778TIP3    H2 8341   1.176   3.743   4.172
 2779TIP3   OH2 8342   2.293   0.889   2.707
 2779TIP3    H1 8343   2.305   0.801   2.744
 2779TIP3    H2 8344   2.364   0.941   2.745
 2780TIP3   OH2 8345   3.049   4.253   4.176
 2780TIP3    H1 8346   3.143   4.269   4.184
 2780TIP3    H2 8347   3.043   4.175   4.121
 2781TIP3   OH2 8348   3.363   4.727   0.428
 2781TIP3    H1 8349   3.359   4.679   0.511
 2781TIP3    H2 8350   3.351   4.819   0.454
 2782TIP3   OH2 8351   4.630   5.713   0.876
 2782TIP3    H1 8352   4.578   5.673   0.945
 2782TIP3    H2 8353   4.605   5.665   0.797
 2783TIP3   OH2 8354   0.739   1.147   0.837
 2783TIP3    H1 8355   0.808   1.137   0.902
 2783TIP3    H2 8356   0.785   1.150   0.753
 2784TIP3   OH2 8357   1.340   5.045   3.294
 2784TIP3    H1 8358   1.329   5.046   3.199
 2784TIP3    H2 8359   1.361   5.136   3.317
 2785TIP3   OH2 8360   0.151   1.046   3.464
 2785TIP3    H1 8361   0.140   1.003   3.379
 2785TIP3    H2 8362   0.063   1.075   3.488
 2786TIP3   OH2 8363   0.048   0.553  -0.007
 2786TIP3    H1 8364  -0.031   0.554   0.048
 2786TIP3    H2 8365   0.120   0.550   0.055
 2787TIP3   OH2 8366   2.347   2.682   2.179
 2787TIP3    H1 8367   2.315   2.633   2.255
 2787TIP3    H2 8368   2.304   2.767   2.186
 2788TIP3   OH2 8369   0.711   2.346   2.135
 2788TIP3    H1 8370   0.755   2.278   2.186
 2788TIP3    H2 8371   0.645   2.298   2.085
 2789TIP3   OH2 8372   5.803   3.627   4.443
 2789TIP3    H1 8373   5.711   3.619   4.416
 2789TIP3    H2 8374   5.834   3.708   4.403
 2790TIP3   OH2 8375   4.243   5.655   2.827
 2790TIP3    H1 8376   4.192   5.734   2.843
 2790TIP3    H2 8377   4.196   5.586   2.874
 2791TIP3   OH2 8378   2.983   2.544   5.142
 2791TIP3    H1 8379   3.003   2.456   5.172
 2791TIP3    H2 8380   3.066   2.592   5.152
 2792TIP3   OH2 8381   6.148   5.162   2.772
 2792TIP3    H1 8382   6.162   5.202   2.858
 2792TIP3    H2 8383   6.056   5.138   2.771
 2793TIP3   OH2 8384   1.488   0.249   0.305
 2793TIP3    H1 8385   1.404   0.257   0.351
 2793TIP3    H2 8386   1.536   0.328   0.329
 2794TIP3   OH2 8387   2.455   0.464   2.022
 2794TIP3    H1 8388   2.443   0.556   2.046
 2794TIP3    H2 8389   2.486   0.467   1.931
 2795TIP3   OH2 8390   4.036   2.570   1.076
 2795TIP3    H1 8391   4.034   2.562   0.981
 2795TIP3    H2 8392   3.943   2.569   1.102
 2796TIP3   OH2 8393   0.550   4.487   0.728
 2796TIP3    H1 8394   0.462   4.518   0.749
 2796TIP3    H2 8395   0.595   4.484   0.813
 2797TIP3   OH2 8396   4.101   0.347   0.154
 2797TIP3    H1 8397   4.007   0.354   0.136
 2797TIP3    H2 8398   4.136   0.298   0.080
 2798TIP3   OH2 8399   6.000   0.680   4.347
 2798TIP3    H1 8400   6.023   0.650   4.258
 2798TIP3    H2 8401   5.947   0.610   4.383
 2799TIP3   OH2 8402   6.334   3.520   4.220
 2799TIP3    H1 8403   6.365   3.607   4.196
 2799TIP3    H2 8404   6.289   3.533   4.304
 2800TIP3   OH2 8405   3.702   5.575   0.338
 2800TIP3    H1 8406   3.737   5.627   0.266
 2800TIP3    H2 8407   3.642   5.633   0.384
 2801TIP3   OH2 8408   5.222   4.955   3.297
 2801TIP3    H1 8409   5.174   4.872   3.294
 2801TIP3    H2 8410   5.279   4.947   3.374
 2802TIP3   OH2 8411   2.772   1.800   3.940
 2802TIP3    H1 8412   2.808   1.788   4.028
 2802TIP3    H2 8413   2.780   1.894   3.924
 2803TIP3   OH2 8414   2.770   3.323   5.051
 2803TIP3    H1 8415   2.789   3.270   4.974
 2803TIP3    H2 8416   2.700   3.382   5.024
 2804TIP3   OH2 8417   3.374   4.586   5.073
 2804TIP3    H1 8418   3.364   4.512   5.132
 2804TIP3    H2 8419   3.467   4.605   5.075
 2805TIP3   OH2 8420   5.324   3.791   1.845
 2805TIP3    H1 8421   5.374   3.868   1.818
 2805TIP3    H2 8422   5.339   3.784   1.939
 2806TIP3   OH2 8423   4.821   3.569   0.299
 2806TIP3    H1 8424   4.870   3.510   0.241
 2806TIP3    H2 8425   4.876   3.577   0.377
 2807TIP3   OH2 8426   0.714   4.183   2.286
 2807TIP3    H1 8427   0.786   4.178   2.222
 2807TIP3    H2 8428   0.662   4.104   2.269
 2808TIP3   OH2 8429   0.996   3.006   2.301
 2808TIP3    H1 8430   1.069   2.947   2.284
 2808TIP3    H2 8431   0.931   2.952   2.346
 2809TIP3   OH2 8432   3.654   0.265   2.669
 2809TIP3    H1 8433   3.679   0.356   2.657
 2809TIP3    H2 8434   3.678   0.222   2.587
 2810TIP3   OH2 8435   5.885   4.295   3.641
 2810TIP3    H1 8436   5.936   4.314   3.562
 2810TIP3    H2 8437   5.951   4.279   3.708
 2811TIP3   OH2 8438   3.229   0.104   0.415
 2811TIP3    H1 8439   3.236   0.199   0.409
 2811TIP3    H2 8440   3.145   0.083   0.373
 2812TIP3   OH2 8441   5.061   3.508   0.509
 2812TIP3    H1 8442   5.091   3.595   0.536
 2812TIP3    H2 8443   5.119   3.483   0.437
 2813TIP3   OH2 8444   0.727   0.829   4.082
 2813TIP3    H1 8445   0.658   0.881   4.123
 2813TIP3    H2 8446   0.803   0.842   4.139
 2814TIP3   OH2 8447   4.301   0.911   0.938
 2814TIP3    H1 8448   4.329   0.888   1.027
 2814TIP3    H2 8449   4.252   0.835   0.908
 2815TIP3   OH2 8450   4.653   0.825   5.045
 2815TIP3    H1 8451   4.636   0.734   5.069
 2815TIP3    H2 8452   4.566   0.864   5.037
 2816TIP3   OH2 8453   3.412   2.047   2.998
 2816TIP3    H1 8454   3.351   1.975   2.981
 2816TIP3    H2 8455   3.374   2.093   3.073
 2817TIP3   OH2 8456   1.320   3.819   1.545
 2817TIP3    H1 8457   1.337   3.769   1.465
 2817TIP3    H2 8458   1.306   3.909   1.515
 2818TIP3   OH2 8459   3.371   2.134   2.229
 2818TIP3    H1 8460   3.380   2.227   2.248
 2818TIP3    H2 8461   3.339   2.096   2.311
 2819TIP3   OH2 8462   6.122   0.773   0.484
 2819TIP3    H1 8463   6.071   0.726   0.550
 2819TIP3    H2 8464   6.172   0.838   0.535
 2820TIP3   OH2 8465   2.115   3.693   3.732
 2820TIP3    H1 8466   2.165   3.773   3.748
 2820TIP3    H2 8467   2.031   3.708   3.774
 2821TIP3   OH2 8468   4.418   3.779   3.427
 2821TIP3    H1 8469   4.403   3.716   3.498
 2821TIP3    H2 8470   4.457   3.855   3.470
 2822TIP3   OH2 8471   1.528   4.921   0.665
 2822TIP3    H1 8472   1.478   4.994   0.703
 2822TIP3    H2 8473   1.554   4.952   0.579
 2823TIP3   OH2 8474   4.276   4.338   4.105
 2823TIP3    H1 8475   4.258   4.285   4.182
 2823TIP3    H2 8476   4.217   4.304   4.038
 2824TIP3   OH2 8477   5.667   3.680   4.158
 2824TIP3    H1 8478   5.628   3.679   4.071
 2824TIP3    H2 8479   5.599   3.646   4.216
 2825TIP3   OH2 8480   3.646   1.042   2.625
 2825TIP3    H1 8481   3.640   1.105   2.554
 2825TIP3    H2 8482   3.592   0.968   2.596
 2826TIP3   OH2 8483   5.153   5.664   1.857
 2826TIP3    H1 8484   5.141   5.686   1.949
 2826TIP3    H2 8485   5.100   5.585   1.844
 2827TIP3   OH2 8486   0.296   5.282   1.382
 2827TIP3    H1 8487   0.259   5.327   1.458
 2827TIP3    H2 8488   0.239   5.309   1.309
 2828TIP3   OH2 8489   0.824   3.764   3.606
 2828TIP3    H1 8490   0.730   3.784   3.610
 2828TIP3    H2 8491   0.867   3.850   3.608
 2829TIP3   OH2 8492  -0.033   4.061   0.626
 2829TIP3    H1 8493   0.047   4.059   0.679
 2829TIP3    H2 8494  -0.004   4.034   0.539
 2830TIP3   OH2 8495   3.541   3.557   4.913
 2830TIP3    H1 8496   3.461   3.530   4.869
 2830TIP3    H2 8497   3.519   3.559   5.006
 2831TIP3   OH2 8498   3.619   4.121   5.163
 2831TIP3    H1 8499   3.679   4.046   5.160
 2831TIP3    H2 8500   3.536   4.086   5.131
 2832TIP3   OH2 8501   4.511   1.700   3.262
 2832TIP3    H1 8502   4.561   1.779   3.284
 2832TIP3    H2 8503   4.420   1.724   3.281
 2833TIP3   OH2 8504   1.589   1.780   3.628
 2833TIP3    H1 8505   1.560   1.689   3.629
 2833TIP3    H2 8506   1.537   1.823   3.695
 2834TIP3   OH2 8507   4.911   5.696   4.770
 2834TIP3    H1 8508   4.978   5.708   4.837
 2834TIP3    H2 8509   4.832   5.675   4.819
 2835TIP3   OH2 8510   5.504   1.227   2.892
 2835TIP3    H1 8511   5.429   1.284   2.909
 2835TIP3    H2 8512   5.499   1.207   2.799
 2836TIP3   OH2 8513   5.761   0.468   0.401
 2836TIP3    H1 8514   5.765   0.421   0.485
 2836TIP3    H2 8515   5.851   0.467   0.369
 2837TIP3   OH2 8516   2.838   1.985   4.430
 2837TIP3    H1 8517   2.910   2.045   4.449
 2837TIP3    H2 8518   2.798   1.969   4.516
 2838TIP3   OH2 8519   3.618   3.083   1.196
 2838TIP3    H1 8520   3.626   3.074   1.101
 2838TIP3    H2 8521   3.708   3.089   1.228
 2839TIP3   OH2 8522   5.757   5.198   3.712
 2839TIP3    H1 8523   5.733   5.268   3.773
 2839TIP3    H2 8524   5.833   5.156   3.752
 2840TIP3   OH2 8525   4.493   3.783   1.211
 2840TIP3    H1 8526   4.565   3.738   1.166
 2840TIP3    H2 8527   4.489   3.869   1.170
 2841TIP3   OH2 8528   3.927   0.636   0.605
 2841TIP3    H1 8529   3.996   0.694   0.572
 2841TIP3    H2 8530   3.872   0.693   0.659
 2842TIP3   OH2 8531   0.396   5.290   0.399
 2842TIP3    H1 8532   0.309   5.270   0.432
 2842TIP3    H2 8533   0.439   5.337   0.471
 2843TIP3   OH2 8534   6.277   3.102   4.835
 2843TIP3    H1 8535   6.286   3.109   4.740
 2843TIP3    H2 8536   6.235   3.016   4.848
 2844TIP3   OH2 8537   0.946   2.204   2.825
 2844TIP3    H1 8538   0.972   2.254   2.902
 2844TIP3    H2 8539   0.896   2.130   2.859
 2845TIP3   OH2 8540   2.329   4.405   0.317
 2845TIP3    H1 8541   2.240   4.440   0.316
 2845TIP3    H2 8542   2.320   4.315   0.346
 2846TIP3   OH2 8543   6.129   3.828   1.834
 2846TIP3    H1 8544   6.068   3.853   1.903
 2846TIP3    H2 8545   6.079   3.837   1.753
 2847TIP3   OH2 8546   2.832   1.964   0.896
 2847TIP3    H1 8547   2.811   2.008   0.978
 2847TIP3    H2 8548   2.856   1.875   0.923
 2848TIP3   OH2 8549   4.192   5.583   5.137
 2848TIP3    H1 8550   4.128   5.625   5.080
 2848TIP3    H2 8551   4.262   5.647   5.145
 2849TIP3   OH2 8552   5.016   0.205   4.463
 2849TIP3    H1 8553   5.002   0.146   4.388
 2849TIP3    H2 8554   5.106   0.235   4.453
 2850TIP3   OH2 8555   1.209   1.424   1.250
 2850TIP3    H1 8556   1.159   1.496   1.212
 2850TIP3    H2 8557   1.292   1.464   1.277
 2851TIP3   OH2 8558   3.049   5.058   2.522
 2851TIP3    H1 8559   3.071   4.973   2.484
 2851TIP3    H2 8560   2.990   5.037   2.594
 2852TIP3   OH2 8561   0.508   1.910   1.733
 2852TIP3    H1 8562   0.492   1.839   1.671
 2852TIP3    H2 8563   0.551   1.868   1.808
 2853TIP3   OH2 8564   2.022   2.007   2.699
 2853TIP3    H1 8565   1.999   2.001   2.792
 2853TIP3    H2 8566   1.997   2.095   2.673
 2854TIP3   OH2 8567   3.381   4.322   0.809
 2854TIP3    H1 8568   3.354   4.315   0.900
 2854TIP3    H2 8569   3.475   4.302   0.810
 2855TIP3   OH2 8570   3.936   2.344   3.032
 2855TIP3    H1 8571   3.857   2.292   3.013
 2855TIP3    H2 8572   3.940   2.408   2.961
 2856TIP3   OH2 8573   3.742   4.618   1.885
 2856TIP3    H1 8574   3.697   4.702   1.891
 2856TIP3    H2 8575   3.682   4.555   1.925
 2857TIP3   OH2 8576   1.562   0.188   5.149
 2857TIP3    H1 8577   1.583   0.280   5.134
 2857TIP3    H2 8578   1.567   0.178   5.244
 2858TIP3   OH2 8579   0.796   1.377   1.578
 2858TIP3    H1 8580   0.837   1.386   1.664
 2858TIP3    H2 8581   0.782   1.283   1.567
 2859TIP3   OH2 8582   4.938   1.459   1.497
 2859TIP3    H1 8583   4.925   1.371   1.461
 2859TIP3    H2 8584   5.015   1.450   1.554
 2860TIP3   OH2 8585   5.635   2.481   4.691
 2860TIP3    H1 8586   5.607   2.494   4.600
 2860TIP3    H2 8587   5.555   2.489   4.742
 2861TIP3   OH2 8588   0.065   0.493   3.501
 2861TIP3    H1 8589   0.050   0.587   3.499
 2861TIP3    H2 8590  -0.013   0.457   3.545
 2862TIP3   OH2 8591   3.857   2.992   2.158
 2862TIP3    H1 8592   3.874   2.944   2.077
 2862TIP3    H2 8593   3.855   2.924   2.225
 2863TIP3   OH2 8594   5.590   4.112   5.083
 2863TIP3    H1 8595   5.539   4.122   5.003
 2863TIP3    H2 8596   5.566   4.188   5.136
 2864TIP3   OH2 8597   1.195   3.828   2.315
 2864TIP3    H1 8598   1.253   3.901   2.338
 2864TIP3    H2 8599   1.207   3.765   2.385
 2865TIP3   OH2 8600   6.042   4.172   4.070
 2865TIP3    H1 8601   6.063   4.189   4.162
 2865TIP3    H2 8602   5.967   4.112   4.073
 2866TIP3   OH2 8603   5.882   2.749   2.212
 2866TIP3    H1 8604   5.874   2.665   2.256
 2866TIP3    H2 8605   5.893   2.812   2.283
 2867TIP3   OH2 8606   0.710   0.444   0.546
 2867TIP3    H1 8607   0.752   0.489   0.619
 2867TIP3    H2 8608   0.739   0.353   0.554
 2868TIP3   OH2 8609   6.127   3.278   0.650
 2868TIP3    H1 8610   6.117   3.294   0.556
 2868TIP3    H2 8611   6.056   3.327   0.690
 2869TIP3   OH2 8612   2.727   0.109   0.309
 2869TIP3    H1 8613   2.692   0.146   0.228
 2869TIP3    H2 8614   2.654   0.061   0.348
 2870TIP3   OH2 8615   6.063   0.967   4.851
 2870TIP3    H1 8616   6.158   0.966   4.866
 2870TIP3    H2 8617   6.050   0.906   4.778
 2871TIP3   OH2 8618   2.391   5.156   4.537
 2871TIP3    H1 8619   2.333   5.199   4.475
 2871TIP3    H2 8620   2.479   5.182   4.510
 2872TIP3   OH2 8621   4.636   1.461   1.788
 2872TIP3    H1 8622   4.557   1.483   1.739
 2872TIP3    H2 8623   4.644   1.366   1.781
 2873TIP3   OH2 8624   0.476   3.693   4.663
 2873TIP3    H1 8625   0.533   3.713   4.738
 2873TIP3    H2 8626   0.391   3.730   4.687
 2874TIP3   OH2 8627   1.712   3.078   3.091
 2874TIP3    H1 8628   1.698   3.161   3.137
 2874TIP3    H2 8629   1.652   3.017   3.134
 2875TIP3   OH2 8630   0.052   2.438   3.099
 2875TIP3    H1 8631   0.142   2.430   3.068
 2875TIP3    H2 8632   0.058   2.483   3.183
 2876TIP3   OH2 8633   1.328   0.787   3.953
 2876TIP3    H1 8634   1.233   0.797   3.956
 2876TIP3    H2 8635   1.347   0.773   3.860
 2877TIP3   OH2 8636   3.144   5.757   4.746
 2877TIP3    H1 8637   3.075   5.712   4.795
 2877TIP3    H2 8638   3.223   5.707   4.765
 2878TIP3   OH2 8639   3.003   1.985   4.662
 2878TIP3    H1 8640   2.973   1.921   4.726
 2878TIP3    H2 8641   2.959   2.066   4.687
 2879TIP3   OH2 8642   3.508   0.549   2.725
 2879TIP3    H1 8643   3.478   0.629   2.768
 2879TIP3    H2 8644   3.572   0.512   2.785
 2880TIP3   OH2 8645   2.768   1.946   2.457
 2880TIP3    H1 8646   2.782   1.853   2.476
 2880TIP3    H2 8647   2.673   1.959   2.467
 2881TIP3   OH2 8648   3.377   1.046   3.420
 2881TIP3    H1 8649   3.357   0.986   3.348
 2881TIP3    H2 8650   3.443   1.105   3.385
 2882TIP3   OH2 8651   4.613   0.157   4.640
 2882TIP3    H1 8652   4.590   0.128   4.729
 2882TIP3    H2 8653   4.548   0.116   4.584
 2883TIP3   OH2 8654   1.179   3.377   2.627
 2883TIP3    H1 8655   1.086   3.375   2.606
 2883TIP3    H2 8656   1.184   3.343   2.716
 2884TIP3   OH2 8657   2.268   3.049   0.119
 2884TIP3    H1 8658   2.174   3.062   0.132
 2884TIP3    H2 8659   2.284   2.958   0.145
 2885TIP3   OH2 8660   2.920   3.022   4.582
 2885TIP3    H1 8661   2.874   3.086   4.529
 2885TIP3    H2 8662   2.976   3.074   4.640
 2886TIP3   OH2 8663   2.182   4.388   1.961
 2886TIP3    H1 8664   2.099   4.403   1.916
 2886TIP3    H2 8665   2.240   4.351   1.894
 2887TIP3   OH2 8666   1.868   4.726   1.550
 2887TIP3    H1 8667   1.791   4.778   1.526
 2887TIP3    H2 8668   1.844   4.685   1.633
 2888TIP3   OH2 8669   1.961   4.685   4.412
 2888TIP3    H1 8670   1.885   4.680   4.469
 2888TIP3    H2 8671   2.014   4.756   4.447
 2889TIP3   OH2 8672   1.376   5.641   4.340
 2889TIP3    H1 8673   1.328   5.671   4.262
 2889TIP3    H2 8674   1.461   5.614   4.307
 2890TIP3   OH2 8675   3.031   3.407   1.459
 2890TIP3    H1 8676   3.046   3.367   1.545
 2890TIP3    H2 8677   2.969   3.348   1.416
 2891TIP3   OH2 8678   4.539   2.621   0.321
 2891TIP3    H1 8679   4.480   2.687   0.358
 2891TIP3    H2 8680   4.484   2.566   0.267
 2892TIP3   OH2 8681   6.031   4.023   0.761
 2892TIP3    H1 8682   6.000   4.084   0.693
 2892TIP3    H2 8683   6.111   3.986   0.725
 2893TIP3   OH2 8684   1.511   2.173   1.896
 2893TIP3    H1 8685   1.459   2.252   1.910
 2893TIP3    H2 8686   1.450   2.110   1.858
 2894TIP3   OH2 8687   0.457   1.304   1.933
 2894TIP3    H1 8688   0.392   1.263   1.990
 2894TIP3    H2 8689   0.412   1.316   1.849
 2895TIP3   OH2 8690   5.119   1.128   3.605
 2895TIP3    H1 8691   5.027   1.105   3.593
 2895TIP3    H2 8692   5.164   1.080   3.535
 2896TIP3   OH2 8693   0.262   3.007   4.682
 2896TIP3    H1 8694   0.293   3.091   4.717
 2896TIP3    H2 8695   0.328   2.944   4.710
 2897TIP3   OH2 8696   5.640   3.737   2.067
 2897TIP3    H1 8697   5.618   3.823   2.030
 2897TIP3    H2 8698   5.673   3.757   2.154
 2898TIP3   OH2 8699   5.802   0.864   1.364
 2898TIP3    H1 8700   5.730   0.861   1.302
 2898TIP3    H2 8701   5.880   0.874   1.310
 2899TIP3   OH2 8702   3.248   4.975   0.475
 2899TIP3    H1 8703   3.157   4.948   0.483
 2899TIP3    H2 8704   3.274   5.002   0.563
 2900TIP3   OH2 8705   5.941   2.141   0.209
 2900TIP3    H1 8706   5.882   2.200   0.255
 2900TIP3    H2 8707   5.931   2.057   0.253
 2901TIP3   OH2 8708   0.933   4.548   3.313
 2901TIP3    H1 8709   0.981   4.466   3.327
 2901TIP3    H2 8710   0.972   4.586   3.234
 2902TIP3   OH2 8711   0.373   0.815   4.223
 2902TIP3    H1 8712   0.405   0.780   4.140
 2902TIP3    H2 8713   0.445   0.870   4.255
 2903TIP3   OH2 8714   3.835   4.341   1.708
 2903TIP3    H1 8715   3.874   4.407   1.650
 2903TIP3    H2 8716   3.866   4.363   1.795
 2904TIP3   OH2 8717   5.729   0.169   4.388
 2904TIP3    H1 8718   5.679   0.112   4.447
 2904TIP3    H2 8719   5.784   0.109   4.338
 2905TIP3   OH2 8720   0.568   3.923   2.339
 2905TIP3    H1 8721   0.603   3.838   2.314
 2905TIP3    H2 8722   0.575   3.925   2.435
 2906TIP3   OH2 8723   1.507   1.781   4.862
 2906TIP3    H1 8724   1.455   1.746   4.790
 2906TIP3    H2 8725   1.549   1.859   4.826
 2907TIP3   OH2 8726   3.522   1.780   0.334
 2907TIP3    H1 8727   3.500   1.793   0.242
 2907TIP3    H2 8728   3.524   1.869   0.371
 2908TIP3   OH2 8729   2.459   4.568   0.138
 2908TIP3    H1 8730   2.422   4.517   0.210
 2908TIP3    H2 8731   2.397   4.641   0.126
 2909TIP3   OH2 8732   0.537   0.928   0.268
 2909TIP3    H1 8733   0.632   0.922   0.258
 2909TIP3    H2 8734   0.503   0.913   0.180
 2910TIP3   OH2 8735   2.531   3.751   1.946
 2910TIP3    H1 8736   2.553   3.840   1.917
 2910TIP3    H2 8737   2.453   3.762   2.000
 2911TIP3   OH2 8738   4.619   1.831   0.699
 2911TIP3    H1 8739   4.566   1.758   0.667
 2911TIP3    H2 8740   4.658   1.799   0.780
 2912TIP3   OH2 8741   6.027   3.051   1.604
 2912TIP3    H1 8742   5.975   2.975   1.577
 2912TIP3    H2 8743   5.993   3.123   1.551
 2913TIP3   OH2 8744   3.443   4.592   4.268
 2913TIP3    H1 8745   3.415   4.543   4.190
 2913TIP3    H2 8746   3.392   4.554   4.340
 2914TIP3   OH2 8747   4.132   5.001   3.813
 2914TIP3    H1 8748   4.090   5.002   3.899
 2914TIP3    H2 8749   4.062   4.973   3.753
 2915TIP3   OH2 8750   2.406   3.066   0.738
 2915TIP3    H1 8751   2.355   2.987   0.753
 2915TIP3    H2 8752   2.475   3.040   0.676
 2916TIP3   OH2 8753   0.819   1.818   3.794
 2916TIP3    H1 8754   0.741   1.839   3.742
 2916TIP3    H2 8755   0.836   1.726   3.776
 2917TIP3   OH2 8756   3.104   3.544   0.707
 2917TIP3    H1 8757   3.188   3.532   0.663
 2917TIP3    H2 8758   3.055   3.464   0.687
 2918TIP3   OH2 8759   4.045   0.056   4.855
 2918TIP3    H1 8760   3.970   0.104   4.891
 2918TIP3    H2 8761   4.012  -0.033   4.842
 2919TIP3   OH2 8762   3.471   0.814   0.183
 2919TIP3    H1 8763   3.458   0.905   0.210
 2919TIP3    H2 8764   3.442   0.762   0.258
 2920TIP3   OH2 8765   1.768   3.387   1.654
 2920TIP3    H1 8766   1.857   3.420   1.642
 2920TIP3    H2 8767   1.737   3.367   1.565
 2921TIP3   OH2 8768   3.502   0.220   2.267
 2921TIP3    H1 8769   3.449   0.233   2.346
 2921TIP3    H2 8770   3.592   0.214   2.301
 2922TIP3   OH2 8771   1.471   3.394   1.317
 2922TIP3    H1 8772   1.546   3.340   1.342
 2922TIP3    H2 8773   1.437   3.354   1.237
 2923TIP3   OH2 8774   0.389   3.312   0.166
 2923TIP3    H1 8775   0.394   3.291   0.260
 2923TIP3    H2 8776   0.445   3.246   0.124
 2924TIP3   OH2 8777   0.613   1.327   1.251
 2924TIP3    H1 8778   0.633   1.413   1.214
 2924TIP3    H2 8779   0.569   1.281   1.179
 2925TIP3   OH2 8780   5.799   3.545   2.525
 2925TIP3    H1 8781   5.746   3.540   2.445
 2925TIP3    H2 8782   5.862   3.614   2.507
 2926TIP3   OH2 8783   5.551   4.426   2.828
 2926TIP3    H1 8784   5.518   4.503   2.874
 2926TIP3    H2 8785   5.499   4.422   2.748
 2927TIP3   OH2 8786   2.782   1.074   4.629
 2927TIP3    H1 8787   2.774   1.025   4.710
 2927TIP3    H2 8788   2.737   1.157   4.646
 2928TIP3   OH2 8789   2.692   1.564   0.435
 2928TIP3    H1 8790   2.763   1.625   0.413
 2928TIP3    H2 8791   2.684   1.570   0.530
 2929TIP3   OH2 8792   1.615   2.155   4.453
 2929TIP3    H1 8793   1.650   2.235   4.413
 2929TIP3    H2 8794   1.563   2.187   4.527
 2930TIP3   OH2 8795   5.355   4.839   3.076
 2930TIP3    H1 8796   5.303   4.896   3.132
 2930TIP3    H2 8797   5.425   4.895   3.042
 2931TIP3   OH2 8798   4.291   1.476   2.610
 2931TIP3    H1 8799   4.319   1.530   2.684
 2931TIP3    H2 8800   4.209   1.516   2.580
 2932TIP3   OH2 8801   5.320   3.030   5.048
 2932TIP3    H1 8802   5.283   2.995   5.130
 2932TIP3    H2 8803   5.268   3.108   5.030
 2933TIP3   OH2 8804   0.844   1.910   3.226
 2933TIP3    H1 8805   0.872   1.874   3.310
 2933TIP3    H2 8806   0.750   1.923   3.235
 2934TIP3   OH2 8807   2.588   5.588   2.031
 2934TIP3    H1 8808   2.672   5.554   2.063
 2934TIP3    H2 8809   2.541   5.511   1.999
 2935TIP3   OH2 8810   2.504   1.143   0.858
 2935TIP3    H1 8811   2.524   1.076   0.923
 2935TIP3    H2 8812   2.587   1.187   0.843
 2936TIP3   OH2 8813   4.616   3.191   0.160
 2936TIP3    H1 8814   4.582   3.156   0.078
 2936TIP3    H2 8815   4.688   3.133   0.183
 2937TIP3   OH2 8816   5.040   2.852   4.394
 2937TIP3    H1 8817   5.058   2.833   4.486
 2937TIP3    H2 8818   4.971   2.790   4.369
 2938TIP3   OH2 8819   0.322   0.138   2.975
 2938TIP3    H1 8820   0.336   0.197   3.049
 2938TIP3    H2 8821   0.347   0.190   2.899
 2939TIP3   OH2 8822   2.206   4.194  -0.015
 2939TIP3    H1 8823   2.302   4.192  -0.009
 2939TIP3    H2 8824   2.177   4.172   0.074
 2940TIP3   OH2 8825   2.224   5.563   1.665
 2940TIP3    H1 8826   2.239   5.640   1.720
 2940TIP3    H2 8827   2.305   5.514   1.670
 2941TIP3   OH2 8828   5.020   0.640   4.996
 2941TIP3    H1 8829   4.982   0.586   5.065
 2941TIP3    H2 8830   4.978   0.609   4.916
 2942TIP3   OH2 8831   1.945   1.968   3.725
 2942TIP3    H1 8832   1.863   1.989   3.679
 2942TIP3    H2 8833   2.005   1.940   3.656
 2943TIP3   OH2 8834   1.574   1.210   2.607
 2943TIP3    H1 8835   1.657   1.242   2.644
 2943TIP3    H2 8836   1.523   1.289   2.591
 2944TIP3   OH2 8837   5.364   0.587   5.065
 2944TIP3    H1 8838   5.272   0.572   5.044
 2944TIP3    H2 8839   5.385   0.521   5.131
 2945TIP3   OH2 8840   5.738   2.435   2.597
 2945TIP3    H1 8841   5.649   2.407   2.577
 2945TIP3    H2 8842   5.792   2.357   2.583
 2946TIP3   OH2 8843   5.950   5.415   2.642
 2946TIP3    H1 8844   5.955   5.350   2.712
 2946TIP3    H2 8845   5.884   5.478   2.672
 2947TIP3   OH2 8846   1.957   5.131   5.056
 2947TIP3    H1 8847   1.890   5.065   5.041
 2947TIP3    H2 8848   1.910   5.203   5.099
 2948TIP3   OH2 8849   4.742   3.883   4.192
 2948TIP3    H1 8850   4.740   3.863   4.286
 2948TIP3    H2 8851   4.759   3.798   4.151
 2949TIP3   OH2 8852   4.829   0.977   0.522
 2949TIP3    H1 8853   4.800   1.067   0.507
 2949TIP3    H2 8854   4.748   0.926   0.523
 2950TIP3   OH2 8855   5.389   5.155   0.048
 2950TIP3    H1 8856   5.474   5.198   0.038
 2950TIP3    H2 8857   5.404   5.088   0.115
 2951TIP3   OH2 8858   1.645   0.943   2.570
 2951TIP3    H1 8859   1.696   0.954   2.490
 2951TIP3    H2 8860   1.605   1.029   2.584
 2952TIP3   OH2 8861   5.653   2.261   3.124
 2952TIP3    H1 8862   5.737   2.216   3.119
 2952TIP3    H2 8863   5.615   2.233   3.208
 2953TIP3   OH2 8864   2.923   5.090   4.300
 2953TIP3    H1 8865   2.921   5.010   4.353
 2953TIP3    H2 8866   3.016   5.106   4.285
 2954TIP3   OH2 8867   5.180   2.142   3.746
 2954TIP3    H1 8868   5.225   2.084   3.683
 2954TIP3    H2 8869   5.167   2.223   3.698
 2955TIP3   OH2 8870   2.020   5.531   4.971
 2955TIP3    H1 8871   2.034   5.617   5.010
 2955TIP3    H2 8872   2.094   5.518   4.912
 2956TIP3   OH2 8873   2.165   5.968   4.960
 2956TIP3    H1 8874   2.093   6.008   4.910
 2956TIP3    H2 8875   2.217   5.923   4.893
 2957TIP3   OH2 8876   0.203   0.635   1.708
 2957TIP3    H1 8877   0.128   0.690   1.733
 2957TIP3    H2 8878   0.278   0.694   1.709
 2958TIP3   OH2 8879   3.141   0.943   1.618
 2958TIP3    H1 8880   3.207   0.955   1.686
 2958TIP3    H2 8881   3.190   0.944   1.536
 2959TIP3   OH2 8882   3.406   5.882   0.297
 2959TIP3    H1 8883   3.391   5.799   0.251
 2959TIP3    H2 8884   3.317   5.916   0.312
 2960TIP3   OH2 8885   2.408   2.156   2.825
 2960TIP3    H1 8886   2.414   2.085   2.762
 2960TIP3    H2 8887   2.412   2.113   2.910
 2961TIP3   OH2 8888   1.358   1.758   3.434
 2961TIP3    H1 8889   1.377   1.763   3.341
 2961TIP3    H2 8890   1.439   1.785   3.476
 2962TIP3   OH2 8891   1.880   4.663   3.121
 2962TIP3    H1 8892   1.857   4.737   3.176
 2962TIP3    H2 8893   1.938   4.609   3.176
 2963TIP3   OH2 8894   5.691   0.139   2.218
 2963TIP3    H1 8895   5.753   0.202   2.181
 2963TIP3    H2 8896   5.735   0.106   2.297
 2964TIP3   OH2 8897   5.506   5.622   1.040
 2964TIP3    H1 8898   5.592   5.582   1.056
 2964TIP3    H2 8899   5.447   5.576   1.100
 2965TIP3   OH2 8900   5.422   5.344   4.884
 2965TIP3    H1 8901   5.381   5.417   4.931
 2965TIP3    H2 8902   5.418   5.369   4.792
 2966TIP3   OH2 8903   2.667   4.632   2.470
 2966TIP3    H1 8904   2.727   4.584   2.526
 2966TIP3    H2 8905   2.586   4.639   2.521
 2967TIP3   OH2 8906   4.102   2.161   0.943
 2967TIP3    H1 8907   4.193   2.143   0.967
 2967TIP3    H2 8908   4.079   2.238   0.995
 2968TIP3   OH2 8909   2.252   3.243   1.426
 2968TIP3    H1 8910   2.202   3.256   1.507
 2968TIP3    H2 8911   2.197   3.282   1.358
 2969TIP3   OH2 8912   4.372   5.895   3.634
 2969TIP3    H1 8913   4.318   5.972   3.615
 2969TIP3    H2 8914   4.401   5.864   3.549
 2970TIP3   OH2 8915   5.187   3.732   2.715
 2970TIP3    H1 8916   5.191   3.789   2.638
 2970TIP3    H2 8917   5.274   3.737   2.754
 2971TIP3   OH2 8918   0.573   4.763   1.654
 2971TIP3    H1 8919   0.600   4.850   1.624
 2971TIP3    H2 8920   0.649   4.707   1.639
 2972TIP3   OH2 8921   2.216   3.330   1.696
 2972TIP3    H1 8922   2.291   3.388   1.707
 2972TIP3    H2 8923   2.176   3.326   1.783
 2973TIP3   OH2 8924   6.211   0.332   2.764
 2973TIP3    H1 8925   6.290   0.374   2.732
 2973TIP3    H2 8926   6.171   0.396   2.823
 2974TIP3   OH2 8927   5.699   5.692   3.773
 2974TIP3    H1 8928   5.700   5.739   3.689
 2974TIP3    H2 8929   5.683   5.760   3.838
 2975TIP3   OH2 8930   1.248   5.241   4.292
 2975TIP3    H1 8931   1.327   5.279   4.331
 2975TIP3    H2 8932   1.238   5.157   4.336
 2976TIP3   OH2 8933   2.987   0.435   0.176
 2976TIP3    H1 8934   2.894   0.416   0.189
 2976TIP3    H2 8935   2.990   0.528   0.154
 2977TIP3   OH2 8936   3.697   3.783   0.549
 2977TIP3    H1 8937   3.769   3.792   0.486
 2977TIP3    H2 8938   3.737   3.743   0.626
 2978TIP3   OH2 8939   1.050   0.915   1.244
 2978TIP3    H1 8940   1.030   0.933   1.336
 2978TIP3    H2 8941   1.130   0.964   1.227
 2979TIP3   OH2 8942   1.430   1.934   0.585
 2979TIP3    H1 8943   1.488   2.001   0.621
 2979TIP3    H2 8944   1.441   1.859   0.643
 2980TIP3   OH2 8945   3.362   1.600   0.023
 2980TIP3    H1 8946   3.298   1.615   0.092
 2980TIP3    H2 8947   3.311   1.595  -0.057
 2981TIP3   OH2 8948   2.678   3.414   3.942
 2981TIP3    H1 8949   2.743   3.390   4.009
 2981TIP3    H2 8950   2.688   3.509   3.931
 2982TIP3   OH2 8951   0.277   5.722   2.472
 2982TIP3    H1 8952   0.297   5.779   2.399
 2982TIP3    H2 8953   0.248   5.640   2.432
 2983TIP3   OH2 8954   1.764   5.329   2.316
 2983TIP3    H1 8955   1.772   5.277   2.396
 2983TIP3    H2 8956   1.843   5.308   2.266
 2984TIP3   OH2 8957   4.241   4.317   1.615
 2984TIP3    H1 8958   4.275   4.251   1.555
 2984TIP3    H2 8959   4.274   4.400   1.580
 2985TIP3   OH2 8960   5.880   2.903   2.427
 2985TIP3    H1 8961   5.945   2.964   2.392
 2985TIP3    H2 8962   5.847   2.945   2.505
 2986TIP3   OH2 8963   4.216   2.241   2.129
 2986TIP3    H1 8964   4.234   2.178   2.059
 2986TIP3    H2 8965   4.120   2.243   2.136
 2987TIP3   OH2 8966   5.826   1.020   1.890
 2987TIP3    H1 8967   5.917   1.009   1.861
 2987TIP3    H2 8968   5.773   0.991   1.815
 2988TIP3   OH2 8969   0.252   5.169   4.850
 2988TIP3    H1 8970   0.258   5.143   4.759
 2988TIP3    H2 8971   0.237   5.087   4.898
 2989TIP3   OH2 8972   5.362   4.546   2.070
 2989TIP3    H1 8973   5.417   4.614   2.030
 2989TIP3    H2 8974   5.319   4.503   1.997
 2990TIP3   OH2 8975   1.142   4.483   3.725
 2990TIP3    H1 8976   1.064   4.527   3.692
 2990TIP3    H2 8977   1.215   4.536   3.694
 2991TIP3   OH2 8978   5.848   2.479   5.089
 2991TIP3    H1 8979   5.855   2.504   4.997
 2991TIP3    H2 8980   5.808   2.554   5.132
 2992TIP3   OH2 8981   1.550   1.517   1.135
 2992TIP3    H1 8982   1.536   1.522   1.229
 2992TIP3    H2 8983   1.572   1.425   1.119
 2993TIP3   OH2 8984   3.697   1.567   3.196
 2993TIP3    H1 8985   3.664   1.647   3.236
 2993TIP3    H2 8986   3.687   1.500   3.265
 2994TIP3   OH2 8987   2.979   5.303   1.453
 2994TIP3    H1 8988   3.027   5.260   1.524
 2994TIP3    H2 8989   2.986   5.242   1.380
 2995TIP3   OH2 8990   5.924   1.044   2.629
 2995TIP3    H1 8991   5.932   0.975   2.695
 2995TIP3    H2 8992   6.014   1.060   2.599
 2996TIP3   OH2 8993   2.738   4.121   4.606
 2996TIP3    H1 8994   2.824   4.108   4.648
 2996TIP3    H2 8995   2.756   4.179   4.532
 2997TIP3   OH2 8996   1.597   0.608   3.202
 2997TIP3    H1 8997   1.631   0.694   3.176
 2997TIP3    H2 8998   1.665   0.546   3.175
 2998TIP3   OH2 8999   0.499   2.536   2.765
 2998TIP3    H1 9000   0.521   2.475   2.694
 2998TIP3    H2 9001   0.525   2.490   2.845
 2999TIP3   OH2 9002   2.450   0.585   0.261
 2999TIP3    H1 9003   2.490   0.507   0.300
 2999TIP3    H2 9004   2.383   0.552   0.202
 3000TIP3   OH2 9005   1.405   3.142   0.318
 3000TIP3    H1 9006   1.399   3.081   0.245
 3000TIP3    H2 9007   1.449   3.219   0.282
 3001TIP3   OH2 9008   1.180   5.714   1.630
 3001TIP3    H1 9009   1.137   5.650   1.687
 3001TIP3    H2 9010   1.265   5.675   1.610
 3002TIP3   OH2 9011   0.162   2.190   2.384
 3002TIP3    H1 9012   0.075   2.151   2.382
 3002TIP3    H2 9013   0.169   2.229   2.471
 3003TIP3   OH2 9014   0.167   1.605   1.593
 3003TIP3    H1 9015   0.080   1.636   1.566
 3003TIP3    H2 9016   0.210   1.581   1.511
 3004TIP3   OH2 9017   3.903   2.546   1.844
 3004TIP3    H1 9018   3.828   2.594   1.810
 3004TIP3    H2 9019   3.970   2.554   1.776
 3005TIP3   OH2 9020   1.763   0.964   0.801
 3005TIP3    H1 9021   1.713   0.928   0.875
 3005TIP3    H2 9022   1.709   1.035   0.768
 3006TIP3   OH2 9023   5.393   0.193   5.151
 3006TIP3    H1 9024   5.482   0.227   5.158
 3006TIP3    H2 9025   5.341   0.249   5.208
 3007TIP3   OH2 9026   2.332   2.328   0.245
 3007TIP3    H1 9027   2.398   2.349   0.179
 3007TIP3    H2 9028   2.374   2.264   0.302
 3008TIP3   OH2 9029   0.243   5.894   1.500
 3008TIP3    H1 9030   0.312   5.914   1.436
 3008TIP3    H2 9031   0.288   5.898   1.584
 3009TIP3   OH2 9032   5.964   4.642   0.242
 3009TIP3    H1 9033   5.906   4.604   0.308
 3009TIP3    H2 9034   5.998   4.722   0.284
 3010TIP3   OH2 9035   0.361   3.627   4.028
 3010TIP3    H1 9036   0.274   3.666   4.019
 3010TIP3    H2 9037   0.397   3.666   4.108
 3011TIP3   OH2 9038   2.028   5.387   4.184
 3011TIP3    H1 9039   1.989   5.401   4.270
 3011TIP3    H2 9040   1.981   5.448   4.127
 3012TIP3   OH2 9041   1.099   1.513   2.945
 3012TIP3    H1 9042   1.028   1.535   3.005
 3012TIP3    H2 9043   1.146   1.595   2.932
 3013TIP3   OH2 9044   4.507   1.521   0.717
 3013TIP3    H1 9045   4.587   1.507   0.667
 3013TIP3    H2 9046   4.536   1.536   0.807
 3014TIP3   OH2 9047   2.366   2.133   0.466
 3014TIP3    H1 9048   2.373   2.135   0.561
 3014TIP3    H2 9049   2.386   2.043   0.442
 3015TIP3   OH2 9050   4.842   0.655   2.673
 3015TIP3    H1 9051   4.873   0.690   2.589
 3015TIP3    H2 9052   4.755   0.619   2.653
 3016TIP3   OH2 9053   4.618   4.672   5.013
 3016TIP3    H1 9054   4.636   4.626   5.095
 3016TIP3    H2 9055   4.527   4.651   4.994
 3017TIP3   OH2 9056   4.924   4.185   1.434
 3017TIP3    H1 9057   4.942   4.278   1.443
 3017TIP3    H2 9058   4.907   4.155   1.524
 3018TIP3   OH2 9059   4.372   0.089   3.423
 3018TIP3    H1 9060   4.427   0.156   3.383
 3018TIP3    H2 9061   4.432   0.037   3.476
 3019TIP3   OH2 9062   4.700   3.967   3.916
 3019TIP3    H1 9063   4.782   3.963   3.867
 3019TIP3    H2 9064   4.721   3.926   4.001
 3020TIP3   OH2 9065   3.539   1.063   0.726
 3020TIP3    H1 9066   3.620   1.115   0.720
 3020TIP3    H2 9067   3.469   1.128   0.720
 3021TIP3   OH2 9068   2.930   2.228   3.509
 3021TIP3    H1 9069   2.991   2.290   3.548
 3021TIP3    H2 9070   2.851   2.236   3.561
 3022TIP3   OH2 9071   3.492   2.076   4.754
 3022TIP3    H1 9072   3.562   2.044   4.697
 3022TIP3    H2 9073   3.412   2.063   4.704
 3023TIP3   OH2 9074   1.556   2.836   2.314
 3023TIP3    H1 9075   1.595   2.801   2.234
 3023TIP3    H2 9076   1.595   2.785   2.384
 3024TIP3   OH2 9077   1.837   4.205   4.314
 3024TIP3    H1 9078   1.909   4.180   4.371
 3024TIP3    H2 9079   1.850   4.299   4.298
 3025TIP3   OH2 9080   3.909   0.004   3.037
 3025TIP3    H1 9081   3.872   0.002   3.126
 3025TIP3    H2 9082   3.884   0.089   3.003
 3026TIP3   OH2 9083   0.674   3.669   0.801
 3026TIP3    H1 9084   0.750   3.717   0.768
 3026TIP3    H2 9085   0.651   3.608   0.730
 3027TIP3   OH2 9086   3.539   1.085   4.584
 3027TIP3    H1 9087   3.614   1.137   4.556
 3027TIP3    H2 9088   3.577   1.015   4.638
 3028TIP3   OH2 9089   4.866   0.654  -0.009
 3028TIP3    H1 9090   4.793   0.604   0.027
 3028TIP3    H2 9091   4.895   0.710   0.063
 3029TIP3   OH2 9092   0.118   1.484   3.021
 3029TIP3    H1 9093   0.052   1.430   3.065
 3029TIP3    H2 9094   0.199   1.467   3.068
 3030TIP3   OH2 9095   0.927   1.428   1.321
 3030TIP3    H1 9096   0.878   1.448   1.401
 3030TIP3    H2 9097   0.978   1.507   1.305
 3031TIP3   OH2 9098   1.154   0.597   4.214
 3031TIP3    H1 9099   1.124   0.592   4.305
 3031TIP3    H2 9100   1.220   0.666   4.214
 3032TIP3   OH2 9101   2.954   0.675   1.131
 3032TIP3    H1 9102   3.012   0.603   1.106
 3032TIP3    H2 9103   2.866   0.642   1.114
 3033TIP3   OH2 9104   3.104   2.510   2.187
 3033TIP3    H1 9105   3.101   2.434   2.245
 3033TIP3    H2 9106   3.069   2.477   2.104
 3034TIP3   OH2 9107   3.760   2.110   0.311
 3034TIP3    H1 9108   3.692   2.135   0.374
 3034TIP3    H2 9109   3.841   2.142   0.350
 3035TIP3   OH2 9110   0.578   4.288   3.396
 3035TIP3    H1 9111   0.608   4.377   3.377
 3035TIP3    H2 9112   0.512   4.300   3.465
 3036TIP3   OH2 9113   6.126   3.369   4.618
 3036TIP3    H1 9114   6.064   3.328   4.558
 3036TIP3    H2 9115   6.183   3.297   4.646
 3037TIP3   OH2 9116   1.968   4.861   3.958
 3037TIP3    H1 9117   1.955   4.883   4.050
 3037TIP3    H2 9118   1.983   4.767   3.957
 3038TIP3   OH2 9119   2.365   2.851   4.059
 3038TIP3    H1 9120   2.330   2.925   4.108
 3038TIP3    H2 9121   2.395   2.889   3.976
 3039TIP3   OH2 9122   3.294   4.949   2.386
 3039TIP3    H1 9123   3.311   4.997   2.306
 3039TIP3    H2 9124   3.347   4.993   2.453
 3040TIP3   OH2 9125   3.280   1.520   2.727
 3040TIP3    H1 9126   3.195   1.498   2.764
 3040TIP3    H2 9127   3.339   1.522   2.803
 3041TIP3   OH2 9128   5.761   0.469   2.493
 3041TIP3    H1 9129   5.797   0.433   2.574
 3041TIP3    H2 9130   5.679   0.421   2.481
 3042TIP3   OH2 9131   0.458   5.489   3.626
 3042TIP3    H1 9132   0.538   5.437   3.627
 3042TIP3    H2 9133   0.439   5.505   3.718
 3043TIP3   OH2 9134   4.804   5.932   4.266
 3043TIP3    H1 9135   4.852   5.888   4.336
 3043TIP3    H2 9136   4.724   5.964   4.307
 3044TIP3   OH2 9137   1.074   2.745   2.193
 3044TIP3    H1 9138   1.157   2.698   2.201
 3044TIP3    H2 9139   1.065   2.761   2.099
 3045TIP3   OH2 9140   4.220   3.194   3.407
 3045TIP3    H1 9141   4.298   3.163   3.453
 3045TIP3    H2 9142   4.229   3.157   3.319
 3046TIP3   OH2 9143   6.099   1.393   4.012
 3046TIP3    H1 9144   6.149   1.405   4.093
 3046TIP3    H2 9145   6.144   1.322   3.967
 3047TIP3   OH2 9146   3.302   1.397   3.104
 3047TIP3    H1 9147   3.349   1.472   3.067
 3047TIP3    H2 9148   3.342   1.321   3.064
 3048TIP3   OH2 9149   5.695   3.918   3.825
 3048TIP3    H1 9150   5.772   3.874   3.789
 3048TIP3    H2 9151   5.621   3.869   3.791
 3049TIP3   OH2 9152   1.089   1.839   3.030
 3049TIP3    H1 9153   1.018   1.781   3.059
 3049TIP3    H2 9154   1.066   1.925   3.066
 3050TIP3   OH2 9155   5.087   1.077   2.987
 3050TIP3    H1 9156   5.098   0.983   3.001
 3050TIP3    H2 9157   4.994   1.093   3.003
 3051TIP3   OH2 9158   2.106   5.061   4.604
 3051TIP3    H1 9159   2.128   5.137   4.658
 3051TIP3    H2 9160   2.051   5.007   4.660
 3052TIP3   OH2 9161   3.673   0.405   0.509
 3052TIP3    H1 9162   3.656   0.316   0.541
 3052TIP3    H2 9163   3.614   0.414   0.434
 3053TIP3   OH2 9164   0.659   5.783   1.637
 3053TIP3    H1 9165   0.714   5.837   1.580
 3053TIP3    H2 9166   0.570   5.805   1.611
 3054TIP3   OH2 9167   0.884   0.673   3.492
 3054TIP3    H1 9168   0.872   0.604   3.558
 3054TIP3    H2 9169   0.967   0.651   3.450
 3055TIP3   OH2 9170   5.352   4.581   0.137
 3055TIP3    H1 9171   5.272   4.545   0.175
 3055TIP3    H2 9172   5.389   4.508   0.086
 3056TIP3   OH2 9173   3.067   0.392   3.319
 3056TIP3    H1 9174   3.036   0.359   3.403
 3056TIP3    H2 9175   3.145   0.340   3.300
 3057TIP3   OH2 9176   0.404   3.372   2.939
 3057TIP3    H1 9177   0.429   3.403   2.851
 3057TIP3    H2 9178   0.308   3.370   2.937
 3058TIP3   OH2 9179   5.585   5.373   5.103
 3058TIP3    H1 9180   5.614   5.460   5.076
 3058TIP3    H2 9181   5.544   5.336   5.025
 3059TIP3   OH2 9182   5.206   1.208   1.052
 3059TIP3    H1 9183   5.270   1.262   1.005
 3059TIP3    H2 9184   5.157   1.270   1.106
 3060TIP3   OH2 9185   5.812   5.373   1.555
 3060TIP3    H1 9186   5.767   5.392   1.637
 3060TIP3    H2 9187   5.878   5.443   1.548
 3061TIP3   OH2 9188   3.863   3.253   1.657
 3061TIP3    H1 9189   3.925   3.231   1.587
 3061TIP3    H2 9190   3.841   3.169   1.697
 3062TIP3   OH2 9191   2.440   2.473   1.914
 3062TIP3    H1 9192   2.391   2.554   1.899
 3062TIP3    H2 9193   2.374   2.403   1.911
 3063TIP3   OH2 9194   0.068   5.270   2.402
 3063TIP3    H1 9195   0.074   5.224   2.486
 3063TIP3    H2 9196  -0.024   5.295   2.395
 3064TIP3   OH2 9197   2.774   0.316  -0.003
 3064TIP3    H1 9198   2.742   0.347   0.082
 3064TIP3    H2 9199   2.699   0.271  -0.042
 3065TIP3   OH2 9200   5.234   3.884   3.432
 3065TIP3    H1 9201   5.254   3.886   3.338
 3065TIP3    H2 9202   5.313   3.846   3.472
 3066TIP3   OH2 9203   2.392   5.808   0.947
 3066TIP3    H1 9204   2.377   5.730   0.893
 3066TIP3    H2 9205   2.406   5.773   1.035
 3067TIP3   OH2 9206   2.406   0.435   4.527
 3067TIP3    H1 9207   2.358   0.485   4.461
 3067TIP3    H2 9208   2.396   0.343   4.500
 3068TIP3   OH2 9209   3.380   1.730   5.091
 3068TIP3    H1 9210   3.288   1.716   5.116
 3068TIP3    H2 9211   3.429   1.664   5.139
 3069TIP3   OH2 9212   1.994   3.019   1.407
 3069TIP3    H1 9213   1.951   3.090   1.359
 3069TIP3    H2 9214   2.065   2.990   1.350
 3070TIP3   OH2 9215   2.600   2.645   4.491
 3070TIP3    H1 9216   2.653   2.708   4.540
 3070TIP3    H2 9217   2.598   2.681   4.402
 3071TIP3   OH2 9218   6.269   5.877   4.367
 3071TIP3    H1 9219   6.190   5.916   4.330
 3071TIP3    H2 9220   6.240   5.837   4.449
 3072TIP3   OH2 9221   0.946   5.605   1.428
 3072TIP3    H1 9222   1.027   5.655   1.418
 3072TIP3    H2 9223   0.928   5.571   1.341
 3073TIP3   OH2 9224   6.030   3.727   4.635
 3073TIP3    H1 9225   5.941   3.692   4.627
 3073TIP3    H2 9226   6.080   3.680   4.567
 3074TIP3   OH2 9227   5.488   5.643   2.145
 3074TIP3    H1 9228   5.466   5.703   2.074
 3074TIP3    H2 9229   5.444   5.562   2.123
 3075TIP3   OH2 9230   2.502   2.624   0.461
 3075TIP3    H1 9231   2.425   2.674   0.434
 3075TIP3    H2 9232   2.467   2.538   0.486
 3076TIP3   OH2 9233   0.875   5.426   3.972
 3076TIP3    H1 9234   0.816   5.469   4.034
 3076TIP3    H2 9235   0.959   5.421   4.018
 3077TIP3   OH2 9236   3.650   3.572   1.849
 3077TIP3    H1 9237   3.602   3.648   1.816
 3077TIP3    H2 9238   3.616   3.499   1.799
 3078TIP3   OH2 9239   2.221   5.069   0.365
 3078TIP3    H1 9240   2.197   4.998   0.425
 3078TIP3    H2 9241   2.199   5.149   0.412
 3079TIP3   OH2 9242   5.479   4.024   3.598
 3079TIP3    H1 9243   5.562   4.024   3.551
 3079TIP3    H2 9244   5.460   3.932   3.612
 3080TIP3   OH2 9245   4.243   0.458   3.931
 3080TIP3    H1 9246   4.264   0.532   3.875
 3080TIP3    H2 9247   4.266   0.487   4.019
 3081TIP3   OH2 9248   5.398   0.804   2.475
 3081TIP3    H1 9249   5.444   0.883   2.504
 3081TIP3    H2 9250   5.331   0.836   2.415
 3082TIP3   OH2 9251   3.529   2.720   0.312
 3082TIP3    H1 9252   3.513   2.713   0.407
 3082TIP3    H2 9253   3.445   2.745   0.275
 3083TIP3   OH2 9254   1.216   2.213   3.676
 3083TIP3    H1 9255   1.282   2.191   3.611
 3083TIP3    H2 9256   1.252   2.182   3.759
 3084TIP3   OH2 9257   3.715   3.630   4.278
 3084TIP3    H1 9258   3.800   3.591   4.260
 3084TIP3    H2 9259   3.667   3.624   4.196
 3085TIP3   OH2 9260   2.929   1.921   4.918
 3085TIP3    H1 9261   2.983   2.000   4.925
 3085TIP3    H2 9262   2.958   1.865   4.990
 3086TIP3   OH2 9263   0.317   4.424   1.898
 3086TIP3    H1 9264   0.384   4.373   1.854
 3086TIP3    H2 9265   0.235   4.378   1.878
 3087TIP3   OH2 9266   3.486   1.833   1.007
 3087TIP3    H1 9267   3.403   1.825   0.960
 3087TIP3    H2 9268   3.466   1.802   1.096
 3088TIP3   OH2 9269   0.651   1.864   2.310
 3088TIP3    H1 9270   0.633   1.770   2.318
 3088TIP3    H2 9271   0.746   1.870   2.313
 3089TIP3   OH2 9272   3.203   0.729   2.649
 3089TIP3    H1 9273   3.182   0.822   2.639
 3089TIP3    H2 9274   3.173   0.708   2.737
 3090TIP3   OH2 9275   5.640   0.460   3.343
 3090TIP3    H1 9276   5.585   0.537   3.357
 3090TIP3    H2 9277   5.585   0.386   3.371
 3091TIP3   OH2 9278   3.433   0.814   1.086
 3091TIP3    H1 9279   3.358   0.834   1.031
 3091TIP3    H2 9280   3.509   0.837   1.032
 3092TIP3   OH2 9281   2.337   2.899   3.081
 3092TIP3    H1 9282   2.272   2.969   3.087
 3092TIP3    H2 9283   2.360   2.897   2.988
 3093TIP3   OH2 9284   4.132   3.419   1.373
 3093TIP3    H1 9285   4.165   3.473   1.445
 3093TIP3    H2 9286   4.036   3.422   1.383
 3094TIP3   OH2 9287   2.226   4.638   4.243
 3094TIP3    H1 9288   2.148   4.659   4.192
 3094TIP3    H2 9289   2.192   4.595   4.322
 3095TIP3   OH2 9290   0.575   2.818   2.419
 3095TIP3    H1 9291   0.669   2.804   2.413
 3095TIP3    H2 9292   0.549   2.777   2.501
 3096TIP3   OH2 9293   5.795   4.066   2.271
 3096TIP3    H1 9294   5.886   4.038   2.280
 3096TIP3    H2 9295   5.744   3.991   2.303
 3097TIP3   OH2 9296   3.749   3.165   3.975
 3097TIP3    H1 9297   3.781   3.214   4.050
 3097TIP3    H2 9298   3.659   3.195   3.963
 3098TIP3   OH2 9299   5.178   4.689   4.101
 3098TIP3    H1 9300   5.148   4.602   4.127
 3098TIP3    H2 9301   5.141   4.702   4.014
 3099TIP3   OH2 9302   2.602   2.996   3.227
 3099TIP3    H1 9303   2.595   3.091   3.234
 3099TIP3    H2 9304   2.519   2.968   3.189
 3100TIP3   OH2 9305   4.965   3.184   1.412
 3100TIP3    H1 9306   5.009   3.180   1.497
 3100TIP3    H2 9307   4.873   3.201   1.434
 3101TIP3   OH2 9308   0.928   0.921   4.259
 3101TIP3    H1 9309   0.938   1.015   4.273
 3101TIP3    H2 9310   0.948   0.882   4.344
 3102TIP3   OH2 9311   3.279   4.442   2.702
 3102TIP3    H1 9312   3.296   4.349   2.685
 3102TIP3    H2 9313   3.233   4.473   2.624
 3103TIP3   OH2 9314   3.036   4.267   1.715
 3103TIP3    H1 9315   3.114   4.316   1.688
 3103TIP3    H2 9316   3.047   4.180   1.676
 3104TIP3   OH2 9317   4.653   4.923   3.211
 3104TIP3    H1 9318   4.636   5.012   3.180
 3104TIP3    H2 9319   4.604   4.916   3.293
 3105TIP3   OH2 9320   2.848   0.653   5.013
 3105TIP3    H1 9321   2.910   0.709   5.060
 3105TIP3    H2 9322   2.876   0.564   5.032
 3106TIP3   OH2 9323   1.823   0.352   0.217
 3106TIP3    H1 9324   1.896   0.411   0.237
 3106TIP3    H2 9325   1.747   0.394   0.257
 3107TIP3   OH2 9326   5.015   3.713   4.988
 3107TIP3    H1 9327   5.091   3.719   5.046
 3107TIP3    H2 9328   5.048   3.739   4.902
 3108TIP3   OH2 9329   0.560   4.196   2.993
 3108TIP3    H1 9330   0.497   4.164   3.057
 3108TIP3    H2 9331   0.538   4.288   2.982
 3109TIP3   OH2 9332   3.735   0.821   4.319
 3109TIP3    H1 9333   3.751   0.857   4.406
 3109TIP3    H2 9334   3.811   0.848   4.267
 3110TIP3   OH2 9335   4.879   5.380   1.254
 3110TIP3    H1 9336   4.924   5.300   1.279
 3110TIP3    H2 9337   4.947   5.447   1.253
 3111TIP3   OH2 9338   3.943   4.779   3.069
 3111TIP3    H1 9339   3.862   4.798   3.116
 3111TIP3    H2 9340   3.924   4.699   3.020
 3112TIP3   OH2 9341   0.227   0.396   4.053
 3112TIP3    H1 9342   0.305   0.344   4.067
 3112TIP3    H2 9343   0.160   0.333   4.026
 3113TIP3   OH2 9344   5.579   0.925   1.208
 3113TIP3    H1 9345   5.637   0.984   1.159
 3113TIP3    H2 9346   5.539   0.869   1.142
 3114TIP3   OH2 9347   0.269   0.738   3.431
 3114TIP3    H1 9348   0.263   0.766   3.340
 3114TIP3    H2 9349   0.188   0.771   3.472
 3115TIP3   OH2 9350   2.674   2.396   4.570
 3115TIP3    H1 9351   2.636   2.480   4.542
 3115TIP3    H2 9352   2.608   2.331   4.548
 3116TIP3   OH2 9353   5.017   0.726   4.194
 3116TIP3    H1 9354   4.966   0.788   4.142
 3116TIP3    H2 9355   4.954   0.689   4.256
 3117TIP3   OH2 9356   1.007   5.112   4.537
 3117TIP3    H1 9357   0.958   5.188   4.505
 3117TIP3    H2 9358   0.940   5.055   4.574
 3118TIP3   OH2 9359   2.768   3.578   1.158
 3118TIP3    H1 9360   2.854   3.577   1.199
 3118TIP3    H2 9361   2.757   3.490   1.122
 3119TIP3   OH2 9362   2.299   3.903   0.834
 3119TIP3    H1 9363   2.240   3.973   0.862
 3119TIP3    H2 9364   2.246   3.823   0.840
 3120TIP3   OH2 9365   4.364   1.661   4.095
 3120TIP3    H1 9366   4.398   1.751   4.097
 3120TIP3    H2 9367   4.269   1.671   4.097
 3121TIP3   OH2 9368   0.821   0.203   1.588
 3121TIP3    H1 9369   0.888   0.258   1.630
 3121TIP3    H2 9370   0.753   0.264   1.560
 3122TIP3   OH2 9371   0.303   1.815   3.526
 3122TIP3    H1 9372   0.290   1.763   3.605
 3122TIP3    H2 9373   0.397   1.809   3.508
 3123TIP3   OH2 9374   3.625   1.617   0.884
 3123TIP3    H1 9375   3.529   1.617   0.876
 3123TIP3    H2 9376   3.641   1.637   0.976
 3124TIP3   OH2 9377   5.220   0.375   1.323
 3124TIP3    H1 9378   5.191   0.283   1.325
 3124TIP3    H2 9379   5.147   0.423   1.285
 3125TIP3   OH2 9380   5.912   4.463   3.079
 3125TIP3    H1 9381   5.908   4.471   2.983
 3125TIP3    H2 9382   5.915   4.369   3.095
 3126TIP3   OH2 9383   1.206   3.149   4.010
 3126TIP3    H1 9384   1.163   3.233   3.996
 3126TIP3    H2 9385   1.146   3.085   3.971
 3127TIP3   OH2 9386   5.379   2.170   1.725
 3127TIP3    H1 9387   5.412   2.220   1.650
 3127TIP3    H2 9388   5.299   2.214   1.751
 3128TIP3   OH2 9389   1.287   3.054   1.744
 3128TIP3    H1 9390   1.211   3.109   1.761
 3128TIP3    H2 9391   1.352   3.083   1.808
 3129TIP3   OH2 9392   3.011   0.542   1.648
 3129TIP3    H1 9393   2.988   0.630   1.678
 3129TIP3    H2 9394   3.019   0.551   1.553
 3130TIP3   OH2 9395   4.630   1.241   4.779
 3130TIP3    H1 9396   4.581   1.304   4.832
 3130TIP3    H2 9397   4.685   1.295   4.722
 3131TIP3   OH2 9398   1.894   3.897   4.408
 3131TIP3    H1 9399   1.816   3.890   4.353
 3131TIP3    H2 9400   1.866   3.952   4.482
 3132TIP3   OH2 9401   3.197   5.620   1.558
 3132TIP3    H1 9402   3.201   5.692   1.620
 3132TIP3    H2 9403   3.250   5.649   1.483
 3133TIP3   OH2 9404   0.885   3.312   3.349
 3133TIP3    H1 9405   0.818   3.378   3.335
 3133TIP3    H2 9406   0.938   3.346   3.420
 3134TIP3   OH2 9407   3.347   5.762   2.724
 3134TIP3    H1 9408   3.304   5.683   2.757
 3134TIP3    H2 9409   3.280   5.831   2.731
 3135TIP3   OH2 9410   4.269   2.476   2.283
 3135TIP3    H1 9411   4.312   2.419   2.220
 3135TIP3    H2 9412   4.269   2.426   2.365
 3136TIP3   OH2 9413   6.018   0.089   4.461
 3136TIP3    H1 9414   5.972   0.101   4.544
 3136TIP3    H2 9415   5.972   0.017   4.418
 3137TIP3   OH2 9416   5.386   0.321   1.656
 3137TIP3    H1 9417   5.350   0.258   1.593
 3137TIP3    H2 9418   5.338   0.305   1.737
 3138TIP3   OH2 9419   1.200   2.912   3.556
 3138TIP3    H1 9420   1.238   2.834   3.514
 3138TIP3    H2 9421   1.179   2.883   3.645
 3139TIP3   OH2 9422   0.797   4.314   4.611
 3139TIP3    H1 9423   0.724   4.338   4.555
 3139TIP3    H2 9424   0.831   4.234   4.573
 3140TIP3   OH2 9425   4.547   5.323   0.281
 3140TIP3    H1 9426   4.590   5.267   0.346
 3140TIP3    H2 9427   4.558   5.412   0.316
 3141TIP3   OH2 9428   5.207   3.526   3.981
 3141TIP3    H1 9429   5.195   3.527   3.886
 3141TIP3    H2 9430   5.217   3.434   4.004
 3142TIP3   OH2 9431   5.792   0.454   2.224
 3142TIP3    H1 9432   5.742   0.532   2.199
 3142TIP3    H2 9433   5.788   0.453   2.319
 3143TIP3   OH2 9434   2.019   5.944   2.498
 3143TIP3    H1 9435   2.007   6.025   2.448
 3143TIP3    H2 9436   2.113   5.929   2.499
 3144TIP3   OH2 9437   2.946   3.033   3.144
 3144TIP3    H1 9438   2.925   3.125   3.133
 3144TIP3    H2 9439   2.931   2.994   3.058
 3145TIP3   OH2 9440   2.787   0.901   2.441
 3145TIP3    H1 9441   2.743   0.865   2.364
 3145TIP3    H2 9442   2.728   0.880   2.514
 3146TIP3   OH2 9443   4.060   5.411   0.553
 3146TIP3    H1 9444   4.119   5.390   0.480
 3146TIP3    H2 9445   4.073   5.340   0.616
 3147TIP3   OH2 9446   3.512   0.396   5.082
 3147TIP3    H1 9447   3.426   0.436   5.076
 3147TIP3    H2 9448   3.554   0.440   5.156
 3148TIP3   OH2 9449   6.167   5.944   2.063
 3148TIP3    H1 9450   6.147   5.921   1.972
 3148TIP3    H2 9451   6.134   5.871   2.114
 3149TIP3   OH2 9452   2.361   4.435   4.455
 3149TIP3    H1 9453   2.448   4.473   4.464
 3149TIP3    H2 9454   2.320   4.447   4.541
 3150TIP3   OH2 9455   6.254   0.390   3.235
 3150TIP3    H1 9456   6.347   0.385   3.212
 3150TIP3    H2 9457   6.235   0.304   3.272
 3151TIP3   OH2 9458   6.110   5.666   5.059
 3151TIP3    H1 9459   6.129   5.615   4.981
 3151TIP3    H2 9460   6.081   5.751   5.025
 3152TIP3   OH2 9461   5.165   3.920   0.259
 3152TIP3    H1 9462   5.221   3.844   0.245
 3152TIP3    H2 9463   5.098   3.913   0.190
 3153TIP3   OH2 9464   0.595   1.442   4.917
 3153TIP3    H1 9465   0.657   1.371   4.902
 3153TIP3    H2 9466   0.532   1.435   4.845
 3154TIP3   OH2 9467   4.474   5.980   3.980
 3154TIP3    H1 9468   4.533   5.905   3.981
 3154TIP3    H2 9469   4.397   5.951   3.931
 3155TIP3   OH2 9470   1.790   5.389   0.515
 3155TIP3    H1 9471   1.835   5.414   0.434
 3155TIP3    H2 9472   1.843   5.428   0.584
 3156TIP3   OH2 9473   0.952   4.072   0.938
 3156TIP3    H1 9474   0.973   4.117   0.856
 3156TIP3    H2 9475   0.863   4.041   0.925
 3157TIP3   OH2 9476   5.181   4.412   4.557
 3157TIP3    H1 9477   5.251   4.347   4.568
 3157TIP3    H2 9478   5.220   4.494   4.586
 3158TIP3   OH2 9479   4.265   5.306   5.078
 3158TIP3    H1 9480   4.196   5.342   5.022
 3158TIP3    H2 9481   4.263   5.362   5.156
 3159TIP3   OH2 9482   2.749   3.306   1.932
 3159TIP3    H1 9483   2.732   3.326   1.840
 3159TIP3    H2 9484   2.726   3.213   1.941
 3160TIP3   OH2 9485   3.246   0.287   0.099
 3160TIP3    H1 9486   3.298   0.336   0.035
 3160TIP3    H2 9487   3.183   0.350   0.132
 3161TIP3   OH2 9488   2.417   2.403   1.118
 3161TIP3    H1 9489   2.365   2.483   1.125
 3161TIP3    H2 9490   2.360   2.334   1.152
 3162TIP3   OH2 9491   6.282   0.864   0.262
 3162TIP3    H1 9492   6.377   0.876   0.270
 3162TIP3    H2 9493   6.251   0.864   0.352
 3163TIP3   OH2 9494   4.577   2.775   3.108
 3163TIP3    H1 9495   4.662   2.784   3.150
 3163TIP3    H2 9496   4.514   2.800   3.176
 3164TIP3   OH2 9497   5.840   0.952   3.856
 3164TIP3    H1 9498   5.754   0.993   3.848
 3164TIP3    H2 9499   5.827   0.863   3.825
 3165TIP3   OH2 9500   0.243   3.862   3.611
 3165TIP3    H1 9501   0.196   3.781   3.627
 3165TIP3    H2 9502   0.217   3.920   3.682
 3166TIP3   OH2 9503   1.003   4.671   4.314
 3166TIP3    H1 9504   1.088   4.712   4.331
 3166TIP3    H2 9505   1.021   4.577   4.315
 3167TIP3   OH2 9506   0.907   0.537   1.153
 3167TIP3    H1 9507   0.950   0.602   1.098
 3167TIP3    H2 9508   0.975   0.471   1.169
 3168TIP3   OH2 9509   2.446   4.460   3.311
 3168TIP3    H1 9510   2.445   4.407   3.231
 3168TIP3    H2 9511   2.470   4.398   3.380
 3169TIP3   OH2 9512   5.116   4.646   3.578
 3169TIP3    H1 9513   5.146   4.723   3.625
 3169TIP3    H2 9514   5.196   4.597   3.559
 3170TIP3   OH2 9515   0.056  -0.008   1.206
 3170TIP3    H1 9516   0.134  -0.052   1.171
 3170TIP3    H2 9517   0.090   0.069   1.251
 3171TIP3   OH2 9518   6.296   3.901   2.473
 3171TIP3    H1 9519   6.367   3.964   2.459
 3171TIP3    H2 9520   6.226   3.953   2.513
 3172TIP3   OH2 9521   0.172   1.550   0.448
 3172TIP3    H1 9522   0.152   1.625   0.504
 3172TIP3    H2 9523   0.263   1.563   0.421
 3173TIP3   OH2 9524   1.134   1.078   4.034
 3173TIP3    H1 9525   1.174   1.096   3.949
 3173TIP3    H2 9526   1.141   0.983   4.043
 3174TIP3   OH2 9527   3.809   4.044   3.529
 3174TIP3    H1 9528   3.897   4.059   3.493
 3174TIP3    H2 9529   3.757   4.018   3.454
 3175TIP3   OH2 9530   0.892   1.028   4.804
 3175TIP3    H1 9531   0.874   0.957   4.741
 3175TIP3    H2 9532   0.863   0.993   4.888
 3176TIP3   OH2 9533   0.546   0.712   5.105
 3176TIP3    H1 9534   0.491   0.786   5.131
 3176TIP3    H2 9535   0.580   0.676   5.187
 3177TIP3   OH2 9536   0.933   4.776   0.906
 3177TIP3    H1 9537   0.929   4.697   0.852
 3177TIP3    H2 9538   1.026   4.790   0.921
 3178TIP3   OH2 9539   0.662   0.722   3.317
 3178TIP3    H1 9540   0.690   0.656   3.253
 3178TIP3    H2 9541   0.729   0.718   3.386
 3179TIP3   OH2 9542   2.545   5.028   0.061
 3179TIP3    H1 9543   2.540   4.991  -0.027
 3179TIP3    H2 9544   2.454   5.037   0.089
 3180TIP3   OH2 9545   4.338   4.576   1.082
 3180TIP3    H1 9546   4.412   4.523   1.110
 3180TIP3    H2 9547   4.377   4.661   1.060
 3181TIP3   OH2 9548   1.118   1.138   2.026
 3181TIP3    H1 9549   1.156   1.064   2.074
 3181TIP3    H2 9550   1.043   1.164   2.080
 3182TIP3   OH2 9551   0.113   4.127   4.922
 3182TIP3    H1 9552   0.176   4.060   4.950
 3182TIP3    H2 9553   0.149   4.209   4.957
 3183TIP3   OH2 9554   0.816   5.029   0.843
 3183TIP3    H1 9555   0.864   4.946   0.845
 3183TIP3    H2 9556   0.742   5.015   0.903
 3184TIP3   OH2 9557   1.561   4.337   4.630
 3184TIP3    H1 9558   1.522   4.422   4.649
 3184TIP3    H2 9559   1.655   4.354   4.622
 3185TIP3   OH2 9560   0.001   4.257   3.761
 3185TIP3    H1 9561   0.049   4.314   3.701
 3185TIP3    H2 9562   0.013   4.296   3.847
 3186TIP3   OH2 9563   1.598   1.880   0.305
 3186TIP3    H1 9564   1.635   1.846   0.387
 3186TIP3    H2 9565   1.568   1.968   0.326
 3187TIP3   OH2 9566   3.273   4.349   0.548
 3187TIP3    H1 9567   3.324   4.278   0.509
 3187TIP3    H2 9568   3.267   4.327   0.641
 3188TIP3   OH2 9569   0.022   4.193   2.014
 3188TIP3    H1 9570  -0.018   4.220   2.096
 3188TIP3    H2 9571   0.047   4.102   2.028
 3189TIP3   OH2 9572   5.689   1.686   0.247
 3189TIP3    H1 9573   5.780   1.713   0.236
 3189TIP3    H2 9574   5.674   1.690   0.341
 3190TIP3   OH2 9575   0.491   0.306   4.362
 3190TIP3    H1 9576   0.464   0.216   4.383
 3190TIP3    H2 9577   0.447   0.325   4.279
 3191TIP3   OH2 9578   2.350   3.552   1.089
 3191TIP3    H1 9579   2.346   3.647   1.076
 3191TIP3    H2 9580   2.390   3.543   1.176
 3192TIP3   OH2 9581   2.826   2.221   2.511
 3192TIP3    H1 9582   2.863   2.244   2.596
 3192TIP3    H2 9583   2.783   2.137   2.525
 3193TIP3   OH2 9584   6.192   0.012   1.901
 3193TIP3    H1 9585   6.271   0.066   1.904
 3193TIP3    H2 9586   6.187  -0.017   1.809
 3194TIP3   OH2 9587   4.345   5.726   4.149
 3194TIP3    H1 9588   4.298   5.787   4.093
 3194TIP3    H2 9589   4.435   5.730   4.117
 3195TIP3   OH2 9590   5.270   0.106   1.500
 3195TIP3    H1 9591   5.223   0.101   1.583
 3195TIP3    H2 9592   5.234   0.033   1.448
 3196TIP3   OH2 9593   3.919   5.376   2.346
 3196TIP3    H1 9594   4.001   5.326   2.346
 3196TIP3    H2 9595   3.940   5.456   2.297
 3197TIP3   OH2 9596   6.151   1.970   0.696
 3197TIP3    H1 9597   6.112   2.052   0.666
 3197TIP3    H2 9598   6.203   1.939   0.622
 3198TIP3   OH2 9599   2.494   1.278   0.564
 3198TIP3    H1 9600   2.504   1.338   0.638
 3198TIP3    H2 9601   2.434   1.210   0.596
 3199TIP3   OH2 9602   3.143   2.277   1.314
 3199TIP3    H1 9603   3.135   2.219   1.238
 3199TIP3    H2 9604   3.221   2.330   1.295
 3200TIP3   OH2 9605   1.002   3.343   3.877
 3200TIP3    H1 9606   0.948   3.317   3.951
 3200TIP3    H2 9607   0.941   3.391   3.819
 3201TIP3   OH2 9608   4.517   1.012   4.494
 3201TIP3    H1 9609   4.567   1.007   4.575
 3201TIP3    H2 9610   4.527   1.102   4.465
 3202TIP3   OH2 9611   5.202   1.603   4.418
 3202TIP3    H1 9612   5.285   1.560   4.399
 3202TIP3    H2 9613   5.141   1.531   4.434
 3203TIP3   OH2 9614   0.702   1.474   4.493
 3203TIP3    H1 9615   0.659   1.447   4.411
 3203TIP3    H2 9616   0.783   1.518   4.464
 3204TIP3   OH2 9617   2.715   5.224   4.654
 3204TIP3    H1 9618   2.707   5.319   4.645
 3204TIP3    H2 9619   2.709   5.191   4.565
 3205TIP3   OH2 9620   2.808   5.868   1.464
 3205TIP3    H1 9621   2.859   5.793   1.493
 3205TIP3    H2 9622   2.725   5.832   1.434
 3206TIP3   OH2 9623   3.278   0.586   5.069
 3206TIP3    H1 9624   3.288   0.675   5.036
 3206TIP3    H2 9625   3.275   0.597   5.164
 3207TIP3   OH2 9626   5.555   5.724   2.794
 3207TIP3    H1 9627   5.557   5.817   2.773
 3207TIP3    H2 9628   5.552   5.720   2.889
 3208TIP3   OH2 9629   5.615   4.752   2.885
 3208TIP3    H1 9630   5.653   4.715   2.965
 3208TIP3    H2 9631   5.570   4.831   2.914
 3209TIP3   OH2 9632   4.866   4.370   3.963
 3209TIP3    H1 9633   4.881   4.284   4.004
 3209TIP3    H2 9634   4.777   4.364   3.928
 3210TIP3   OH2 9635   0.205   4.243   1.622
 3210TIP3    H1 9636   0.192   4.284   1.537
 3210TIP3    H2 9637   0.299   4.221   1.625
 3211TIP3   OH2 9638   2.417   2.136   3.107
 3211TIP3    H1 9639   2.335   2.091   3.087
 3211TIP3    H2 9640   2.404   2.172   3.194
 3212TIP3   OH2 9641   3.000   1.722   5.103
 3212TIP3    H1 9642   2.909   1.723   5.132
 3212TIP3    H2 9643   3.047   1.767   5.173
 3213TIP3   OH2 9644   4.625   2.557   1.994
 3213TIP3    H1 9645   4.659   2.493   2.056
 3213TIP3    H2 9646   4.605   2.506   1.915
 3214TIP3   OH2 9647   4.911   1.432   3.315
 3214TIP3    H1 9648   4.872   1.424   3.401
 3214TIP3    H2 9649   4.934   1.342   3.290
 3215TIP3   OH2 9650   2.256   1.764   1.662
 3215TIP3    H1 9651   2.291   1.753   1.750
 3215TIP3    H2 9652   2.319   1.822   1.619
 3216TIP3   OH2 9653   1.319   1.664   3.844
 3216TIP3    H1 9654   1.396   1.635   3.893
 3216TIP3    H2 9655   1.333   1.758   3.833
 3217TIP3   OH2 9656   1.445   3.400   1.593
 3217TIP3    H1 9657   1.451   3.423   1.500
 3217TIP3    H2 9658   1.445   3.304   1.594
 3218TIP3   OH2 9659   0.797   4.573   0.105
 3218TIP3    H1 9660   0.759   4.630   0.038
 3218TIP3    H2 9661   0.806   4.488   0.060
 3219TIP3   OH2 9662   2.373   2.595   3.621
 3219TIP3    H1 9663   2.448   2.627   3.571
 3219TIP3    H2 9664   2.411   2.558   3.700
 3220TIP3   OH2 9665   6.333   2.131   2.094
 3220TIP3    H1 9666   6.299   2.063   2.151
 3220TIP3    H2 9667   6.310   2.213   2.139
 3221TIP3   OH2 9668   3.398   0.359   0.339
 3221TIP3    H1 9669   3.307   0.356   0.368
 3221TIP3    H2 9670   3.408   0.281   0.284
 3222TIP3   OH2 9671   5.862   0.346   3.516
 3222TIP3    H1 9672   5.836   0.340   3.425
 3222TIP3    H2 9673   5.786   0.314   3.565
 3223TIP3   OH2 9674   2.736   3.815   1.017
 3223TIP3    H1 9675   2.811   3.837   1.072
 3223TIP3    H2 9676   2.723   3.722   1.030
 3224TIP3   OH2 9677   1.912   3.021   0.590
 3224TIP3    H1 9678   1.849   3.092   0.581
 3224TIP3    H2 9679   1.925   3.012   0.684
 3225TIP3   OH2 9680   3.896   5.311   3.905
 3225TIP3    H1 9681   3.937   5.241   3.956
 3225TIP3    H2 9682   3.932   5.300   3.817
 3226TIP3   OH2 9683   4.020   0.068   0.055
 3226TIP3    H1 9684   4.099   0.065   0.001
 3226TIP3    H2 9685   3.948   0.060  -0.008
 3227TIP3   OH2 9686   0.921   4.893   1.279
 3227TIP3    H1 9687   1.001   4.840   1.273
 3227TIP3    H2 9688   0.930   4.941   1.361
 3228TIP3   OH2 9689   1.991   5.523   3.393
 3228TIP3    H1 9690   2.060   5.480   3.442
 3228TIP3    H2 9691   1.952   5.454   3.340
 3229TIP3   OH2 9692   3.122   5.012   3.160
 3229TIP3    H1 9693   3.136   5.078   3.228
 3229TIP3    H2 9694   3.065   4.946   3.201
 3230TIP3   OH2 9695   5.850   0.770   3.395
 3230TIP3    H1 9696   5.874   0.829   3.324
 3230TIP3    H2 9697   5.920   0.704   3.396
 3231TIP3   OH2 9698   4.187   3.807   0.872
 3231TIP3    H1 9699   4.240   3.748   0.926
 3231TIP3    H2 9700   4.248   3.842   0.808
 3232TIP3   OH2 9701   2.265   1.436  -0.025
 3232TIP3    H1 9702   2.208   1.446   0.051
 3232TIP3    H2 9703   2.353   1.453   0.010
 3233TIP3   OH2 9704   5.234   1.659   0.452
 3233TIP3    H1 9705   5.253   1.735   0.507
 3233TIP3    H2 9706   5.320   1.617   0.440
 3234TIP3   OH2 9707   1.099   3.533   4.600
 3234TIP3    H1 9708   1.004   3.546   4.602
 3234TIP3    H2 9709   1.131   3.578   4.677
 3235TIP3   OH2 9710   1.337   0.233   4.568
 3235TIP3    H1 9711   1.377   0.148   4.588
 3235TIP3    H2 9712   1.249   0.227   4.604
 3236TIP3   OH2 9713   1.407   4.630   3.681
 3236TIP3    H1 9714   1.461   4.621   3.760
 3236TIP3    H2 9715   1.461   4.682   3.621
 3237TIP3   OH2 9716   3.703   2.693   4.955
 3237TIP3    H1 9717   3.624   2.743   4.976
 3237TIP3    H2 9718   3.751   2.687   5.038
 3238TIP3   OH2 9719   3.281   3.335   1.640
 3238TIP3    H1 9720   3.251   3.406   1.697
 3238TIP3    H2 9721   3.371   3.357   1.619
 3239TIP3   OH2 9722   4.278   4.147   1.106
 3239TIP3    H1 9723   4.182   4.145   1.096
 3239TIP3    H2 9724   4.309   4.080   1.045
 3240TIP3   OH2 9725   5.230   1.648   1.575
 3240TIP3    H1 9726   5.279   1.617   1.499
 3240TIP3    H2 9727   5.201   1.568   1.619
 3241TIP3   OH2 9728   2.180   1.577   4.109
 3241TIP3    H1 9729   2.195   1.621   4.192
 3241TIP3    H2 9730   2.111   1.628   4.066
 3242TIP3   OH2 9731   1.192   2.700   0.542
 3242TIP3    H1 9732   1.146   2.682   0.623
 3242TIP3    H2 9733   1.255   2.628   0.534
 3243TIP3   OH2 9734   6.305   0.559   4.577
 3243TIP3    H1 9735   6.330   0.576   4.487
 3243TIP3    H2 9736   6.246   0.484   4.572
 3244TIP3   OH2 9737   0.384   3.224   1.900
 3244TIP3    H1 9738   0.387   3.271   1.817
 3244TIP3    H2 9739   0.317   3.270   1.951
 3245TIP3   OH2 9740   1.801   0.150   4.763
 3245TIP3    H1 9741   1.758   0.235   4.748
 3245TIP3    H2 9742   1.879   0.172   4.814
 3246TIP3   OH2 9743   0.400   4.123   4.179
 3246TIP3    H1 9744   0.492   4.111   4.157
 3246TIP3    H2 9745   0.380   4.212   4.150
 3247TIP3   OH2 9746   1.636   4.038   0.031
 3247TIP3    H1 9747   1.572   4.043  -0.040
 3247TIP3    H2 9748   1.586   4.006   0.106
 3248TIP3   OH2 9749   5.672   5.961   2.669
 3248TIP3    H1 9750   5.694   5.915   2.588
 3248TIP3    H2 9751   5.643   6.047   2.640
 3249TIP3   OH2 9752   5.590   3.324   1.570
 3249TIP3    H1 9753   5.651   3.269   1.620
 3249TIP3    H2 9754   5.511   3.271   1.563
 3250TIP3   OH2 9755   3.442   2.016   3.573
 3250TIP3    H1 9756   3.451   2.095   3.625
 3250TIP3    H2 9757   3.372   2.034   3.511
 3251TIP3   OH2 9758   1.092   0.497   3.432
 3251TIP3    H1 9759   1.123   0.449   3.509
 3251TIP3    H2 9760   1.170   0.509   3.378
 3252TIP3   OH2 9761   1.410   4.618   5.072
 3252TIP3    H1 9762   1.397   4.705   5.110
 3252TIP3    H2 9763   1.322   4.579   5.071
 3253TIP3   OH2 9764   5.549   0.857   3.046
 3253TIP3    H1 9765   5.590   0.941   3.064
 3253TIP3    H2 9766   5.486   0.845   3.117
 3254TIP3   OH2 9767   2.410   1.163   2.326
 3254TIP3    H1 9768   2.472   1.217   2.374
 3254TIP3    H2 9769   2.434   1.073   2.350
 3255TIP3   OH2 9770   4.634   0.581   0.732
 3255TIP3    H1 9771   4.596   0.668   0.719
 3255TIP3    H2 9772   4.559   0.523   0.740
 3256TIP3   OH2 9773   2.502   5.692   1.169
 3256TIP3    H1 9774   2.492   5.606   1.211
 3256TIP3    H2 9775   2.597   5.708   1.171
 3257TIP3   OH2 9776   3.074   3.775   3.160
 3257TIP3    H1 9777   3.154   3.794   3.111
 3257TIP3    H2 9778   3.007   3.761   3.093
 3258TIP3   OH2 9779   0.593   3.395   4.334
 3258TIP3    H1 9780   0.558   3.378   4.246
 3258TIP3    H2 9781   0.686   3.412   4.320
 3259TIP3   OH2 9782   5.955   3.352   0.413
 3259TIP3    H1 9783   5.869   3.395   0.415
 3259TIP3    H2 9784   6.017   3.423   0.401
 3260TIP3   OH2 9785   1.910   1.268   3.714
 3260TIP3    H1 9786   2.001   1.238   3.720
 3260TIP3    H2 9787   1.859   1.187   3.711
 3261TIP3   OH2 9788   4.564   5.915   0.286
 3261TIP3    H1 9789   4.522   5.829   0.286
 3261TIP3    H2 9790   4.522   5.962   0.358
 3262TIP3   OH2 9791   1.201   1.776   4.903
 3262TIP3    H1 9792   1.270   1.840   4.888
 3262TIP3    H2 9793   1.179   1.786   4.996
 3263TIP3   OH2 9794   0.184   4.919   2.615
 3263TIP3    H1 9795   0.109   4.977   2.624
 3263TIP3    H2 9796   0.200   4.886   2.703
 3264TIP3   OH2 9797   3.424   3.732   3.296
 3264TIP3    H1 9798   3.330   3.728   3.317
 3264TIP3    H2 9799   3.467   3.698   3.374
 3265TIP3   OH2 9800   3.529   4.442   1.902
 3265TIP3    H1 9801   3.462   4.374   1.892
 3265TIP3    H2 9802   3.519   4.496   1.823
 3266TIP3   OH2 9803   5.663   5.260   0.094
 3266TIP3    H1 9804   5.664   5.250  -0.001
 3266TIP3    H2 9805   5.746   5.224   0.123
 3267TIP3   OH2 9806   3.915   4.359   1.357
 3267TIP3    H1 9807   3.958   4.409   1.426
 3267TIP3    H2 9808   3.828   4.398   1.349
 3268TIP3   OH2 9809   2.520   4.762   0.478
 3268TIP3    H1 9810   2.593   4.703   0.455
 3268TIP3    H2 9811   2.486   4.726   0.560
 3269TIP3   OH2 9812   0.191   4.433   0.686
 3269TIP3    H1 9813   0.226   4.522   0.688
 3269TIP3    H2 9814   0.230   4.389   0.761
 3270TIP3   OH2 9815   3.104   3.829   3.764
 3270TIP3    H1 9816   3.182   3.866   3.807
 3270TIP3    H2 9817   3.041   3.901   3.765
 3271TIP3   OH2 9818   4.150   5.233   0.729
 3271TIP3    H1 9819   4.223   5.237   0.667
 3271TIP3    H2 9820   4.191   5.209   0.812
 3272TIP3   OH2 9821   2.685   5.448   1.710
 3272TIP3    H1 9822   2.645   5.534   1.695
 3272TIP3    H2 9823   2.776   5.469   1.735
 3273TIP3   OH2 9824   0.591   0.991   4.266
 3273TIP3    H1 9825   0.627   1.077   4.246
 3273TIP3    H2 9826   0.621   0.971   4.354
 3274TIP3   OH2 9827   3.105   0.211   3.008
 3274TIP3    H1 9828   3.141   0.237   3.093
 3274TIP3    H2 9829   3.179   0.176   2.960
 3275TIP3   OH2 9830   0.121   0.178   4.957
 3275TIP3    H1 9831   0.109   0.240   4.885
 3275TIP3    H2 9832   0.053   0.202   5.020
 3276TIP3   OH2 9833   1.996   3.116   1.982
 3276TIP3    H1 9834   1.978   3.114   2.076
 3276TIP3    H2 9835   2.024   3.027   1.962
 3277TIP3   OH2 9836   2.565   2.668   4.973
 3277TIP3    H1 9837   2.533   2.627   5.053
 3277TIP3    H2 9838   2.564   2.598   4.908
 3278TIP3   OH2 9839   3.678   5.175   0.187
 3278TIP3    H1 9840   3.688   5.234   0.262
 3278TIP3    H2 9841   3.726   5.219   0.117
 3279TIP3   OH2 9842   3.004   3.356   1.722
 3279TIP3    H1 9843   2.965   3.270   1.706
 3279TIP3    H2 9844   3.048   3.347   1.807
 3280TIP3   OH2 9845   6.040   5.711   2.612
 3280TIP3    H1 9846   6.046   5.806   2.612
 3280TIP3    H2 9847   5.954   5.693   2.649
 3281TIP3   OH2 9848   0.583   4.245   0.263
 3281TIP3    H1 9849   0.617   4.333   0.275
 3281TIP3    H2 9850   0.632   4.211   0.188
 3282TIP3   OH2 9851   1.380   2.792   1.535
 3282TIP3    H1 9852   1.323   2.859   1.571
 3282TIP3    H2 9853   1.331   2.757   1.460
 3283TIP3   OH2 9854   0.841   2.401   4.729
 3283TIP3    H1 9855   0.801   2.439   4.807
 3283TIP3    H2 9856   0.770   2.397   4.665
 3284TIP3   OH2 9857   6.067   5.223   0.144
 3284TIP3    H1 9858   6.109   5.197   0.062
 3284TIP3    H2 9859   5.998   5.158   0.157
 3285TIP3   OH2 9860   5.440   3.738   1.195
 3285TIP3    H1 9861   5.510   3.796   1.226
 3285TIP3    H2 9862   5.485   3.668   1.149
 3286TIP3   OH2 9863   1.319   0.111   1.774
 3286TIP3    H1 9864   1.386   0.051   1.809
 3286TIP3    H2 9865   1.304   0.174   1.845
 3287TIP3   OH2 9866   3.487   2.849   5.039
 3287TIP3    H1 9867   3.506   2.943   5.037
 3287TIP3    H2 9868   3.503   2.824   5.130
 3288TIP3   OH2 9869   0.745   3.316   1.516
 3288TIP3    H1 9870   0.790   3.245   1.471
 3288TIP3    H2 9871   0.735   3.285   1.606
 3289TIP3   OH2 9872   1.082   4.341   3.346
 3289TIP3    H1 9873   1.080   4.271   3.411
 3289TIP3    H2 9874   1.149   4.315   3.284
 3290TIP3   OH2 9875   4.378   1.448   4.842
 3290TIP3    H1 9876   4.337   1.496   4.914
 3290TIP3    H2 9877   4.444   1.509   4.808
 3291TIP3   OH2 9878   6.291   5.070   4.938
 3291TIP3    H1 9879   6.271   5.027   5.021
 3291TIP3    H2 9880   6.278   5.163   4.955
 3292TIP3   OH2 9881   6.244   5.597   3.200
 3292TIP3    H1 9882   6.213   5.665   3.142
 3292TIP3    H2 9883   6.170   5.537   3.209
 3293TIP3   OH2 9884   2.963   4.798   2.083
 3293TIP3    H1 9885   3.002   4.716   2.111
 3293TIP3    H2 9886   2.948   4.787   1.989
 3294TIP3   OH2 9887   6.284   3.380   1.403
 3294TIP3    H1 9888   6.272   3.374   1.498
 3294TIP3    H2 9889   6.296   3.473   1.386
 3295TIP3   OH2 9890   5.541   4.462   0.708
 3295TIP3    H1 9891   5.445   4.464   0.718
 3295TIP3    H2 9892   5.573   4.518   0.778
 3296TIP3   OH2 9893   5.820   2.294   4.625
 3296TIP3    H1 9894   5.757   2.362   4.651
 3296TIP3    H2 9895   5.838   2.313   4.533
 3297TIP3   OH2 9896   3.359   1.756   4.614
 3297TIP3    H1 9897   3.281   1.722   4.569
 3297TIP3    H2 9898   3.325   1.806   4.687
 3298TIP3   OH2 9899   5.327   4.855   1.960
 3298TIP3    H1 9900   5.354   4.872   2.051
 3298TIP3    H2 9901   5.269   4.928   1.938
 3299TIP3   OH2 9902   3.426   4.689   1.351
 3299TIP3    H1 9903   3.450   4.748   1.423
 3299TIP3    H2 9904   3.334   4.671   1.364
 3300TIP3   OH2 9905   2.586   3.492   4.933
 3300TIP3    H1 9906   2.652   3.561   4.926
 3300TIP3    H2 9907   2.563   3.472   4.843
 3301TIP3   OH2 9908   4.656   4.138   0.547
 3301TIP3    H1 9909   4.647   4.179   0.462
 3301TIP3    H2 9910   4.747   4.155   0.573
 3302TIP3   OH2 9911   3.395   1.505   2.274
 3302TIP3    H1 9912   3.336   1.509   2.350
 3302TIP3    H2 9913   3.342   1.538   2.201
 3303TIP3   OH2 9914   3.031   1.028   4.472
 3303TIP3    H1 9915   3.071   1.066   4.550
 3303TIP3    H2 9916   2.955   1.083   4.455
 3304TIP3   OH2 9917   5.992   0.114   2.669
 3304TIP3    H1 9918   6.054   0.186   2.683
 3304TIP3    H2 9919   6.042   0.035   2.692
 3305TIP3   OH2 9920   1.671   1.534   2.716
 3305TIP3    H1 9921   1.621   1.519   2.636
 3305TIP3    H2 9922   1.750   1.481   2.705
 3306TIP3   OH2 9923   2.201   0.523   4.346
 3306TIP3    H1 9924   2.241   0.609   4.354
 3306TIP3    H2 9925   2.231   0.489   4.262
 3307TIP3   OH2 9926   3.199   2.720   3.488
 3307TIP3    H1 9927   3.113   2.730   3.529
 3307TIP3    H2 9928   3.195   2.776   3.410
 3308TIP3   OH2 9929   5.215   5.353   1.475
 3308TIP3    H1 9930   5.287   5.293   1.457
 3308TIP3    H2 9931   5.234   5.389   1.562
 3309TIP3   OH2 9932   5.799   3.645   1.826
 3309TIP3    H1 9933   5.800   3.740   1.839
 3309TIP3    H2 9934   5.764   3.610   1.908
 3310TIP3   OH2 9935   5.496   0.820   0.124
 3310TIP3    H1 9936   5.433   0.765   0.078
 3310TIP3    H2 9937   5.461   0.828   0.213
 3311TIP3   OH2 9938   6.194   3.895   1.064
 3311TIP3    H1 9939   6.274   3.925   1.108
 3311TIP3    H2 9940   6.143   3.975   1.050
 3312TIP3   OH2 9941   0.685   1.217   0.356
 3312TIP3    H1 9942   0.648   1.160   0.424
 3312TIP3    H2 9943   0.611   1.268   0.324
 3313TIP3   OH2 9944   6.040   0.076   0.480
 3313TIP3    H1 9945   5.951   0.082   0.515
 3313TIP3    H2 9946   6.097   0.087   0.556
 3314TIP3   OH2 9947   5.950   2.008   3.730
 3314TIP3    H1 9948   5.889   2.071   3.769
 3314TIP3    H2 9949   6.028   2.012   3.785
 3315TIP3   OH2 9950   5.495   3.349   0.428
 3315TIP3    H1 9951   5.527   3.259   0.422
 3315TIP3    H2 9952   5.532   3.382   0.510
 3316TIP3   OH2 9953   3.083   2.972   0.384
 3316TIP3    H1 9954   3.000   2.979   0.337
 3316TIP3    H2 9955   3.069   2.901   0.446
 3317TIP3   OH2 9956   4.282   5.827   5.084
 3317TIP3    H1 9957   4.249   5.790   5.002
 3317TIP3    H2 9958   4.352   5.886   5.057
 3318TIP3   OH2 9959   1.156   4.090   2.585
 3318TIP3    H1 9960   1.081   4.147   2.600
 3318TIP3    H2 9961   1.232   4.146   2.599
 3319TIP3   OH2 9962   3.069   5.599   1.012
 3319TIP3    H1 9963   3.015   5.670   1.047
 3319TIP3    H2 9964   3.048   5.524   1.067
 3320TIP3   OH2 9965   1.118   3.191   4.660
 3320TIP3    H1 9966   1.119   3.096   4.667
 3320TIP3    H2 9967   1.185   3.211   4.596
 3321TIP3   OH2 9968   1.480   1.227   1.937
 3321TIP3    H1 9969   1.549   1.254   1.877
 3321TIP3    H2 9970   1.524   1.171   2.001
 3322TIP3   OH2 9971   5.958   5.014   5.046
 3322TIP3    H1 9972   5.912   4.971   4.973
 3322TIP3    H2 9973   5.966   4.946   5.112
 3323TIP3   OH2 9974   5.927   2.757   1.752
 3323TIP3    H1 9975   5.981   2.686   1.719
 3323TIP3    H2 9976   5.857   2.766   1.688
 3324TIP3   OH2 9977   1.751   5.076   1.267
 3324TIP3    H1 9978   1.844   5.095   1.253
 3324TIP3    H2 9979   1.705   5.155   1.239
 3325TIP3   OH2 9980   0.626   1.746   4.153
 3325TIP3    H1 9981   0.580   1.807   4.096
 3325TIP3    H2 9982   0.690   1.801   4.199
 3326TIP3   OH2 9983   4.384   2.002   0.315
 3326TIP3    H1 9984   4.341   2.082   0.284
 3326TIP3    H2 9985   4.409   2.022   0.405
 3327TIP3   OH2 9986   1.294   5.225   3.568
 3327TIP3    H1 9987   1.227   5.244   3.634
 3327TIP3    H2 9988   1.284   5.295   3.504
 3328TIP3   OH2 9989   0.818   4.002   0.608
 3328TIP3    H1 9990   0.737   3.973   0.566
 3328TIP3    H2 9991   0.856   3.921   0.643
 3329TIP3   OH2 9992   4.819   3.842   2.020
 3329TIP3    H1 9993   4.769   3.886   1.951
 3329TIP3    H2 9994   4.892   3.901   2.037
 3330TIP3   OH2 9995   0.085   3.635   1.381
 3330TIP3    H1 9996   0.148   3.676   1.440
 3330TIP3    H2 9997   0.036   3.709   1.343
 3331TIP3   OH2 9998   5.202   0.379   2.931
 3331TIP3    H1 9999   5.293   0.393   2.956
 3331TIP3    H210000   5.162   0.466   2.937
 3332TIP3   OH210001   1.096   2.708   1.085
 3332TIP3    H110002   1.007   2.673   1.088
 3332TIP3    H210003   1.090   2.795   1.124
 3333TIP3   OH210004   1.380   4.217   4.316
 3333TIP3    H110005   1.356   4.183   4.230
 3333TIP3    H210006   1.436   4.293   4.297
 3334TIP3   OH210007   5.468   5.837   1.939
 3334TIP3    H110008   5.383   5.881   1.929
 3334TIP3    H210009   5.513   5.888   2.006
 3335TIP3   OH210010   4.160   3.919   4.945
 3335TIP3    H110011   4.242   3.936   4.898
 3335TIP3    H210012   4.147   3.824   4.937
 3336TIP3   OH210013   1.792   1.563   1.017
 3336TIP3    H110014   1.733   1.603   1.081
 3336TIP3    H210015   1.735   1.538   0.944
 3337TIP3   OH210016   4.132   2.889   3.101
 3337TIP3    H110017   4.040   2.878   3.122
 3337TIP3    H210018   4.172   2.925   3.180
 3338TIP3   OH210019   5.078   1.971   2.702
 3338TIP3    H110020   4.983   1.986   2.698
 3338TIP3    H210021   5.089   1.879   2.676
 3339TIP3   OH210022   1.469   5.185   3.021
 3339TIP3    H110023   1.503   5.246   3.087
 3339TIP3    H210024   1.374   5.192   3.030
 3340TIP3   OH210025   1.690   0.901   4.705
 3340TIP3    H110026   1.737   0.823   4.679
 3340TIP3    H210027   1.758   0.964   4.728
 3341TIP3   OH210028   2.772   2.217   0.249
 3341TIP3    H110029   2.851   2.271   0.236
 3341TIP3    H210030   2.700   2.274   0.221
 3342TIP3   OH210031   3.648   5.897   2.941
 3342TIP3    H110032   3.721   5.900   3.004
 3342TIP3    H210033   3.572   5.874   2.994
 3343TIP3   OH210034   4.024   5.647   4.431
 3343TIP3    H110035   4.088   5.576   4.430
 3343TIP3    H210036   3.964   5.624   4.502
 3344TIP3   OH210037   2.158   2.556   1.149
 3344TIP3    H110038   2.199   2.636   1.184
 3344TIP3    H210039   2.069   2.583   1.128
 3345TIP3   OH210040   0.697   5.428   4.441
 3345TIP3    H110041   0.773   5.387   4.400
 3345TIP3    H210042   0.624   5.370   4.421
 3346TIP3   OH210043   4.480   5.196   4.962
 3346TIP3    H110044   4.424   5.242   5.025
 3346TIP3    H210045   4.508   5.118   5.009
 3347TIP3   OH210046   0.191   1.492   3.472
 3347TIP3    H110047   0.275   1.477   3.515
 3347TIP3    H210048   0.126   1.483   3.542
 3348TIP3   OH210049   6.272   3.798   2.737
 3348TIP3    H110050   6.334   3.813   2.808
 3348TIP3    H210051   6.304   3.854   2.666
 3349TIP3   OH210052   5.901   1.818   4.934
 3349TIP3    H110053   5.820   1.857   4.901
 3349TIP3    H210054   5.875   1.731   4.964
 3350TIP3   OH210055   3.324   5.681   2.187
 3350TIP3    H110056   3.347   5.773   2.188
 3350TIP3    H210057   3.333   5.653   2.278
 3351TIP3   OH210058   1.639   2.199   1.373
 3351TIP3    H110059   1.703   2.266   1.351
 3351TIP3    H210060   1.623   2.212   1.467
 3352TIP3   OH210061   2.298   3.158   3.357
 3352TIP3    H110062   2.233   3.151   3.427
 3352TIP3    H210063   2.256   3.117   3.281
 3353TIP3   OH210064   3.981   5.098   0.104
 3353TIP3    H110065   4.062   5.121   0.059
 3353TIP3    H210066   3.911   5.134   0.049
 3354TIP3   OH210067   5.871   1.433   2.629
 3354TIP3    H110068   5.936   1.397   2.570
 3354TIP3    H210069   5.917   1.503   2.675
 3355TIP3   OH210070   1.448   0.578   1.947
 3355TIP3    H110071   1.490   0.498   1.980
 3355TIP3    H210072   1.419   0.625   2.026
 3356TIP3   OH210073   5.067   0.314   3.856
 3356TIP3    H110074   5.132   0.379   3.829
 3356TIP3    H210075   4.983   0.359   3.848
 3357TIP3   OH210076   1.235   4.061   5.080
 3357TIP3    H110077   1.242   4.116   5.002
 3357TIP3    H210078   1.276   3.979   5.055
 3358TIP3   OH210079   5.195   5.353   0.534
 3358TIP3    H110080   5.257   5.316   0.471
 3358TIP3    H210081   5.150   5.278   0.571
 3359TIP3   OH210082   1.772   1.011   3.642
 3359TIP3    H110083   1.685   1.024   3.681
 3359TIP3    H210084   1.776   0.918   3.622
 3360TIP3   OH210085   5.249   0.535   4.458
 3360TIP3    H110086   5.200   0.461   4.422
 3360TIP3    H210087   5.339   0.503   4.466
 3361TIP3   OH210088   0.906   3.227   4.130
 3361TIP3    H110089   0.962   3.173   4.185
 3361TIP3    H210090   0.892   3.306   4.182
 3362TIP3   OH210091   2.171   5.249   1.490
 3362TIP3    H110092   2.261   5.235   1.462
 3362TIP3    H210093   2.175   5.248   1.586
 3363TIP3   OH210094   3.813   1.062   0.790
 3363TIP3    H110095   3.835   1.145   0.832
 3363TIP3    H210096   3.852   1.068   0.703
 3364TIP3   OH210097   3.526   0.802   2.532
 3364TIP3    H110098   3.454   0.762   2.580
 3364TIP3    H210099   3.537   0.748   2.454
 3365TIP3   OH210100   4.016   2.869   3.842
 3365TIP3    H110101   3.933   2.898   3.804
 3365TIP3    H210102   4.061   2.951   3.865
 3366TIP3   OH210103   2.730   3.574   0.175
 3366TIP3    H110104   2.638   3.551   0.185
 3366TIP3    H210105   2.751   3.622   0.255
 3367TIP3   OH210106   5.730   1.716   0.513
 3367TIP3    H110107   5.700   1.743   0.600
 3367TIP3    H210108   5.824   1.698   0.525
 3368TIP3   OH210109   3.291   3.220   2.061
 3368TIP3    H110110   3.371   3.201   2.109
 3368TIP3    H210111   3.303   3.176   1.976
 3369TIP3   OH210112   1.593   3.458   4.995
 3369TIP3    H110113   1.537   3.397   5.043
 3369TIP3    H210114   1.594   3.423   4.905
 3370TIP3   OH210115   2.431   3.369   3.844
 3370TIP3    H110116   2.459   3.350   3.755
 3370TIP3    H210117   2.509   3.404   3.887
 3371TIP3   OH210118   0.422   1.982   2.262
 3371TIP3    H110119   0.504   1.949   2.298
 3371TIP3    H210120   0.387   1.910   2.211
 3372TIP3   OH210121   1.478   3.971   3.076
 3372TIP3    H110122   1.528   3.940   3.000
 3372TIP3    H210123   1.412   4.029   3.039
 3373TIP3   OH210124   6.089   1.316   2.845
 3373TIP3    H110125   5.997   1.290   2.835
 3373TIP3    H210126   6.092   1.406   2.815
 3374TIP3   OH210127   1.433   2.106   0.228
 3374TIP3    H110128   1.438   2.129   0.135
 3374TIP3    H210129   1.447   2.189   0.274
 3375TIP3   OH210130   5.614   4.029   1.302
 3375TIP3    H110131   5.579   4.069   1.222
 3375TIP3    H210132   5.536   4.003   1.352
 3376TIP3   OH210133   4.560   2.418   1.774
 3376TIP3    H110134   4.556   2.328   1.807
 3376TIP3    H210135   4.558   2.410   1.679
 3377TIP3   OH210136   2.303   4.823   1.230
 3377TIP3    H110137   2.212   4.847   1.243
 3377TIP3    H210138   2.322   4.848   1.139
 3378TIP3   OH210139   4.257   2.414   0.690
 3378TIP3    H110140   4.259   2.384   0.599
 3378TIP3    H210141   4.346   2.397   0.723
 3379TIP3   OH210142   4.413   5.659   2.293
 3379TIP3    H110143   4.328   5.635   2.258
 3379TIP3    H210144   4.444   5.581   2.338
 3380TIP3   OH210145   4.807   2.489   0.288
 3380TIP3    H110146   4.800   2.432   0.211
 3380TIP3    H210147   4.720   2.528   0.296
 3381TIP3   OH210148   3.057   4.638   0.675
 3381TIP3    H110149   3.010   4.688   0.743
 3381TIP3    H210150   3.150   4.650   0.697
 3382TIP3   OH210151   1.225   0.023   0.184
 3382TIP3    H110152   1.271  -0.045   0.233
 3382TIP3    H210153   1.169   0.065   0.250
 3383TIP3   OH210154   0.338   5.835   3.649
 3383TIP3    H110155   0.250   5.858   3.620
 3383TIP3    H210156   0.390   5.914   3.633
 3384TIP3   OH210157   0.938   1.160   1.768
 3384TIP3    H110158   0.999   1.118   1.708
 3384TIP3    H210159   0.987   1.168   1.850
 3385TIP3   OH210160   5.670   2.039   1.476
 3385TIP3    H110161   5.760   2.026   1.507
 3385TIP3    H210162   5.628   2.089   1.545
 3386TIP3   OH210163   0.147   4.332   0.353
 3386TIP3    H110164   0.062   4.330   0.310
 3386TIP3    H210165   0.131   4.378   0.436
 3387TIP3   OH210166   5.999   5.006   1.963
 3387TIP3    H110167   6.082   4.977   1.924
 3387TIP3    H210168   5.965   5.072   1.903
 3388TIP3   OH210169   3.483   4.371   3.168
 3388TIP3    H110170   3.500   4.341   3.257
 3388TIP3    H210171   3.395   4.409   3.172
 3389TIP3   OH210172   0.157   0.227   0.135
 3389TIP3    H110173   0.192   0.263   0.216
 3389TIP3    H210174   0.227   0.171   0.102
 3390TIP3   OH210175   1.870   4.146   1.422
 3390TIP3    H110176   1.862   4.241   1.423
 3390TIP3    H210177   1.784   4.114   1.450
 3391TIP3   OH210178   0.789   4.290   0.044
 3391TIP3    H110179   0.858   4.225   0.048
 3391TIP3    H210180   0.744   4.272  -0.038
 3392TIP3   OH210181   3.852   0.252   1.578
 3392TIP3    H110182   3.936   0.288   1.604
 3392TIP3    H210183   3.820   0.207   1.656
 3393TIP3   OH210184   0.438   4.946   4.193
 3393TIP3    H110185   0.507   4.880   4.191
 3393TIP3    H210186   0.459   5.005   4.121
 3394TIP3   OH210187   5.089   1.438   0.878
 3394TIP3    H110188   5.036   1.403   0.806
 3394TIP3    H210189   5.178   1.412   0.858
 3395TIP3   OH210190   4.014   0.680   3.891
 3395TIP3    H110191   4.050   0.602   3.848
 3395TIP3    H210192   3.919   0.668   3.887
 3396TIP3   OH210193   0.574   3.760   4.909
 3396TIP3    H110194   0.641   3.821   4.939
 3396TIP3    H210195   0.531   3.730   4.989
 3397TIP3   OH210196   1.068   3.515   3.160
 3397TIP3    H110197   1.035   3.425   3.160
 3397TIP3    H210198   1.072   3.538   3.253
 3398TIP3   OH210199   3.974   2.774   3.296
 3398TIP3    H110200   3.902   2.713   3.280
 3398TIP3    H210201   4.052   2.718   3.304
 3399TIP3   OH210202   4.581   1.009   0.363
 3399TIP3    H110203   4.557   0.957   0.286
 3399TIP3    H210204   4.626   1.085   0.328
 3400TIP3   OH210205   3.085   4.764   2.361
 3400TIP3    H110206   3.169   4.805   2.343
 3400TIP3    H210207   3.107   4.682   2.406
 3401TIP3   OH210208   2.543   2.190   4.872
 3401TIP3    H110209   2.605   2.144   4.928
 3401TIP3    H210210   2.474   2.126   4.854
 3402TIP3   OH210211   5.455   5.460   0.190
 3402TIP3    H110212   5.495   5.381   0.228
 3402TIP3    H210213   5.529   5.520   0.177
 3403TIP3   OH210214   5.352   1.924   0.709
 3403TIP3    H110215   5.371   1.985   0.780
 3403TIP3    H210216   5.260   1.939   0.689
 3404TIP3   OH210217   1.353   3.839   5.005
 3404TIP3    H110218   1.431   3.796   5.039
 3404TIP3    H210219   1.281   3.778   5.022
 3405TIP3   OH210220   3.342   2.980   3.430
 3405TIP3    H110221   3.319   3.057   3.482
 3405TIP3    H210222   3.314   2.905   3.483
 3406TIP3   OH210223   4.670   3.059   0.788
 3406TIP3    H110224   4.668   3.147   0.750
 3406TIP3    H210225   4.579   3.044   0.816
 3407TIP3   OH210226   4.742   5.227   0.964
 3407TIP3    H110227   4.819   5.222   0.907
 3407TIP3    H210228   4.745   5.314   1.001
 3408TIP3   OH210229   6.173   2.150   1.858
 3408TIP3    H110230   6.193   2.162   1.765
 3408TIP3    H210231   6.256   2.170   1.902
 3409TIP3   OH210232   1.748   3.967   0.740
 3409TIP3    H110233   1.837   3.983   0.769
 3409TIP3    H210234   1.758   3.906   0.666
 3410TIP3   OH210235   5.321   3.402   2.463
 3410TIP3    H110236   5.414   3.403   2.440
 3410TIP3    H210237   5.320   3.410   2.559
 3411TIP3   OH210238   6.160   2.332   2.943
 3411TIP3    H110239   6.243   2.350   2.986
 3411TIP3    H210240   6.101   2.399   2.976
 3412TIP3   OH210241   3.473   2.693   2.637
 3412TIP3    H110242   3.417   2.738   2.700
 3412TIP3    H210243   3.562   2.709   2.669
 3413TIP3   OH210244   5.093   2.894   0.282
 3413TIP3    H110245   5.096   2.811   0.330
 3413TIP3    H210246   5.124   2.872   0.194
 3414TIP3   OH210247   0.749   3.278   3.618
 3414TIP3    H110248   0.719   3.295   3.529
 3414TIP3    H210249   0.782   3.362   3.649
 3415TIP3   OH210250   2.823   4.833   2.366
 3415TIP3    H110251   2.775   4.760   2.405
 3415TIP3    H210252   2.915   4.810   2.375
 3416TIP3   OH210253   0.513   3.219   2.529
 3416TIP3    H110254   0.592   3.171   2.552
 3416TIP3    H210255   0.518   3.299   2.582
 3417TIP3   OH210256   4.454   0.937   1.546
 3417TIP3    H110257   4.422   1.010   1.494
 3417TIP3    H210258   4.413   0.949   1.632
 3418TIP3   OH210259   5.315   0.831   3.168
 3418TIP3    H110260   5.224   0.814   3.143
 3418TIP3    H210261   5.319   0.926   3.178
 3419TIP3   OH210262   0.052   3.949   2.147
 3419TIP3    H110263   0.016   3.861   2.156
 3419TIP3    H210264   0.141   3.943   2.182
 3420TIP3   OH210265   3.071   0.928   1.107
 3420TIP3    H110266   3.111   0.938   1.020
 3420TIP3    H210267   3.029   0.842   1.104
 3421TIP3   OH210268   4.792   5.148   4.156
 3421TIP3    H110269   4.829   5.069   4.198
 3421TIP3    H210270   4.785   5.211   4.227
 3422TIP3   OH210271   6.101   2.537   1.620
 3422TIP3    H110272   6.112   2.492   1.704
 3422TIP3    H210273   6.179   2.591   1.611
 3423TIP3   OH210274   3.298   0.770   0.817
 3423TIP3    H110275   3.292   0.742   0.726
 3423TIP3    H210276   3.391   0.764   0.838
 3424TIP3   OH210277   2.435   1.339   2.635
 3424TIP3    H110278   2.467   1.423   2.667
 3424TIP3    H210279   2.402   1.358   2.547
 3425TIP3   OH210280   2.111   4.065   0.990
 3425TIP3    H110281   2.036   4.093   1.043
 3425TIP3    H210282   2.078   4.063   0.900
 3426TIP3   OH210283   3.234   5.147   2.149
 3426TIP3    H110284   3.252   5.189   2.233
 3426TIP3    H210285   3.147   5.108   2.160
 3427TIP3   OH210286   5.748   3.143   0.975
 3427TIP3    H110287   5.669   3.175   0.932
 3427TIP3    H210288   5.754   3.051   0.948
 3428TIP3   OH210289   5.818   5.762   4.218
 3428TIP3    H110290   5.744   5.746   4.160
 3428TIP3    H210291   5.781   5.761   4.306
 3429TIP3   OH210292   2.756   5.386   3.801
 3429TIP3    H110293   2.838   5.353   3.763
 3429TIP3    H210294   2.771   5.385   3.895
 3430TIP3   OH210295   2.374   5.256   5.140
 3430TIP3    H110296   2.465   5.241   5.163
 3430TIP3    H210297   2.368   5.233   5.047
 3431TIP3   OH210298   2.691   2.179   3.698
 3431TIP3    H110299   2.756   2.234   3.743
 3431TIP3    H210300   2.653   2.125   3.768
 3432TIP3   OH210301   2.943   4.562   3.476
 3432TIP3    H110302   3.029   4.521   3.485
 3432TIP3    H210303   2.885   4.491   3.447
 3433TIP3   OH210304   3.572   5.822   2.031
 3433TIP3    H110305   3.649   5.869   2.000
 3433TIP3    H210306   3.503   5.845   1.969
 3434TIP3   OH210307   3.714   4.174   1.502
 3434TIP3    H110308   3.638   4.170   1.560
 3434TIP3    H210309   3.774   4.236   1.544
 3435TIP3   OH210310   5.580   1.384   3.330
 3435TIP3    H110311   5.568   1.297   3.368
 3435TIP3    H210312   5.497   1.429   3.347
 3436TIP3   OH210313   2.461   4.433   4.922
 3436TIP3    H110314   2.469   4.482   4.840
 3436TIP3    H210315   2.552   4.417   4.948
 3437TIP3   OH210316   0.454   3.630   1.748
 3437TIP3    H110317   0.445   3.580   1.667
 3437TIP3    H210318   0.506   3.574   1.806
 3438TIP3   OH210319   0.369   5.006   1.318
 3438TIP3    H110320   0.311   5.049   1.382
 3438TIP3    H210321   0.395   5.077   1.259
 3439TIP3   OH210322   2.011   5.165   1.291
 3439TIP3    H110323   2.072   5.189   1.222
 3439TIP3    H210324   2.050   5.199   1.372
 3440TIP3   OH210325   6.300   2.632   4.261
 3440TIP3    H110326   6.352   2.612   4.182
 3440TIP3    H210327   6.341   2.580   4.330
 3441TIP3   OH210328   1.169   1.426   1.547
 3441TIP3    H110329   1.191   1.513   1.515
 3441TIP3    H210330   1.183   1.368   1.472
 3442TIP3   OH210331   4.049   5.649   3.178
 3442TIP3    H110332   4.094   5.570   3.149
 3442TIP3    H210333   4.117   5.699   3.224
 3443TIP3   OH210334   4.317   1.638   5.030
 3443TIP3    H110335   4.253   1.706   5.006
 3443TIP3    H210336   4.349   1.665   5.116
 3444TIP3   OH210337   6.251   3.684   3.554
 3444TIP3    H110338   6.319   3.646   3.609
 3444TIP3    H210339   6.198   3.608   3.526
 3445TIP3   OH210340   0.651   3.823   0.025
 3445TIP3    H110341   0.580   3.817  -0.039
 3445TIP3    H210342   0.619   3.886   0.090
 3446TIP3   OH210343   2.684   2.655   1.147
 3446TIP3    H110344   2.703   2.724   1.211
 3446TIP3    H210345   2.748   2.670   1.077
 3447TIP3   OH210346   3.863   5.317   1.050
 3447TIP3    H110347   3.933   5.282   1.106
 3447TIP3    H210348   3.883   5.285   0.963
 3448TIP3   OH210349   1.271   2.739   1.960
 3448TIP3    H110350   1.297   2.686   2.036
 3448TIP3    H210351   1.348   2.792   1.940
 3449TIP3   OH210352   2.403   1.129   0.152
 3449TIP3    H110353   2.408   1.173   0.067
 3449TIP3    H210354   2.486   1.150   0.195
 3450TIP3   OH210355   3.797   4.691   1.271
 3450TIP3    H110356   3.794   4.785   1.253
 3450TIP3    H210357   3.829   4.652   1.190
 3451TIP3   OH210358   5.226   5.494   2.813
 3451TIP3    H110359   5.213   5.399   2.815
 3451TIP3    H210360   5.140   5.531   2.831
 3452TIP3   OH210361   5.915   4.083   1.265
 3452TIP3    H110362   5.996   4.092   1.316
 3452TIP3    H210363   5.935   4.128   1.182
 3453TIP3   OH210364   1.805   2.076   4.108
 3453TIP3    H110365   1.802   2.003   4.046
 3453TIP3    H210366   1.743   2.139   4.074
 3454TIP3   OH210367   2.734   1.281   1.811
 3454TIP3    H110368   2.780   1.243   1.737
 3454TIP3    H210369   2.708   1.206   1.865
 3455TIP3   OH210370   3.144   3.587   0.976
 3455TIP3    H110371   3.109   3.553   0.894
 3455TIP3    H210372   3.186   3.669   0.953
 3456TIP3   OH210373   3.529   2.012   0.475
 3456TIP3    H110374   3.446   2.009   0.522
 3456TIP3    H210375   3.579   2.081   0.520
 3457TIP3   OH210376   5.923   2.335   3.435
 3457TIP3    H110377   5.985   2.348   3.363
 3457TIP3    H210378   5.965   2.375   3.511
 3458TIP3   OH210379   3.897   2.317   2.010
 3458TIP3    H110380   3.901   2.236   1.960
 3458TIP3    H210381   3.912   2.386   1.946
 3459TIP3   OH210382   4.122   0.291   2.745
 3459TIP3    H110383   4.107   0.235   2.669
 3459TIP3    H210384   4.106   0.380   2.713
 3460TIP3   OH210385   0.568   5.669   4.048
 3460TIP3    H110386   0.505   5.730   4.008
 3460TIP3    H210387   0.650   5.687   4.003
 3461TIP3   OH210388   4.595   5.975   0.728
 3461TIP3    H110389   4.617   5.895   0.775
 3461TIP3    H210390   4.638   6.045   0.776
 3462TIP3   OH210391   4.816   2.977   4.003
 3462TIP3    H110392   4.781   3.023   3.927
 3462TIP3    H210393   4.743   2.975   4.066
 3463TIP3   OH210394   3.739   0.820   1.340
 3463TIP3    H110395   3.676   0.790   1.405
 3463TIP3    H210396   3.695   0.809   1.256
 3464TIP3   OH210397   0.795   3.302   2.810
 3464TIP3    H110398   0.718   3.337   2.765
 3464TIP3    H210399   0.862   3.294   2.742
 3465TIP3   OH210400   5.068   1.834   4.948
 3465TIP3    H110401   5.043   1.797   4.863
 3465TIP3    H210402   5.164   1.826   4.950
 3466TIP3   OH210403   0.185   2.718   0.073
 3466TIP3    H110404   0.131   2.745   0.147
 3466TIP3    H210405   0.123   2.693   0.005
 3467TIP3   OH210406   1.831   3.069   4.055
 3467TIP3    H110407   1.893   3.140   4.038
 3467TIP3    H210408   1.758   3.086   3.996
 3468TIP3   OH210409   3.510   2.792   1.134
 3468TIP3    H110410   3.503   2.709   1.088
 3468TIP3    H210411   3.530   2.856   1.065
 3469TIP3   OH210412   2.121   4.021   2.465
 3469TIP3    H110413   2.150   3.969   2.540
 3469TIP3    H210414   2.133   3.963   2.390
 3470TIP3   OH210415   0.274   5.642   5.081
 3470TIP3    H110416   0.221   5.616   5.156
 3470TIP3    H210417   0.362   5.612   5.102
 3471TIP3   OH210418   3.676   0.064   0.521
 3471TIP3    H110419   3.633  -0.020   0.535
 3471TIP3    H210420   3.670   0.109   0.606
 3472TIP3   OH210421   0.945   3.925   1.991
 3472TIP3    H110422   0.941   3.984   1.915
 3472TIP3    H210423   1.031   3.940   2.029
 3473TIP3   OH210424   1.001   3.058   2.821
 3473TIP3    H110425   1.074   3.121   2.817
 3473TIP3    H210426   1.035   2.981   2.775
 3474TIP3   OH210427   1.448   1.540   3.255
 3474TIP3    H110428   1.390   1.613   3.231
 3474TIP3    H210429   1.479   1.506   3.171
 3475TIP3   OH210430   2.258   5.313   2.738
 3475TIP3    H110431   2.309   5.339   2.662
 3475TIP3    H210432   2.180   5.270   2.702
 3476TIP3   OH210433   4.505   0.693   3.422
 3476TIP3    H110434   4.435   0.628   3.425
 3476TIP3    H210435   4.485   0.745   3.344
 3477TIP3   OH210436   1.027   5.892   1.795
 3477TIP3    H110437   1.038   5.983   1.765
 3477TIP3    H210438   1.070   5.839   1.728
 3478TIP3   OH210439   2.960   0.700   2.042
 3478TIP3    H110440   2.967   0.748   1.959
 3478TIP3    H210441   2.953   0.608   2.016
 3479TIP3   OH210442   1.380   0.768   2.153
 3479TIP3    H110443   1.404   0.860   2.141
 3479TIP3    H210444   1.395   0.751   2.246
 3480TIP3   OH210445   3.169   5.594   3.136
 3480TIP3    H110446   3.091   5.590   3.191
 3480TIP3    H210447   3.136   5.587   3.046
 3481TIP3   OH210448   3.001   2.451   0.875
 3481TIP3    H110449   2.991   2.369   0.827
 3481TIP3    H210450   2.947   2.440   0.953
 3482TIP3   OH210451   3.133   0.583   0.945
 3482TIP3    H110452   3.141   0.656   0.884
 3482TIP3    H210453   3.220   0.577   0.986
 3483TIP3   OH210454   0.238   3.491   1.179
 3483TIP3    H110455   0.314   3.545   1.204
 3483TIP3    H210456   0.180   3.494   1.256
 3484TIP3   OH210457   2.026   1.658   1.579
 3484TIP3    H110458   2.098   1.705   1.621
 3484TIP3    H210459   1.984   1.610   1.650
 3485TIP3   OH210460   1.095   5.777   3.905
 3485TIP3    H110461   1.018   5.832   3.919
 3485TIP3    H210462   1.118   5.791   3.813
 3486TIP3   OH210463   2.395   3.261   0.012
 3486TIP3    H110464   2.361   3.188   0.064
 3486TIP3    H210465   2.352   3.252  -0.073
 3487TIP3   OH210466   1.772   1.747   0.513
 3487TIP3    H110467   1.777   1.771   0.606
 3487TIP3    H210468   1.853   1.780   0.475
 3488TIP3   OH210469   1.751   1.892   3.920
 3488TIP3    H110470   1.833   1.904   3.871
 3488TIP3    H210471   1.685   1.935   3.867
 3489TIP3   OH210472   6.259   4.344   0.668
 3489TIP3    H110473   6.350   4.367   0.684
 3489TIP3    H210474   6.256   4.248   0.676
 3490TIP3   OH210475   5.761   3.926   1.781
 3490TIP3    H110476   5.776   4.013   1.745
 3490TIP3    H210477   5.719   3.941   1.865
 3491TIP3   OH210478   5.941   1.177   3.740
 3491TIP3    H110479   5.920   1.087   3.765
 3491TIP3    H210480   5.858   1.224   3.749
 3492TIP3   OH210481   6.051   4.148   1.001
 3492TIP3    H110482   6.069   4.240   0.983
 3492TIP3    H210483   6.054   4.105   0.916
 3493TIP3   OH210484   4.282   4.523   0.552
 3493TIP3    H110485   4.315   4.575   0.626
 3493TIP3    H210486   4.215   4.578   0.512
 3494TIP3   OH210487   2.163   2.042   3.095
 3494TIP3    H110488   2.075   2.047   3.058
 3494TIP3    H210489   2.206   1.971   3.046
 3495TIP3   OH210490   2.173   2.756   3.700
 3495TIP3    H110491   2.222   2.836   3.718
 3495TIP3    H210492   2.240   2.689   3.688
 3496TIP3   OH210493   0.050   0.155   0.818
 3496TIP3    H110494   0.060   0.061   0.832
 3496TIP3    H210495  -0.044   0.171   0.828
 3497TIP3   OH210496   1.820   1.341   2.611
 3497TIP3    H110497   1.833   1.374   2.522
 3497TIP3    H210498   1.907   1.341   2.650
 3498TIP3   OH210499   5.689   2.018   2.704
 3498TIP3    H110500   5.714   2.086   2.767
 3498TIP3    H210501   5.744   1.943   2.726
 3499TIP3   OH210502   1.337   1.759   0.292
 3499TIP3    H110503   1.315   1.760   0.385
 3499TIP3    H210504   1.425   1.797   0.288
 3500TIP3   OH210505   0.374   4.130   3.180
 3500TIP3    H110506   0.340   4.062   3.239
 3500TIP3    H210507   0.373   4.210   3.233
 3501TIP3   OH210508   0.667   0.869   4.915
 3501TIP3    H110509   0.596   0.812   4.946
 3501TIP3    H210510   0.693   0.919   4.992
 3502TIP3   OH210511   4.791   1.594   1.992
 3502TIP3    H110512   4.732   1.668   2.002
 3502TIP3    H210513   4.752   1.541   1.922
 3503TIP3   OH210514   0.755   3.630   2.495
 3503TIP3    H110515   0.689   3.570   2.530
 3503TIP3    H210516   0.737   3.713   2.539
 3504TIP3   OH210517   5.743   3.108   2.584
 3504TIP3    H110518   5.757   3.151   2.500
 3504TIP3    H210519   5.673   3.158   2.626
 3505TIP3   OH210520   5.812   1.437   1.454
 3505TIP3    H110521   5.770   1.520   1.433
 3505TIP3    H210522   5.902   1.446   1.423
 3506TIP3   OH210523   2.776   5.799   1.846
 3506TIP3    H110524   2.770   5.894   1.836
 3506TIP3    H210525   2.685   5.770   1.854
 3507TIP3   OH210526   2.105   1.641   4.397
 3507TIP3    H110527   2.045   1.680   4.460
 3507TIP3    H210528   2.191   1.674   4.422
 3508TIP3   OH210529   5.269   2.279   0.577
 3508TIP3    H110530   5.211   2.354   0.563
 3508TIP3    H210531   5.356   2.318   0.590
 3509TIP3   OH210532   4.527   3.094   4.733
 3509TIP3    H110533   4.472   3.122   4.660
 3509TIP3    H210534   4.610   3.139   4.719
 3510TIP3   OH210535   3.012   3.003   1.182
 3510TIP3    H110536   3.004   2.925   1.127
 3510TIP3    H210537   3.085   2.984   1.241
 3511TIP3   OH210538   6.287   2.895   1.076
 3511TIP3    H110539   6.194   2.906   1.058
 3511TIP3    H210540   6.315   2.823   1.019
 3512TIP3   OH210541   3.697   4.578   3.903
 3512TIP3    H110542   3.624   4.634   3.928
 3512TIP3    H210543   3.660   4.518   3.839
 3513TIP3   OH210544   6.148   2.532   5.078
 3513TIP3    H110545   6.073   2.474   5.089
 3513TIP3    H210546   6.120   2.616   5.112
 3514TIP3   OH210547   1.826   3.581   3.280
 3514TIP3    H110548   1.886   3.509   3.300
 3514TIP3    H210549   1.800   3.566   3.189
 3515TIP3   OH210550   5.217   0.862   2.274
 3515TIP3    H110551   5.245   0.941   2.228
 3515TIP3    H210552   5.153   0.822   2.215
 3516TIP3   OH210553   3.560   4.825   3.599
 3516TIP3    H110554   3.639   4.773   3.580
 3516TIP3    H210555   3.498   4.761   3.634
 3517TIP3   OH210556   0.817   2.275   0.531
 3517TIP3    H110557   0.821   2.370   0.519
 3517TIP3    H210558   0.870   2.258   0.608
 3518TIP3   OH210559   3.211   4.297   4.881
 3518TIP3    H110560   3.265   4.240   4.936
 3518TIP3    H210561   3.160   4.348   4.944
 3519TIP3   OH210562   2.977   4.113   5.041
 3519TIP3    H110563   3.052   4.091   5.096
 3519TIP3    H210564   2.909   4.141   5.103
 3520TIP3   OH210565   1.307   1.246   1.717
 3520TIP3    H110566   1.358   1.249   1.798
 3520TIP3    H210567   1.320   1.332   1.677
 3521TIP3   OH210568   1.036   3.000   1.444
 3521TIP3    H110569   0.942   3.018   1.444
 3521TIP3    H210570   1.042   2.908   1.471
 3522TIP3   OH210571   5.334   0.178   1.040
 3522TIP3    H110572   5.320   0.110   1.106
 3522TIP3    H210573   5.246   0.210   1.020
 3523TIP3   OH210574   5.401   4.042   4.848
 3523TIP3    H110575   5.312   4.024   4.816
 3523TIP3    H210576   5.435   3.956   4.872
 3524TIP3   OH210577   3.804   4.480   2.578
 3524TIP3    H110578   3.726   4.536   2.569
 3524TIP3    H210579   3.877   4.538   2.556
 3525TIP3   OH210580   1.031   0.617   1.681
 3525TIP3    H110581   1.076   0.690   1.725
 3525TIP3    H210582   1.102   0.558   1.654
 3526TIP3   OH210583   2.468   3.505   1.750
 3526TIP3    H110584   2.498   3.564   1.681
 3526TIP3    H210585   2.446   3.563   1.823
 3527TIP3   OH210586   3.275   2.899   2.890
 3527TIP3    H110587   3.267   2.938   2.978
 3527TIP3    H210588   3.360   2.928   2.858
 3528TIP3   OH210589   1.776   3.579   1.173
 3528TIP3    H110590   1.726   3.531   1.106
 3528TIP3    H210591   1.780   3.668   1.140
 3529TIP3   OH210592   1.631   4.740   4.097
 3529TIP3    H110593   1.712   4.790   4.089
 3529TIP3    H210594   1.576   4.792   4.156
 3530TIP3   OH210595   5.935   3.860   5.076
 3530TIP3    H110596   5.902   3.932   5.129
 3530TIP3    H210597   5.907   3.879   4.987
 3531TIP3   OH210598   1.573   5.391   2.796
 3531TIP3    H110599   1.540   5.305   2.822
 3531TIP3    H210600   1.506   5.453   2.824
 3532TIP3   OH210601   5.468   1.214   1.272
 3532TIP3    H110602   5.496   1.236   1.361
 3532TIP3    H210603   5.542   1.237   1.217
 3533TIP3   OH210604   4.086   4.981   2.175
 3533TIP3    H110605   4.155   5.042   2.202
 3533TIP3    H210606   4.129   4.920   2.116
 3534TIP3   OH210607   4.046   4.941   2.467
 3534TIP3    H110608   4.102   5.005   2.511
 3534TIP3    H210609   4.038   4.974   2.378
 3535TIP3   OH210610   3.588   4.515   0.386
 3535TIP3    H110611   3.536   4.463   0.326
 3535TIP3    H210612   3.622   4.587   0.332
 3536TIP3   OH210613   3.840   2.483   4.455
 3536TIP3    H110614   3.851   2.433   4.536
 3536TIP3    H210615   3.757   2.454   4.419
 3537TIP3   OH210616   2.837   4.309   3.202
 3537TIP3    H110617   2.845   4.360   3.121
 3537TIP3    H210618   2.891   4.232   3.187
 3538TIP3   OH210619   5.688   2.014   4.652
 3538TIP3    H110620   5.730   2.100   4.648
 3538TIP3    H210621   5.606   2.026   4.605
 3539TIP3   OH210622   6.099   5.772   0.327
 3539TIP3    H110623   6.126   5.841   0.266
 3539TIP3    H210624   6.014   5.801   0.360
 3540TIP3   OH210625   3.464   3.741   1.764
 3540TIP3    H110626   3.470   3.784   1.678
 3540TIP3    H210627   3.386   3.686   1.758
 3541TIP3   OH210628   2.479   5.346   2.208
 3541TIP3    H110629   2.485   5.286   2.133
 3541TIP3    H210630   2.554   5.324   2.263
 3542TIP3   OH210631   4.891   5.075   3.505
 3542TIP3    H110632   4.862   5.153   3.456
 3542TIP3    H210633   4.879   5.003   3.444
 3543TIP3   OH210634   1.209   2.104   0.912
 3543TIP3    H110635   1.285   2.047   0.900
 3543TIP3    H210636   1.186   2.093   1.004
 3544TIP3   OH210637   3.828   5.041   3.689
 3544TIP3    H110638   3.788   5.045   3.603
 3544TIP3    H210639   3.780   4.972   3.735
 3545TIP3   OH210640   4.834   2.691   4.320
 3545TIP3    H110641   4.820   2.648   4.235
 3545TIP3    H210642   4.747   2.721   4.346
 3546TIP3   OH210643   0.099   0.621   0.701
 3546TIP3    H110644   0.009   0.586   0.700
 3546TIP3    H210645   0.152   0.548   0.734
 3547TIP3   OH210646   5.495   0.397   0.324
 3547TIP3    H110647   5.574   0.446   0.348
 3547TIP3    H210648   5.432   0.465   0.299
 3548TIP3   OH210649   3.142   5.125   4.947
 3548TIP3    H110650   3.184   5.211   4.942
 3548TIP3    H210651   3.206   5.065   4.908
 3549TIP3   OH210652   0.695   2.976   2.203
 3549TIP3    H110653   0.692   2.948   2.295
 3549TIP3    H210654   0.780   3.018   2.193
 3550TIP3   OH210655   2.549   2.365   0.883
 3550TIP3    H110656   2.499   2.389   0.961
 3550TIP3    H210657   2.640   2.361   0.914
 3551TIP3   OH210658   1.270   1.338   2.821
 3551TIP3    H110659   1.222   1.400   2.876
 3551TIP3    H210660   1.313   1.392   2.755
 3552TIP3   OH210661   1.243   1.988   5.121
 3552TIP3    H110662   1.254   2.082   5.103
 3552TIP3    H210663   1.326   1.962   5.160
 3553TIP3   OH210664   1.876   3.425   2.695
 3553TIP3    H110665   1.954   3.391   2.650
 3553TIP3    H210666   1.909   3.497   2.748
 3554TIP3   OH210667   3.928   4.402   3.982
 3554TIP3    H110668   3.850   4.438   3.940
 3554TIP3    H210669   3.985   4.478   3.996
 3555TIP3   OH210670   0.757   2.491   0.081
 3555TIP3    H110671   0.829   2.436   0.111
 3555TIP3    H210672   0.771   2.575   0.126
 3556TIP3   OH210673   3.713   2.540   4.089
 3556TIP3    H110674   3.641   2.514   4.147
 3556TIP3    H210675   3.672   2.596   4.024
 3557TIP3   OH210676   3.893   0.498   1.783
 3557TIP3    H110677   3.958   0.428   1.791
 3557TIP3    H210678   3.809   0.454   1.796
 3558TIP3   OH210679   4.142   2.692   3.658
 3558TIP3    H110680   4.202   2.750   3.612
 3558TIP3    H210681   4.092   2.751   3.715
 3559TIP3   OH210682   2.718   2.804   3.026
 3559TIP3    H110683   2.707   2.866   3.098
 3559TIP3    H210684   2.805   2.767   3.038
 3560TIP3   OH210685   3.397   2.032   2.691
 3560TIP3    H110686   3.419   2.113   2.737
 3560TIP3    H210687   3.347   1.981   2.754
 3561TIP3   OH210688   5.276   1.543   4.051
 3561TIP3    H110689   5.196   1.511   4.009
 3561TIP3    H210690   5.344   1.481   4.024
 3562TIP3   OH210691   0.103   0.140   1.861
 3562TIP3    H110692   0.155   0.170   1.935
 3562TIP3    H210693   0.099   0.216   1.802
 3563TIP3   OH210694   3.103   0.335   2.513
 3563TIP3    H110695   3.026   0.284   2.486
 3563TIP3    H210696   3.067   0.421   2.534
 3564TIP3   OH210697   4.830   1.716   1.653
 3564TIP3    H110698   4.847   1.645   1.591
 3564TIP3    H210699   4.882   1.694   1.730
 3565TIP3   OH210700   5.185   4.072   1.455
 3565TIP3    H110701   5.124   4.137   1.419
 3565TIP3    H210702   5.239   4.046   1.381
 3566TIP3   OH210703   6.198   4.507   3.157
 3566TIP3    H110704   6.115   4.544   3.128
 3566TIP3    H210705   6.247   4.581   3.192
 3567TIP3   OH210706   5.038   5.208   4.347
 3567TIP3    H110707   5.033   5.199   4.252
 3567TIP3    H210708   5.019   5.121   4.381
 3568TIP3   OH210709   5.824   4.704   1.286
 3568TIP3    H110710   5.876   4.750   1.352
 3568TIP3    H210711   5.733   4.716   1.314
 3569TIP3   OH210712   3.019   1.988   0.292
 3569TIP3    H110713   2.933   1.952   0.316
 3569TIP3    H210714   3.013   2.004   0.198
 3570TIP3   OH210715   6.160  -0.005   4.945
 3570TIP3    H110716   6.192   0.011   4.856
 3570TIP3    H210717   6.219   0.045   5.001
 3571TIP3   OH210718   1.342   2.332   0.798
 3571TIP3    H110719   1.284   2.262   0.828
 3571TIP3    H210720   1.345   2.394   0.871
 3572TIP3   OH210721   5.547   4.345   0.353
 3572TIP3    H110722   5.487   4.338   0.279
 3572TIP3    H210723   5.629   4.306   0.321
 3573TIP3   OH210724   2.120  -0.025   1.350
 3573TIP3    H110725   2.100   0.067   1.335
 3573TIP3    H210726   2.185  -0.024   1.420
 3574TIP3   OH210727   3.385   0.132   2.010
 3574TIP3    H110728   3.309   0.179   2.045
 3574TIP3    H210729   3.458   0.160   2.066
 3575TIP3   OH210730   3.992   0.031   3.868
 3575TIP3    H110731   3.988   0.059   3.959
 3575TIP3    H210732   4.036   0.103   3.822
 3576TIP3   OH210733   0.418   1.266   2.432
 3576TIP3    H110734   0.430   1.171   2.441
 3576TIP3    H210735   0.328   1.281   2.460
 3577TIP3   OH210736   0.716   0.756   2.135
 3577TIP3    H110737   0.676   0.755   2.048
 3577TIP3    H210738   0.643   0.774   2.194
 3578TIP3   OH210739   5.145   4.388   4.267
 3578TIP3    H110740   5.054   4.417   4.262
 3578TIP3    H210741   5.180   4.430   4.346
 3579TIP3   OH210742   3.989   5.193   0.368
 3579TIP3    H110743   3.997   5.159   0.279
 3579TIP3    H210744   4.079   5.201   0.399
 3580TIP3   OH210745   3.175   5.984   1.981
 3580TIP3    H110746   3.257   5.970   1.934
 3580TIP3    H210747   3.122   5.907   1.960
 3581TIP3   OH210748   0.686   4.508   0.375
 3581TIP3    H110749   0.746   4.573   0.338
 3581TIP3    H210750   0.623   4.559   0.426
 3582TIP3   OH210751   0.447   4.917   0.614
 3582TIP3    H110752   0.512   4.981   0.585
 3582TIP3    H210753   0.375   4.926   0.551
 3583TIP3   OH210754   0.748   5.106   1.131
 3583TIP3    H110755   0.655   5.120   1.114
 3583TIP3    H210756   0.754   5.017   1.166
 3584TIP3   OH210757   4.666   1.293   0.278
 3584TIP3    H110758   4.656   1.272   0.185
 3584TIP3    H210759   4.758   1.317   0.287
 3585TIP3   OH210760   0.951   3.342   0.106
 3585TIP3    H110761   0.998   3.421   0.131
 3585TIP3    H210762   0.885   3.330   0.174
 3586TIP3   OH210763   1.084   5.116   2.310
 3586TIP3    H110764   1.006   5.153   2.351
 3586TIP3    H210765   1.055   5.031   2.276
 3587TIP3   OH210766   0.809   1.560   0.565
 3587TIP3    H110767   0.782   1.641   0.521
 3587TIP3    H210768   0.774   1.568   0.654
 3588TIP3   OH210769   3.614   3.844   3.149
 3588TIP3    H110770   3.628   3.918   3.208
 3588TIP3    H210771   3.547   3.791   3.192
 3589TIP3   OH210772   3.164   3.416   5.110
 3589TIP3    H110773   3.178   3.341   5.052
 3589TIP3    H210774   3.077   3.402   5.148
 3590TIP3   OH210775   6.125   0.056   0.775
 3590TIP3    H110776   6.184  -0.015   0.797
 3590TIP3    H210777   6.039   0.027   0.805
 3591TIP3   OH210778   4.636   4.274   1.629
 3591TIP3    H110779   4.649   4.186   1.592
 3591TIP3    H210780   4.568   4.313   1.574
 3592TIP3   OH210781   1.506   1.805   2.079
 3592TIP3    H110782   1.591   1.829   2.115
 3592TIP3    H210783   1.508   1.709   2.073
 3593TIP3   OH210784   1.118   1.880   3.926
 3593TIP3    H110785   1.197   1.895   3.874
 3593TIP3    H210786   1.150   1.870   4.016
 3594TIP3   OH210787   0.666   1.316   3.268
 3594TIP3    H110788   0.752   1.306   3.228
 3594TIP3    H210789   0.623   1.384   3.216
 3595TIP3   OH210790   4.076   2.986   2.402
 3595TIP3    H110791   4.032   2.915   2.354
 3595TIP3    H210792   4.158   2.946   2.433
 3596TIP3   OH210793   3.187   2.649   2.801
 3596TIP3    H110794   3.222   2.729   2.839
 3596TIP3    H210795   3.098   2.672   2.774
 3597TIP3   OH210796   5.376   1.869   3.298
 3597TIP3    H110797   5.447   1.827   3.347
 3597TIP3    H210798   5.370   1.819   3.217
 3598TIP3   OH210799   3.679   3.582   4.533
 3598TIP3    H110800   3.586   3.563   4.522
 3598TIP3    H210801   3.708   3.613   4.447
 3599TIP3   OH210802   4.924   3.919   4.501
 3599TIP3    H110803   4.892   3.960   4.421
 3599TIP3    H210804   4.849   3.919   4.560
 3600TIP3   OH210805   5.330   5.435   1.707
 3600TIP3    H110806   5.271   5.452   1.780
 3600TIP3    H210807   5.380   5.515   1.697
 3601TIP3   OH210808   4.576   0.845   0.148
 3601TIP3    H110809   4.544   0.787   0.079
 3601TIP3    H210810   4.656   0.802   0.180
 3602TIP3   OH210811   0.312   3.179   5.040
 3602TIP3    H110812   0.301   3.186   4.945
 3602TIP3    H210813   0.406   3.171   5.052
 3603TIP3   OH210814   4.441   1.212   0.588
 3603TIP3    H110815   4.397   1.148   0.643
 3603TIP3    H210816   4.418   1.296   0.626
 3604TIP3   OH210817   5.555   3.578   2.661
 3604TIP3    H110818   5.649   3.571   2.648
 3604TIP3    H210819   5.524   3.632   2.588
 3605TIP3   OH210820   2.700   4.515   4.013
 3605TIP3    H110821   2.606   4.503   4.025
 3605TIP3    H210822   2.726   4.576   4.081
 3606TIP3   OH210823   3.862   1.326   4.878
 3606TIP3    H110824   3.810   1.270   4.936
 3606TIP3    H210825   3.876   1.273   4.800
 3607TIP3   OH210826   1.853   4.995   4.774
 3607TIP3    H110827   1.808   5.077   4.793
 3607TIP3    H210828   1.852   4.988   4.679
 3608TIP3   OH210829   2.772   4.849   4.001
 3608TIP3    H110830   2.722   4.918   3.958
 3608TIP3    H210831   2.794   4.788   3.930
 3609TIP3   OH210832   2.972   4.732   1.180
 3609TIP3    H110833   2.960   4.798   1.248
 3609TIP3    H210834   2.941   4.651   1.221
 3610TIP3   OH210835   0.280   2.926   0.474
 3610TIP3    H110836   0.301   2.835   0.497
 3610TIP3    H210837   0.186   2.925   0.457
 3611TIP3   OH210838   4.597   0.078   4.899
 3611TIP3    H110839   4.564   0.151   4.952
 3611TIP3    H210840   4.591   0.002   4.957
 3612TIP3   OH210841   1.145   1.936   4.215
 3612TIP3    H110842   1.216   1.927   4.279
 3612TIP3    H210843   1.069   1.898   4.259
 3613TIP3   OH210844   6.279   0.016   4.357
 3613TIP3    H110845   6.212   0.079   4.384
 3613TIP3    H210846   6.230  -0.056   4.317
 3614TIP3   OH210847   1.257   3.320   0.741
 3614TIP3    H110848   1.293   3.407   0.729
 3614TIP3    H210849   1.321   3.262   0.699
 3615TIP3   OH210850   5.034   3.526   3.169
 3615TIP3    H110851   5.006   3.588   3.101
 3615TIP3    H210852   5.105   3.476   3.129
 3616TIP3   OH210853   2.585   5.139   4.893
 3616TIP3    H110854   2.630   5.065   4.933
 3616TIP3    H210855   2.648   5.174   4.830
 3617TIP3   OH210856   2.573  -0.023   2.046
 3617TIP3    H110857   2.515   0.033   2.097
 3617TIP3    H210858   2.631   0.038   1.999
 3618TIP3   OH210859   3.364   4.227   3.664
 3618TIP3    H110860   3.371   4.176   3.745
 3618TIP3    H210861   3.358   4.160   3.595
 3619TIP3   OH210862   4.695   3.028   1.653
 3619TIP3    H110863   4.701   3.123   1.640
 3619TIP3    H210864   4.784   2.996   1.637
 3620TIP3   OH210865   2.668   0.965   0.596
 3620TIP3    H110866   2.638   0.876   0.576
 3620TIP3    H210867   2.589   1.019   0.589
 3621TIP3   OH210868   1.364   5.024   1.543
 3621TIP3    H110869   1.313   5.090   1.497
 3621TIP3    H210870   1.405   5.071   1.615
 3622TIP3   OH210871   5.325   2.852   1.675
 3622TIP3    H110872   5.265   2.903   1.620
 3622TIP3    H210873   5.362   2.916   1.736
 3623TIP3   OH210874   0.342   1.506   5.051
 3623TIP3    H110875   0.333   1.547   5.137
 3623TIP3    H210876   0.433   1.520   5.027
 3624TIP3   OH210877   3.789   2.328   2.560
 3624TIP3    H110878   3.715   2.368   2.605
 3624TIP3    H210879   3.755   2.302   2.475
 3625TIP3   OH210880   1.285   4.408   1.596
 3625TIP3    H110881   1.371   4.424   1.556
 3625TIP3    H210882   1.239   4.355   1.531
 3626TIP3   OH210883   0.825   1.373   1.018
 3626TIP3    H110884   0.870   1.289   1.029
 3626TIP3    H210885   0.866   1.431   1.082
 3627TIP3   OH210886   4.362   2.333   4.075
 3627TIP3    H110887   4.380   2.240   4.089
 3627TIP3    H210888   4.276   2.346   4.117
 3628TIP3   OH210889   4.313   1.638   3.785
 3628TIP3    H110890   4.391   1.679   3.822
 3628TIP3    H210891   4.248   1.708   3.782
 3629TIP3   OH210892   5.932   0.210   4.089
 3629TIP3    H110893   5.917   0.124   4.129
 3629TIP3    H210894   5.994   0.253   4.148
 3630TIP3   OH210895   5.054   0.803   3.101
 3630TIP3    H110896   5.018   0.756   3.176
 3630TIP3    H210897   5.022   0.756   3.024
 3631TIP3   OH210898   1.175   2.681   3.776
 3631TIP3    H110899   1.087   2.653   3.751
 3631TIP3    H210900   1.162   2.739   3.851
 3632TIP3   OH210901   1.829   4.852   0.398
 3632TIP3    H110902   1.876   4.862   0.314
 3632TIP3    H210903   1.765   4.783   0.382
 3633TIP3   OH210904   4.734   3.832   3.188
 3633TIP3    H110905   4.802   3.899   3.191
 3633TIP3    H210906   4.728   3.808   3.095
 3634TIP3   OH210907   4.532   2.267   4.674
 3634TIP3    H110908   4.511   2.192   4.619
 3634TIP3    H210909   4.622   2.289   4.652
 3635TIP3   OH210910   1.047   5.175   3.315
 3635TIP3    H110911   1.126   5.224   3.338
 3635TIP3    H210912   1.009   5.222   3.241
 3636TIP3   OH210913   2.930   0.791   1.732
 3636TIP3    H110914   2.994   0.844   1.685
 3636TIP3    H210915   2.864   0.854   1.761
 3637TIP3   OH210916   1.531   1.561   3.966
 3637TIP3    H110917   1.559   1.540   3.878
 3637TIP3    H210918   1.538   1.479   4.014
 3638TIP3   OH210919   1.608   4.383   2.592
 3638TIP3    H110920   1.563   4.428   2.521
 3638TIP3    H210921   1.697   4.418   2.589
 3639TIP3   OH210922   5.421   3.863   0.696
 3639TIP3    H110923   5.436   3.808   0.619
 3639TIP3    H210924   5.371   3.937   0.662
 3640TIP3   OH210925   5.174   0.893   3.766
 3640TIP3    H110926   5.136   0.971   3.727
 3640TIP3    H210927   5.238   0.926   3.828
 3641TIP3   OH210928   1.904   5.504   3.747
 3641TIP3    H110929   1.843   5.512   3.673
 3641TIP3    H210930   1.937   5.592   3.761
 3642TIP3   OH210931   5.089   5.510   3.174
 3642TIP3    H110932   5.096   5.456   3.252
 3642TIP3    H210933   5.131   5.592   3.198
 3643TIP3   OH210934   5.369   1.000   0.587
 3643TIP3    H110935   5.409   1.072   0.636
 3643TIP3    H210936   5.276   1.008   0.603
 3644TIP3   OH210937   2.120   4.458   3.037
 3644TIP3    H110938   2.064   4.429   3.108
 3644TIP3    H210939   2.062   4.506   2.978
 3645TIP3   OH210940   3.178   0.862   1.357
 3645TIP3    H110941   3.100   0.833   1.404
 3645TIP3    H210942   3.147   0.880   1.268
 3646TIP3   OH210943   2.138   4.213   1.556
 3646TIP3    H110944   2.177   4.292   1.520
 3646TIP3    H210945   2.053   4.206   1.511
 3647TIP3   OH210946   4.573   1.184   3.576
 3647TIP3    H110947   4.495   1.232   3.550
 3647TIP3    H210948   4.597   1.221   3.661
 3648TIP3   OH210949   2.531   0.273   4.189
 3648TIP3    H110950   2.498   0.189   4.156
 3648TIP3    H210951   2.464   0.336   4.164
 3649TIP3   OH210952   0.955   1.129   1.032
 3649TIP3    H110953   0.953   1.072   1.109
 3649TIP3    H210954   1.001   1.078   0.966
 3650TIP3   OH210955   1.803   3.802   1.014
 3650TIP3    H110956   1.728   3.861   1.014
 3650TIP3    H210957   1.868   3.845   1.070
 3651TIP3   OH210958   4.354   4.940   5.197
 3651TIP3    H110959   4.403   4.866   5.232
 3651TIP3    H210960   4.326   4.912   5.110
 3652TIP3   OH210961   5.765   1.371   3.563
 3652TIP3    H110962   5.725   1.409   3.485
 3652TIP3    H210963   5.692   1.356   3.623
 3653TIP3   OH210964   3.826   3.085   4.885
 3653TIP3    H110965   3.907   3.041   4.858
 3653TIP3    H210966   3.855   3.166   4.926
 3654TIP3   OH210967   3.672   5.312   3.503
 3654TIP3    H110968   3.698   5.251   3.572
 3654TIP3    H210969   3.750   5.364   3.485
 3655TIP3   OH210970   3.964   4.474   3.285
 3655TIP3    H110971   3.998   4.498   3.199
 3655TIP3    H210972   4.029   4.413   3.321
 3656TIP3   OH210973   4.612   4.350   3.878
 3656TIP3    H110974   4.555   4.284   3.917
 3656TIP3    H210975   4.556   4.426   3.867
 3657TIP3   OH210976   0.063   4.919   1.154
 3657TIP3    H110977   0.029   4.831   1.173
 3657TIP3    H210978   0.151   4.904   1.121
 3658TIP3   OH210979   0.731   1.003   1.563
 3658TIP3    H110980   0.732   0.974   1.654
 3658TIP3    H210981   0.816   1.044   1.549
 3659TIP3   OH210982   1.222   5.516   1.033
 3659TIP3    H110983   1.300   5.492   1.084
 3659TIP3    H210984   1.250   5.508   0.942
 3660TIP3   OH210985   1.757   1.371   1.951
 3660TIP3    H110986   1.751   1.283   1.914
 3660TIP3    H210987   1.833   1.368   2.010
 3661TIP3   OH210988   3.467   3.283   4.460
 3661TIP3    H110989   3.388   3.259   4.509
 3661TIP3    H210990   3.498   3.200   4.423
 3662TIP3   OH210991   3.758   4.591   4.243
 3662TIP3    H110992   3.780   4.674   4.201
 3662TIP3    H210993   3.667   4.574   4.216
 3663TIP3   OH210994   0.619   5.719   4.342
 3663TIP3    H110995   0.598   5.713   4.248
 3663TIP3    H210996   0.573   5.646   4.382
 3664TIP3   OH210997   5.540   1.425   5.106
 3664TIP3    H110998   5.563   1.473   5.027
 3664TIP3    H210999   5.520   1.492   5.171
 3665TIP3   OH211000   5.581   3.617   1.466
 3665TIP3    H111001   5.599   3.578   1.551
 3665TIP3    H211002   5.526   3.552   1.421
 3666TIP3   OH211003   5.996   0.586   4.086
 3666TIP3    H111004   6.073   0.554   4.038
 3666TIP3    H211005   5.996   0.680   4.070
 3667TIP3   OH211006   0.408   5.939   1.733
 3667TIP3    H111007   0.374   6.020   1.769
 3667TIP3    H211008   0.447   5.893   1.807
 3668TIP3   OH211009   0.880   2.299   0.934
 3668TIP3    H111010   0.894   2.393   0.946
 3668TIP3    H211011   0.915   2.281   0.847
 3669TIP3   OH211012   0.080   5.097   0.858
 3669TIP3    H111013   0.021   5.148   0.914
 3669TIP3    H211014   0.135   5.163   0.815
 3670TIP3   OH211015   4.812   3.694   4.018
 3670TIP3    H111016   4.822   3.602   4.043
 3670TIP3    H211017   4.814   3.694   3.922
 3671TIP3   OH211018   6.025   0.501   1.837
 3671TIP3    H111019   6.114   0.476   1.859
 3671TIP3    H211020   6.035   0.579   1.781
 3672TIP3   OH211021   2.563   4.048   2.070
 3672TIP3    H111022   2.468   4.061   2.075
 3672TIP3    H211023   2.580   3.973   2.126
 3673TIP3   OH211024   4.190   2.658   1.947
 3673TIP3    H111025   4.216   2.574   1.909
 3673TIP3    H211026   4.192   2.719   1.874
 3674TIP3   OH211027   4.896   0.851   2.157
 3674TIP3    H111028   4.919   0.768   2.116
 3674TIP3    H211029   4.954   0.915   2.116
 3675TIP3   OH211030   3.721   2.174   2.995
 3675TIP3    H111031   3.692   2.086   3.018
 3675TIP3    H211032   3.731   2.172   2.900
 3676TIP3   OH211033   2.277   2.574   4.637
 3676TIP3    H111034   2.222   2.614   4.570
 3676TIP3    H211035   2.351   2.634   4.646
 3677TIP3   OH211036   2.843   4.496   3.009
 3677TIP3    H111037   2.925   4.546   3.012
 3677TIP3    H211038   2.857   4.433   2.938
 3678TIP3   OH211039   0.226   5.397   1.017
 3678TIP3    H111040   0.236   5.492   1.026
 3678TIP3    H211041   0.235   5.381   0.923
 3679TIP3   OH211042   3.201   2.597   4.067
 3679TIP3    H111043   3.173   2.638   4.148
 3679TIP3    H211044   3.275   2.650   4.038
 3680TIP3   OH211045   3.950   3.811   1.403
 3680TIP3    H111046   3.979   3.901   1.387
 3680TIP3    H211047   4.020   3.772   1.456
 3681TIP3   OH211048   1.340   1.674   1.034
 3681TIP3    H111049   1.332   1.742   1.100
 3681TIP3    H211050   1.418   1.625   1.059
 3682TIP3   OH211051   5.458   2.304   1.038
 3682TIP3    H111052   5.538   2.323   0.990
 3682TIP3    H211053   5.487   2.293   1.129
 3683TIP3   OH211054   3.822   4.508   0.798
 3683TIP3    H111055   3.738   4.515   0.752
 3683TIP3    H211056   3.851   4.418   0.783
 3684TIP3   OH211057   5.715   1.838   3.038
 3684TIP3    H111058   5.638   1.894   3.030
 3684TIP3    H211059   5.691   1.773   3.104
 3685TIP3   OH211060   4.634   5.345   1.369
 3685TIP3    H111061   4.594   5.313   1.289
 3685TIP3    H211062   4.728   5.346   1.350
 3686TIP3   OH211063   4.303   0.126   0.003
 3686TIP3    H111064   4.382   0.162  -0.036
 3686TIP3    H211065   4.328   0.107   0.094
 3687TIP3   OH211066   1.358   5.521   2.848
 3687TIP3    H111067   1.366   5.599   2.903
 3687TIP3    H211068   1.284   5.540   2.790
 3688TIP3   OH211069   5.726   2.840   4.613
 3688TIP3    H111070   5.708   2.906   4.680
 3688TIP3    H211071   5.650   2.783   4.614
 3689TIP3   OH211072   6.371   2.451   1.238
 3689TIP3    H111073   6.280   2.422   1.234
 3689TIP3    H211074   6.365   2.540   1.274
 3690TIP3   OH211075   2.706   2.522   1.891
 3690TIP3    H111076   2.612   2.507   1.885
 3690TIP3    H211077   2.720   2.550   1.981
 3691TIP3   OH211078   3.484   1.700   0.610
 3691TIP3    H111079   3.496   1.708   0.516
 3691TIP3    H211080   3.541   1.767   0.648
 3692TIP3   OH211081   5.522   0.489   2.720
 3692TIP3    H111082   5.564   0.403   2.719
 3692TIP3    H211083   5.545   0.527   2.805
 3693TIP3   OH211084   4.705   0.024   1.974
 3693TIP3    H111085   4.687   0.069   1.892
 3693TIP3    H211086   4.763   0.084   2.021
 3694TIP3   OH211087   3.579   2.529   0.945
 3694TIP3    H111088   3.613   2.573   0.868
 3694TIP3    H211089   3.484   2.536   0.937
 3695TIP3   OH211090   0.417   2.712   3.867
 3695TIP3    H111091   0.489   2.737   3.810
 3695TIP3    H211092   0.406   2.786   3.926
 3696TIP3   OH211093   3.066   0.159   4.714
 3696TIP3    H111094   3.060   0.240   4.764
 3696TIP3    H211095   3.026   0.092   4.770
 3697TIP3   OH211096   5.193   2.393   3.616
 3697TIP3    H111097   5.213   2.354   3.531
 3697TIP3    H211098   5.277   2.426   3.648
 3698TIP3   OH211099   1.282   5.352   3.280
 3698TIP3    H111100   1.235   5.434   3.262
 3698TIP3    H211101   1.371   5.370   3.251
 3699TIP3   OH211102   3.234   0.539   1.890
 3699TIP3    H111103   3.283   0.618   1.866
 3699TIP3    H211104   3.250   0.479   1.817
 3700TIP3   OH211105   4.535   1.989   1.275
 3700TIP3    H111106   4.624   1.988   1.239
 3700TIP3    H211107   4.495   1.908   1.245
 3701TIP3   OH211108   1.628   0.408   4.140
 3701TIP3    H111109   1.664   0.334   4.092
 3701TIP3    H211110   1.676   0.410   4.222
 3702TIP3   OH211111   6.120   5.548   1.841
 3702TIP3    H111112   6.110   5.530   1.935
 3702TIP3    H211113   6.154   5.466   1.805
 3703TIP3   OH211114   4.115  -0.004   1.574
 3703TIP3    H111115   4.077   0.083   1.591
 3703TIP3    H211116   4.197  -0.005   1.623
 3704TIP3   OH211117   5.165   3.233   2.298
 3704TIP3    H111118   5.074   3.215   2.322
 3704TIP3    H211119   5.193   3.299   2.361
 3705TIP3   OH211120   3.084   3.537   0.337
 3705TIP3    H111121   3.027   3.476   0.290
 3705TIP3    H211122   3.166   3.535   0.287
 3706TIP3   OH211123   4.184   3.558   2.465
 3706TIP3    H111124   4.133   3.639   2.467
 3706TIP3    H211125   4.270   3.583   2.499
 3707TIP3   OH211126   1.626   2.641   0.171
 3707TIP3    H111127   1.655   2.631   0.262
 3707TIP3    H211128   1.531   2.653   0.178
 3708TIP3   OH211129   5.757   5.522   0.292
 3708TIP3    H111130   5.771   5.595   0.353
 3708TIP3    H211131   5.832   5.465   0.306
 3709TIP3   OH211132   5.554   1.049   4.651
 3709TIP3    H111133   5.539   1.109   4.724
 3709TIP3    H211134   5.503   1.086   4.579
 3710TIP3   OH211135   2.923   3.832   3.376
 3710TIP3    H111136   2.984   3.807   3.307
 3710TIP3    H211137   2.845   3.779   3.358
 3711TIP3   OH211138   0.072   0.126   4.133
 3711TIP3    H111139   0.125   0.062   4.086
 3711TIP3    H211140   0.033   0.077   4.205
 3712TIP3   OH211141   4.681   3.557   2.723
 3712TIP3    H111142   4.734   3.624   2.680
 3712TIP3    H211143   4.602   3.552   2.670
 3713TIP3   OH211144   3.543   5.469   0.101
 3713TIP3    H111145   3.598   5.456   0.179
 3713TIP3    H211146   3.472   5.405   0.110
 3714TIP3   OH211147   5.433   4.271   2.608
 3714TIP3    H111148   5.440   4.193   2.552
 3714TIP3    H211149   5.427   4.344   2.547
 3715TIP3   OH211150   0.271   5.120   4.536
 3715TIP3    H111151   0.280   5.154   4.447
 3715TIP3    H211152   0.251   5.027   4.525
 3716TIP3   OH211153   0.137   3.525   0.238
 3716TIP3    H111154   0.112   3.469   0.311
 3716TIP3    H211155   0.196   3.471   0.186
 3717TIP3   OH211156   2.745   0.507   1.051
 3717TIP3    H111157   2.683   0.557   0.999
 3717TIP3    H211158   2.724   0.416   1.033
 3718TIP3   OH211159   4.601   5.549   4.667
 3718TIP3    H111160   4.560   5.574   4.584
 3718TIP3    H211161   4.583   5.455   4.676
 3719TIP3   OH211162   1.262   4.666   0.119
 3719TIP3    H111163   1.324   4.732   0.086
 3719TIP3    H211164   1.182   4.715   0.136
 3720TIP3   OH211165   2.463   2.105   0.091
 3720TIP3    H111166   2.383   2.062   0.119
 3720TIP3    H211167   2.507   2.041   0.036
 3721TIP3   OH211168   2.264   5.204   3.487
 3721TIP3    H111169   2.179   5.234   3.520
 3721TIP3    H211170   2.282   5.263   3.414
 3722TIP3   OH211171   3.142   4.563   2.105
 3722TIP3    H111172   3.212   4.587   2.167
 3722TIP3    H211173   3.072   4.529   2.161
 3723TIP3   OH211174   0.473   1.710   4.654
 3723TIP3    H111175   0.565   1.693   4.674
 3723TIP3    H211176   0.473   1.733   4.561
 3724TIP3   OH211177   1.404   2.527   5.017
 3724TIP3    H111178   1.314   2.495   5.007
 3724TIP3    H211179   1.425   2.511   5.108
 3725TIP3   OH211180   3.979   2.773   0.821
 3725TIP3    H111181   4.020   2.856   0.845
 3725TIP3    H211182   3.916   2.797   0.753
 3726TIP3   OH211183   2.152   0.694   1.507
 3726TIP3    H111184   2.222   0.653   1.559
 3726TIP3    H211185   2.072   0.672   1.554
 3727TIP3   OH211186   3.875   4.274   4.301
 3727TIP3    H111187   3.858   4.214   4.229
 3727TIP3    H211188   3.926   4.223   4.364
 3728TIP3   OH211189   0.810   0.503   1.846
 3728TIP3    H111190   0.858   0.425   1.873
 3728TIP3    H211191   0.875   0.573   1.847
 3729TIP3   OH211192   3.878   1.791   2.513
 3729TIP3    H111193   3.948   1.856   2.517
 3729TIP3    H211194   3.800   1.837   2.544
 3730TIP3   OH211195   1.631   4.228   3.523
 3730TIP3    H111196   1.724   4.246   3.536
 3730TIP3    H211197   1.628   4.160   3.456
 3731TIP3   OH211198   1.962   4.486   3.330
 3731TIP3    H111199   1.946   4.392   3.332
 3731TIP3    H211200   2.027   4.501   3.398
 3732TIP3   OH211201   2.141   2.613   4.954
 3732TIP3    H111202   2.205   2.632   4.886
 3732TIP3    H211203   2.058   2.604   4.908
 3733TIP3   OH211204   3.027   3.298   2.046
 3733TIP3    H111205   3.123   3.295   2.054
 3733TIP3    H211206   2.996   3.231   2.107
 3734TIP3   OH211207   4.054   5.479   2.039
 3734TIP3    H111208   4.068   5.472   1.944
 3734TIP3    H211209   3.973   5.529   2.047
 3735TIP3   OH211210   2.308   2.809   0.805
 3735TIP3    H111211   2.292   2.715   0.791
 3735TIP3    H211212   2.238   2.837   0.864
 3736TIP3   OH211213   4.491   4.077   2.169
 3736TIP3    H111214   4.522   3.987   2.177
 3736TIP3    H211215   4.560   4.129   2.211
 3737TIP3   OH211216   6.323   4.620   5.139
 3737TIP3    H111217   6.358   4.637   5.227
 3737TIP3    H211218   6.228   4.629   5.148
 3738TIP3   OH211219   5.159   5.620   0.467
 3738TIP3    H111220   5.179   5.530   0.495
 3738TIP3    H211221   5.069   5.615   0.433
 3739TIP3   OH211222   4.884   3.135   3.310
 3739TIP3    H111223   4.952   3.136   3.242
 3739TIP3    H211224   4.862   3.227   3.323
 3740TIP3   OH211225   2.959   1.038   3.717
 3740TIP3    H111226   2.923   1.005   3.799
 3740TIP3    H211227   2.882   1.050   3.661
 3741TIP3   OH211228   3.675   5.458   3.841
 3741TIP3    H111229   3.757   5.410   3.850
 3741TIP3    H211230   3.608   5.390   3.835
 3742TIP3   OH211231   2.209   2.959   1.245
 3742TIP3    H111232   2.275   3.016   1.206
 3742TIP3    H211233   2.174   2.909   1.171
 3743TIP3   OH211234   1.397   0.296   1.149
 3743TIP3    H111235   1.439   0.211   1.159
 3743TIP3    H211236   1.436   0.351   1.216
 3744TIP3   OH211237   0.282   3.412   3.875
 3744TIP3    H111238   0.294   3.462   3.955
 3744TIP3    H211239   0.355   3.439   3.819
 3745TIP3   OH211240   6.078   4.072   2.534
 3745TIP3    H111241   6.077   4.070   2.439
 3745TIP3    H211242   6.022   4.146   2.557
 3746TIP3   OH211243   5.562   4.194   0.590
 3746TIP3    H111244   5.562   4.260   0.520
 3746TIP3    H211245   5.604   4.118   0.551
 3747TIP3   OH211246   2.345   4.622   3.030
 3747TIP3    H111247   2.414   4.555   3.025
 3747TIP3    H211248   2.264   4.573   3.014
 3748TIP3   OH211249   6.009   0.865   4.052
 3748TIP3    H111250   6.089   0.915   4.064
 3748TIP3    H211251   5.968   0.903   3.974
 3749TIP3   OH211252   1.396   0.507   0.001
 3749TIP3    H111253   1.371   0.415  -0.012
 3749TIP3    H211254   1.375   0.524   0.093
 3750TIP3   OH211255   1.908   1.511  -0.022
 3750TIP3    H111256   1.906   1.454   0.055
 3750TIP3    H211257   1.825   1.558  -0.019
 3751TIP3   OH211258   0.363   4.512   2.728
 3751TIP3    H111259   0.432   4.463   2.771
 3751TIP3    H211260   0.405   4.550   2.651
 3752TIP3   OH211261   1.305   4.828   3.046
 3752TIP3    H111262   1.393   4.801   3.020
 3752TIP3    H211263   1.270   4.873   2.970
 3753TIP3   OH211264   6.143   5.553   0.553
 3753TIP3    H111265   6.137   5.617   0.483
 3753TIP3    H211266   6.052   5.539   0.581
 3754TIP3   OH211267   3.453   3.331   2.610
 3754TIP3    H111268   3.505   3.410   2.626
 3754TIP3    H211269   3.405   3.316   2.691
 3755TIP3   OH211270   3.222   1.622   4.282
 3755TIP3    H111271   3.200   1.544   4.332
 3755TIP3    H211272   3.187   1.695   4.333
 3756TIP3   OH211273   1.131   3.870   0.900
 3756TIP3    H111274   1.205   3.908   0.853
 3756TIP3    H211275   1.067   3.940   0.906
 3757TIP3   OH211276   4.211   5.667   1.304
 3757TIP3    H111277   4.252   5.580   1.303
 3757TIP3    H211278   4.221   5.699   1.214
 3758TIP3   OH211279   4.685   3.216   1.218
 3758TIP3    H111280   4.678   3.131   1.261
 3758TIP3    H211281   4.766   3.210   1.167
 3759TIP3   OH211282   1.491   5.355   3.731
 3759TIP3    H111283   1.529   5.416   3.668
 3759TIP3    H211284   1.437   5.296   3.677
 3760TIP3   OH211285   5.076   1.395   2.691
 3760TIP3    H111286   5.147   1.389   2.627
 3760TIP3    H211287   5.006   1.341   2.656
 3761TIP3   OH211288   2.043   4.657   2.859
 3761TIP3    H111289   2.053   4.734   2.802
 3761TIP3    H211290   1.990   4.689   2.933
 3762TIP3   OH211291   4.888   4.209   0.673
 3762TIP3    H111292   4.982   4.191   0.679
 3762TIP3    H211293   4.879   4.300   0.700
 3763TIP3   OH211294   4.429   0.131   3.731
 3763TIP3    H111295   4.469   0.104   3.814
 3763TIP3    H211296   4.478   0.084   3.664
 3764TIP3   OH211297   4.554   3.463   0.358
 3764TIP3    H111298   4.634   3.497   0.318
 3764TIP3    H211299   4.535   3.524   0.429
 3765TIP3   OH211300   0.940   0.134   2.813
 3765TIP3    H111301   0.974   0.065   2.756
 3765TIP3    H211302   0.997   0.209   2.798
 3766TIP3   OH211303   1.923   0.994   0.594
 3766TIP3    H111304   1.868   0.982   0.671
 3766TIP3    H211305   1.861   1.005   0.522
 3767TIP3   OH211306   2.947   0.394   3.828
 3767TIP3    H111307   3.017   0.411   3.891
 3767TIP3    H211308   2.878   0.353   3.879
 3768TIP3   OH211309   3.190   2.192   2.634
 3768TIP3    H111310   3.269   2.137   2.641
 3768TIP3    H211311   3.206   2.264   2.696
 3769TIP3   OH211312   1.833   3.667   4.952
 3769TIP3    H111313   1.758   3.677   5.011
 3769TIP3    H211314   1.814   3.726   4.879
 3770TIP3   OH211315   1.886   1.851   1.454
 3770TIP3    H111316   1.822   1.788   1.421
 3770TIP3    H211317   1.951   1.798   1.500
 3771TIP3   OH211318   4.786   5.371   4.334
 3771TIP3    H111319   4.797   5.466   4.334
 3771TIP3    H211320   4.870   5.336   4.365
 3772TIP3   OH211321   3.231   1.256   2.043
 3772TIP3    H111322   3.239   1.171   2.088
 3772TIP3    H211323   3.320   1.292   2.045
 3773TIP3   OH211324   0.470   5.527   1.554
 3773TIP3    H111325   0.521   5.562   1.628
 3773TIP3    H211326   0.379   5.545   1.578
 3774TIP3   OH211327   1.278   2.341   1.882
 3774TIP3    H111328   1.234   2.352   1.798
 3774TIP3    H211329   1.218   2.377   1.947
 3775TIP3   OH211330   2.155   1.217   0.296
 3775TIP3    H111331   2.209   1.186   0.224
 3775TIP3    H211332   2.180   1.162   0.370
 3776TIP3   OH211333   4.525   4.342   2.606
 3776TIP3    H111334   4.493   4.364   2.694
 3776TIP3    H211335   4.446   4.337   2.552
 3777TIP3   OH211336   4.523   4.419   1.379
 3777TIP3    H111337   4.519   4.392   1.288
 3777TIP3    H211338   4.614   4.445   1.393
 3778TIP3   OH211339   3.178   1.584   1.494
 3778TIP3    H111340   3.253   1.533   1.525
 3778TIP3    H211341   3.196   1.673   1.525
 3779TIP3   OH211342   2.613   5.417   3.574
 3779TIP3    H111343   2.666   5.393   3.650
 3779TIP3    H211344   2.672   5.470   3.520
 3780TIP3   OH211345   3.677   5.041   4.506
 3780TIP3    H111346   3.734   5.098   4.559
 3780TIP3    H211347   3.738   4.981   4.463
 3781TIP3   OH211348   0.995   1.901   1.351
 3781TIP3    H111349   1.043   1.934   1.427
 3781TIP3    H211350   0.904   1.893   1.381
 3782TIP3   OH211351   3.597   1.753   3.702
 3782TIP3    H111352   3.520   1.773   3.649
 3782TIP3    H211353   3.587   1.660   3.724
 3783TIP3   OH211354   5.068   1.958   1.914
 3783TIP3    H111355   5.088   1.949   1.821
 3783TIP3    H211356   5.044   1.870   1.942
 3784TIP3   OH211357   0.836   4.864   3.617
 3784TIP3    H111358   0.884   4.903   3.689
 3784TIP3    H211359   0.811   4.938   3.562
 3785TIP3   OH211360   2.316   5.093   3.210
 3785TIP3    H111361   2.334   5.125   3.298
 3785TIP3    H211362   2.261   5.160   3.171
 3786TIP3   OH211363   3.936   0.063   4.120
 3786TIP3    H111364   3.973   0.009   4.189
 3786TIP3    H211365   3.917   0.147   4.162
 3787TIP3   OH211366   2.231   4.854   3.363
 3787TIP3    H111367   2.226   4.946   3.335
 3787TIP3    H211368   2.162   4.846   3.429
 3788TIP3   OH211369   1.588   3.604   0.330
 3788TIP3    H111370   1.553   3.582   0.244
 3788TIP3    H211371   1.567   3.529   0.385
 3789TIP3   OH211372   2.712   1.166   2.458
 3789TIP3    H111373   2.722   1.173   2.553
 3789TIP3    H211374   2.750   1.081   2.436
 3790TIP3   OH211375   1.935   2.462   3.554
 3790TIP3    H111376   1.988   2.406   3.610
 3790TIP3    H211377   1.991   2.481   3.479
 3791TIP3   OH211378   1.440   2.193   4.667
 3791TIP3    H111379   1.383   2.264   4.638
 3791TIP3    H211380   1.380   2.121   4.686
 3792TIP3   OH211381   4.149   5.349   4.438
 3792TIP3    H111382   4.064   5.312   4.413
 3792TIP3    H211383   4.207   5.327   4.365
 3793TIP3   OH211384   2.796   4.970   4.971
 3793TIP3    H111385   2.892   4.975   4.975
 3793TIP3    H211386   2.778   4.876   4.980
 3794TIP3   OH211387  -0.003   0.834   0.846
 3794TIP3    H111388  -0.006   0.805   0.937
 3794TIP3    H211389   0.024   0.757   0.797
 3795TIP3   OH211390   2.705   0.768   2.193
 3795TIP3    H111391   2.751   0.785   2.111
 3795TIP3    H211392   2.744   0.687   2.226
 3796TIP3   OH211393   5.068   5.133   0.139
 3796TIP3    H111394   5.005   5.155   0.070
 3796TIP3    H211395   5.124   5.210   0.146
 3797TIP3   OH211396   2.881   4.637   3.820
 3797TIP3    H111397   2.828   4.675   3.750
 3797TIP3    H211398   2.822   4.575   3.863
 3798TIP3   OH211399   2.116   2.866   1.980
 3798TIP3    H111400   2.136   2.782   1.938
 3798TIP3    H211401   2.127   2.849   2.073
 3799TIP3   OH211402   4.051   4.505   4.258
 3799TIP3    H111403   4.076   4.595   4.240
 3799TIP3    H211404   4.131   4.462   4.289
 3800TIP3   OH211405   1.404   5.112   0.798
 3800TIP3    H111406   1.462   5.179   0.762
 3800TIP3    H211407   1.379   5.146   0.884
 3801TIP3   OH211408   6.270   5.695   3.977
 3801TIP3    H111409   6.206   5.731   3.915
 3801TIP3    H211410   6.228   5.615   4.009
 3802TIP3   OH211411   1.212   3.874   0.350
 3802TIP3    H111412   1.224   3.880   0.256
 3802TIP3    H211413   1.162   3.952   0.373
 3803TIP3   OH211414   0.346   5.849   3.316
 3803TIP3    H111415   0.281   5.919   3.304
 3803TIP3    H211416   0.297   5.768   3.300
 3804TIP3   OH211417   4.431   4.996   2.852
 3804TIP3    H111418   4.463   4.916   2.893
 3804TIP3    H211419   4.463   5.067   2.908
 3805TIP3   OH211420   2.029   0.952   1.819
 3805TIP3    H111421   1.959   0.900   1.859
 3805TIP3    H211422   2.083   0.888   1.773
 3806TIP3   OH211423   1.104   0.512   3.919
 3806TIP3    H111424   1.030   0.470   3.963
 3806TIP3    H211425   1.164   0.534   3.991
 3807TIP3   OH211426   5.411   1.356   2.193
 3807TIP3    H111427   5.469   1.354   2.269
 3807TIP3    H211428   5.362   1.438   2.202
 3808TIP3   OH211429   2.306   1.143   3.596
 3808TIP3    H111430   2.214   1.117   3.594
 3808TIP3    H211431   2.343   1.097   3.671
 3809TIP3   OH211432   3.325   0.840   2.319
 3809TIP3    H111433   3.406   0.814   2.274
 3809TIP3    H211434   3.268   0.763   2.312
 3810TIP3   OH211435   4.529   1.495   4.236
 3810TIP3    H111436   4.463   1.522   4.172
 3810TIP3    H211437   4.596   1.562   4.231
 3811TIP3   OH211438   4.635   0.113   3.264
 3811TIP3    H111439   4.724   0.094   3.294
 3811TIP3    H211440   4.620   0.051   3.193
 3812TIP3   OH211441   2.141   0.127   3.824
 3812TIP3    H111442   2.186   0.205   3.791
 3812TIP3    H211443   2.064   0.118   3.767
 3813TIP3   OH211444   5.825   3.693   0.423
 3813TIP3    H111445   5.806   3.607   0.387
 3813TIP3    H211446   5.858   3.744   0.349
 3814TIP3   OH211447   0.081   2.627   3.992
 3814TIP3    H111448   0.022   2.579   3.934
 3814TIP3    H211449   0.095   2.711   3.949
 3815TIP3   OH211450   0.386   1.591   0.952
 3815TIP3    H111451   0.391   1.534   1.028
 3815TIP3    H211452   0.477   1.610   0.930
 3816TIP3   OH211453   2.673   0.489   3.098
 3816TIP3    H111454   2.654   0.462   3.009
 3816TIP3    H211455   2.737   0.559   3.089
 3817TIP3   OH211456   5.052   1.901   2.246
 3817TIP3    H111457   4.968   1.899   2.292
 3817TIP3    H211458   5.073   1.993   2.237
 3818TIP3   OH211459   0.496   0.307   1.105
 3818TIP3    H111460   0.425   0.367   1.082
 3818TIP3    H211461   0.459   0.220   1.092
 3819TIP3   OH211462   1.436   4.839   1.851
 3819TIP3    H111463   1.426   4.744   1.858
 3819TIP3    H211464   1.427   4.857   1.757
 3820TIP3   OH211465   5.875   0.314   1.994
 3820TIP3    H111466   5.853   0.346   2.081
 3820TIP3    H211467   5.924   0.386   1.954
 3821TIP3   OH211468   1.131   0.492   2.051
 3821TIP3    H111469   1.078   0.558   2.005
 3821TIP3    H211470   1.139   0.526   2.140
 3822TIP3   OH211471   3.659   2.690   0.741
 3822TIP3    H111472   3.724   2.756   0.716
 3822TIP3    H211473   3.583   2.709   0.687
 3823TIP3   OH211474   4.348   4.023   2.585
 3823TIP3    H111475   4.269   4.035   2.639
 3823TIP3    H211476   4.334   4.081   2.510
 3824TIP3   OH211477   2.841   3.078   0.710
 3824TIP3    H111478   2.802   3.069   0.797
 3824TIP3    H211479   2.767   3.065   0.650
 3825TIP3   OH211480   5.597   2.989   1.542
 3825TIP3    H111481   5.635   3.037   1.615
 3825TIP3    H211482   5.627   2.899   1.554
 3826TIP3   OH211483   4.592   2.990   4.151
 3826TIP3    H111484   4.565   2.901   4.172
 3826TIP3    H211485   4.515   3.031   4.112
 3827TIP3   OH211486   5.884   0.649   0.622
 3827TIP3    H111487   5.840   0.564   0.615
 3827TIP3    H211488   5.863   0.694   0.540
 3828TIP3   OH211489   0.902   1.121   3.346
 3828TIP3    H111490   0.883   1.072   3.267
 3828TIP3    H211491   0.905   1.212   3.317
 3829TIP3   OH211492   1.612   5.879   2.825
 3829TIP3    H111493   1.677   5.887   2.754
 3829TIP3    H211494   1.632   5.952   2.883
 3830TIP3   OH211495   3.896   3.895   1.835
 3830TIP3    H111496   3.855   3.832   1.776
 3830TIP3    H211497   3.968   3.847   1.876
 3831TIP3   OH211498   2.945   5.508   1.800
 3831TIP3    H111499   2.971   5.420   1.773
 3831TIP3    H211500   3.022   5.544   1.844
 3832TIP3   OH211501   4.806   0.149   3.757
 3832TIP3    H111502   4.762   0.177   3.677
 3832TIP3    H211503   4.895   0.185   3.749
 3833TIP3   OH211504   1.840   4.197   2.763
 3833TIP3    H111505   1.904   4.202   2.834
 3833TIP3    H211506   1.856   4.277   2.711
 3834TIP3   OH211507   2.812   3.987   3.803
 3834TIP3    H111508   2.888   4.013   3.751
 3834TIP3    H211509   2.742   4.045   3.772
 3835TIP3   OH211510   2.456   1.911   1.541
 3835TIP3    H111511   2.527   1.873   1.490
 3835TIP3    H211512   2.433   1.991   1.493
 3836TIP3   OH211513   6.130   1.374   0.250
 3836TIP3    H111514   6.147   1.288   0.212
 3836TIP3    H211515   6.040   1.394   0.225
 3837TIP3   OH211516   0.397   1.183   3.504
 3837TIP3    H111517   0.316   1.160   3.459
 3837TIP3    H211518   0.466   1.147   3.449
 3838TIP3   OH211519   3.296   2.419   1.615
 3838TIP3    H111520   3.366   2.367   1.654
 3838TIP3    H211521   3.217   2.367   1.628
 3839TIP3   OH211522   1.351   0.611   2.610
 3839TIP3    H111523   1.348   0.673   2.683
 3839TIP3    H211524   1.261   0.608   2.577
 3840TIP3   OH211525   3.309   0.776   4.477
 3840TIP3    H111526   3.310   0.837   4.550
 3840TIP3    H211527   3.216   0.760   4.460
 3841TIP3   OH211528   5.744   0.651   1.526
 3841TIP3    H111529   5.653   0.639   1.552
 3841TIP3    H211530   5.740   0.715   1.454
 3842TIP3   OH211531   2.692   2.539   1.436
 3842TIP3    H111532   2.713   2.547   1.343
 3842TIP3    H211533   2.754   2.598   1.479
 3843TIP3   OH211534   5.372   4.359   4.112
 3843TIP3    H111535   5.282   4.368   4.143
 3843TIP3    H211536   5.398   4.271   4.140
 3844TIP3   OH211537   5.565   0.189   0.531
 3844TIP3    H111538   5.601   0.250   0.596
 3844TIP3    H211539   5.534   0.246   0.460
 3845TIP3   OH211540   0.228   1.971   0.557
 3845TIP3    H111541   0.228   2.066   0.559
 3845TIP3    H211542   0.287   1.948   0.484
 3846TIP3   OH211543   1.380   4.145   3.426
 3846TIP3    H111544   1.439   4.220   3.427
 3846TIP3    H211545   1.438   4.069   3.427
 3847TIP3   OH211546   0.997   2.318   3.087
 3847TIP3    H111547   1.076   2.372   3.094
 3847TIP3    H211548   0.946   2.340   3.165
 3848TIP3   OH211549   2.711   2.842   4.654
 3848TIP3    H111550   2.741   2.765   4.702
 3848TIP3    H211551   2.791   2.894   4.641
 3849TIP3   OH211552   2.315   5.799   4.779
 3849TIP3    H111553   2.249   5.759   4.722
 3849TIP3    H211554   2.343   5.728   4.837
 3850TIP3   OH211555   3.531   0.647   4.391
 3850TIP3    H111556   3.460   0.685   4.444
 3850TIP3    H211557   3.585   0.722   4.366
 3851TIP3   OH211558   6.121   0.334   4.619
 3851TIP3    H111559   6.061   0.372   4.683
 3851TIP3    H211560   6.063   0.297   4.552
 3852TIP3   OH211561   1.443   3.237   1.901
 3852TIP3    H111562   1.531   3.272   1.885
 3852TIP3    H211563   1.397   3.309   1.945
 3853TIP3   OH211564   1.273   5.015   4.502
 3853TIP3    H111565   1.182   5.035   4.479
 3853TIP3    H211566   1.270   5.000   4.596
 3854TIP3   OH211567   4.775   5.234   2.908
 3854TIP3    H111568   4.833   5.310   2.912
 3854TIP3    H211569   4.835   5.159   2.901
 3855TIP3   OH211570   3.200   0.937   2.100
 3855TIP3    H111571   3.113   0.971   2.121
 3855TIP3    H211572   3.229   0.894   2.181
 3856TIP3   OH211573   0.194   1.440   0.794
 3856TIP3    H111574   0.260   1.470   0.856
 3856TIP3    H211575   0.192   1.507   0.726
 3857TIP3   OH211576   4.942   0.587   3.282
 3857TIP3    H111577   4.901   0.563   3.366
 3857TIP3    H211578   4.869   0.591   3.220
 3858TIP3   OH211579   4.273   5.283   4.212
 3858TIP3    H111580   4.236   5.198   4.189
 3858TIP3    H211581   4.209   5.347   4.181
 3859TIP3   OH211582   5.062   2.974   1.836
 3859TIP3    H111583   5.021   2.933   1.760
 3859TIP3    H211584   5.032   3.064   1.835
 3860TIP3   OH211585   4.085   2.057   1.259
 3860TIP3    H111586   4.033   2.130   1.228
 3860TIP3    H211587   4.170   2.095   1.283
 3861TIP3   OH211588   1.584   3.711   3.908
 3861TIP3    H111589   1.546   3.626   3.887
 3861TIP3    H211590   1.541   3.737   3.989
 3862TIP3   OH211591   3.059   1.537   0.865
 3862TIP3    H111592   3.050   1.464   0.805
 3862TIP3    H211593   3.038   1.501   0.951
 3863TIP3   OH211594   3.714   2.494   4.776
 3863TIP3    H111595   3.646   2.540   4.825
 3863TIP3    H211596   3.758   2.440   4.842
 3864TIP3   OH211597   1.745   5.093   3.896
 3864TIP3    H111598   1.795   5.043   3.960
 3864TIP3    H211599   1.716   5.028   3.832
 3865TIP3   OH211600   1.765   5.813   2.585
 3865TIP3    H111601   1.838   5.818   2.524
 3865TIP3    H211602   1.709   5.744   2.550
 3866TIP3   OH211603   0.579   1.196   4.559
 3866TIP3    H111604   0.634   1.269   4.588
 3866TIP3    H211605   0.563   1.214   4.466
 3867TIP3   OH211606   1.071   2.828   0.331
 3867TIP3    H111607   1.067   2.876   0.413
 3867TIP3    H211608   1.141   2.764   0.343
 3868TIP3   OH211609   5.967   5.445   4.800
 3868TIP3    H111610   5.974   5.385   4.874
 3868TIP3    H211611   6.050   5.492   4.798
 3869TIP3   OH211612   5.574   5.702   1.558
 3869TIP3    H111613   5.478   5.704   1.558
 3869TIP3    H211614   5.598   5.714   1.466
 3870TIP3   OH211615   2.972   0.421   4.242
 3870TIP3    H111616   3.051   0.432   4.296
 3870TIP3    H211617   2.989   0.474   4.164
 3871TIP3   OH211618   0.607   2.646   4.315
 3871TIP3    H111619   0.652   2.701   4.250
 3871TIP3    H211620   0.575   2.571   4.265
 3872TIP3   OH211621   2.341   1.514   4.813
 3872TIP3    H111622   2.315   1.433   4.857
 3872TIP3    H211623   2.365   1.487   4.725
 3873TIP3   OH211624   3.931   2.459   5.151
 3873TIP3    H111625   3.968   2.439   5.237
 3873TIP3    H211626   3.925   2.374   5.107
 3874TIP3   OH211627   4.890   4.538   4.186
 3874TIP3    H111628   4.842   4.506   4.111
 3874TIP3    H211629   4.827   4.534   4.259
 3875TIP3   OH211630   1.474   4.631   0.566
 3875TIP3    H111631   1.486   4.724   0.588
 3875TIP3    H211632   1.479   4.629   0.471
 3876TIP3   OH211633   0.608   3.301   2.156
 3876TIP3    H111634   0.576   3.360   2.087
 3876TIP3    H211635   0.529   3.254   2.185
 3877TIP3   OH211636   5.867   0.708   3.708
 3877TIP3    H111637   5.879   0.613   3.712
 3877TIP3    H211638   5.798   0.721   3.642
 3878TIP3   OH211639   5.743   0.819   0.426
 3878TIP3    H111640   5.774   0.908   0.408
 3878TIP3    H211641   5.721   0.820   0.519
 3879TIP3   OH211642   0.963   5.247   0.912
 3879TIP3    H111643   0.911   5.182   0.865
 3879TIP3    H211644   0.988   5.204   0.993
 3880TIP3   OH211645   1.151   1.339   0.995
 3880TIP3    H111646   1.115   1.253   0.972
 3880TIP3    H211647   1.174   1.331   1.087
 3881TIP3   OH211648   5.506   0.728   0.633
 3881TIP3    H111649   5.476   0.713   0.543
 3881TIP3    H211650   5.510   0.823   0.641
 3882TIP3   OH211651   5.968   4.523   2.827
 3882TIP3    H111652   6.003   4.603   2.789
 3882TIP3    H211653   6.011   4.453   2.777
 3883TIP3   OH211654   3.323   2.468   1.197
 3883TIP3    H111655   3.269   2.548   1.203
 3883TIP3    H211656   3.327   2.450   1.103
 3884TIP3   OH211657   0.935   2.239   2.547
 3884TIP3    H111658   0.928   2.217   2.640
 3884TIP3    H211659   0.976   2.325   2.545
 3885TIP3   OH211660   5.770   4.205   1.705
 3885TIP3    H111661   5.746   4.220   1.613
 3885TIP3    H211662   5.844   4.263   1.720
 3886TIP3   OH211663   0.278   1.456   4.315
 3886TIP3    H111664   0.190   1.486   4.339
 3886TIP3    H211665   0.284   1.368   4.354
 3887TIP3   OH211666   3.885   0.822   5.003
 3887TIP3    H111667   3.924   0.776   5.077
 3887TIP3    H211668   3.951   0.817   4.933
 3888TIP3   OH211669   4.268   5.515   0.058
 3888TIP3    H111670   4.305   5.548  -0.023
 3888TIP3    H211671   4.175   5.539   0.054
 3889TIP3   OH211672   5.103   6.004   0.257
 3889TIP3    H111673   5.008   5.993   0.261
 3889TIP3    H211674   5.137   5.915   0.254
 3890TIP3   OH211675   3.630   0.984   4.106
 3890TIP3    H111676   3.602   0.892   4.100
 3890TIP3    H211677   3.697   0.993   4.038
 3891TIP3   OH211678   4.711   2.949   2.506
 3891TIP3    H111679   4.800   2.966   2.475
 3891TIP3    H211680   4.661   2.928   2.427
 3892TIP3   OH211681   4.199   3.100   1.190
 3892TIP3    H111682   4.241   3.103   1.275
 3892TIP3    H211683   4.201   3.007   1.165
 3893TIP3   OH211684   0.354   2.458   3.389
 3893TIP3    H111685   0.392   2.494   3.469
 3893TIP3    H211686   0.285   2.519   3.365
 3894TIP3   OH211687   1.037   5.618   0.193
 3894TIP3    H111688   0.968   5.553   0.205
 3894TIP3    H211689   1.112   5.568   0.161
 3895TIP3   OH211690   5.698   3.019   4.319
 3895TIP3    H111691   5.790   3.043   4.307
 3895TIP3    H211692   5.699   2.924   4.327
 3896TIP3   OH211693   0.650   5.161   1.721
 3896TIP3    H111694   0.608   5.199   1.643
 3896TIP3    H211695   0.717   5.225   1.745
 3897TIP3   OH211696   1.076   3.133   4.338
 3897TIP3    H111697   1.121   3.193   4.397
 3897TIP3    H211698   1.119   3.049   4.351
 3898TIP3   OH211699   0.693   3.017   4.594
 3898TIP3    H111700   0.644   2.934   4.594
 3898TIP3    H211701   0.735   3.020   4.679
 3899TIP3   OH211702   2.669   3.957   2.898
 3899TIP3    H111703   2.751   3.959   2.849
 3899TIP3    H211704   2.695   3.960   2.990
 3900TIP3   OH211705   3.998   3.547   4.377
 3900TIP3    H111706   4.000   3.451   4.377
 3900TIP3    H211707   4.039   3.572   4.295
 3901TIP3   OH211708   3.315   1.922   1.369
 3901TIP3    H111709   3.312   1.889   1.459
 3901TIP3    H211710   3.348   1.848   1.317
 3902TIP3   OH211711   0.642   3.702   3.950
 3902TIP3    H111712   0.713   3.692   4.014
 3902TIP3    H211713   0.563   3.710   4.004
 3903TIP3   OH211714   1.993   5.210   2.170
 3903TIP3    H111715   2.064   5.238   2.113
 3903TIP3    H211716   1.939   5.154   2.115
 3904TIP3   OH211717   1.885   0.607   0.487
 3904TIP3    H111718   1.826   0.682   0.496
 3904TIP3    H211719   1.919   0.592   0.575
 3905TIP3   OH211720   3.081   4.677   3.029
 3905TIP3    H111721   3.106   4.711   2.943
 3905TIP3    H211722   3.163   4.680   3.080
 3906TIP3   OH211723   5.220   2.494   2.205
 3906TIP3    H111724   5.125   2.492   2.213
 3906TIP3    H211725   5.249   2.410   2.240
 3907TIP3   OH211726   0.476   4.252   1.781
 3907TIP3    H111727   0.425   4.173   1.797
 3907TIP3    H211728   0.543   4.253   1.849
 3908TIP3   OH211729   5.893   2.531   4.115
 3908TIP3    H111730   5.804   2.525   4.149
 3908TIP3    H211731   5.926   2.615   4.147
 3909TIP3   OH211732   0.204   1.761   4.434
 3909TIP3    H111733   0.282   1.707   4.422
 3909TIP3    H211734   0.132   1.699   4.439
 3910TIP3   OH211735   3.982   3.498   0.340
 3910TIP3    H111736   4.070   3.507   0.377
 3910TIP3    H211737   3.991   3.533   0.251
 3911TIP3   OH211738   4.905   2.221   2.473
 3911TIP3    H111739   4.846   2.165   2.523
 3911TIP3    H211740   4.928   2.292   2.533
 3912TIP3   OH211741   6.262   3.884   1.423
 3912TIP3    H111742   6.303   3.884   1.337
 3912TIP3    H211743   6.333   3.866   1.485
 3913TIP3   OH211744   2.094   1.794   2.347
 3913TIP3    H111745   2.157   1.723   2.342
 3913TIP3    H211746   2.060   1.790   2.436
 3914TIP3   OH211747   5.143   1.540   3.615
 3914TIP3    H111748   5.056   1.556   3.578
 3914TIP3    H211749   5.153   1.608   3.682
 3915TIP3   OH211750   0.597   2.500   3.280
 3915TIP3    H111751   0.530   2.457   3.333
 3915TIP3    H211752   0.559   2.584   3.256
 3916TIP3   OH211753   5.070   1.367   2.970
 3916TIP3    H111754   5.039   1.387   2.882
 3916TIP3    H211755   5.064   1.272   2.977
 3917TIP3   OH211756   4.968   1.686   3.416
 3917TIP3    H111757   4.921   1.609   3.384
 3917TIP3    H211758   4.929   1.703   3.502
 3918TIP3   OH211759   6.186   3.588   4.468
 3918TIP3    H111760   6.279   3.594   4.489
 3918TIP3    H211761   6.167   3.494   4.471
 3919TIP3   OH211762   1.320   5.183   1.049
 3919TIP3    H111763   1.348   5.111   1.106
 3919TIP3    H211764   1.226   5.190   1.064
 3920TIP3   OH211765   5.757   1.052   0.651
 3920TIP3    H111766   5.752   1.091   0.563
 3920TIP3    H211767   5.673   1.072   0.691
 3921TIP3   OH211768   4.167   2.175   4.404
 3921TIP3    H111769   4.158   2.270   4.398
 3921TIP3    H211770   4.093   2.140   4.354
 3922TIP3   OH211771   5.874   3.908   4.459
 3922TIP3    H111772   5.955   3.927   4.412
 3922TIP3    H211773   5.893   3.931   4.550
 3923TIP3   OH211774   4.195   5.674   4.871
 3923TIP3    H111775   4.257   5.601   4.873
 3923TIP3    H211776   4.150   5.665   4.786
 3924TIP3   OH211777   4.028   4.645   2.515
 3924TIP3    H111778   4.099   4.613   2.569
 3924TIP3    H211779   4.048   4.738   2.501
 3925TIP3   OH211780   5.339   2.521   3.264
 3925TIP3    H111781   5.417   2.564   3.299
 3925TIP3    H211782   5.288   2.497   3.341
 3926TIP3   OH211783   5.257   3.024   4.770
 3926TIP3    H111784   5.210   2.944   4.748
 3926TIP3    H211785   5.278   3.015   4.863
 3927TIP3   OH211786   3.853   1.964   3.185
 3927TIP3    H111787   3.915   1.926   3.248
 3927TIP3    H211788   3.786   2.006   3.239
 3928TIP3   OH211789   5.243   3.093   0.377
 3928TIP3    H111790   5.196   3.027   0.325
 3928TIP3    H211791   5.213   3.177   0.341
 3929TIP3   OH211792   1.568   4.049   1.242
 3929TIP3    H111793   1.600   3.970   1.286
 3929TIP3    H211794   1.549   4.020   1.153
 3930TIP3   OH211795   3.415   4.180   2.979
 3930TIP3    H111796   3.425   4.241   3.051
 3930TIP3    H211797   3.323   4.188   2.953
 3931TIP3   OH211798   2.629   1.716   4.553
 3931TIP3    H111799   2.611   1.781   4.485
 3931TIP3    H211800   2.600   1.757   4.634
 3932TIP3   OH211801   2.783   4.348   1.647
 3932TIP3    H111802   2.729   4.324   1.722
 3932TIP3    H211803   2.873   4.331   1.675
 3933TIP3   OH211804   3.349   5.399   1.360
 3933TIP3    H111805   3.424   5.458   1.367
 3933TIP3    H211806   3.336   5.367   1.449
 3934TIP3   OH211807   4.754   2.428   0.690
 3934TIP3    H111808   4.669   2.412   0.730
 3934TIP3    H211809   4.802   2.480   0.754
 3935TIP3   OH211810   2.871   3.787   2.393
 3935TIP3    H111811   2.912   3.700   2.390
 3935TIP3    H211812   2.804   3.779   2.462
 3936TIP3   OH211813   4.306   5.793   0.203
 3936TIP3    H111814   4.256   5.798   0.284
 3936TIP3    H211815   4.241   5.803   0.133
 3937TIP3   OH211816   2.482   2.101   0.766
 3937TIP3    H111817   2.564   2.147   0.784
 3937TIP3    H211818   2.414   2.167   0.777
 3938TIP3   OH211819   2.615   1.546   3.306
 3938TIP3    H111820   2.675   1.576   3.238
 3938TIP3    H211821   2.528   1.557   3.269
 3939TIP3   OH211822   1.426   5.262   1.930
 3939TIP3    H111823   1.422   5.324   2.002
 3939TIP3    H211824   1.426   5.176   1.973
 3940TIP3   OH211825   5.328   2.054   3.987
 3940TIP3    H111826   5.246   2.075   3.943
 3940TIP3    H211827   5.322   1.960   4.005
 3941TIP3   OH211828   5.064   2.350   0.930
 3941TIP3    H111829   5.008   2.417   0.892
 3941TIP3    H211830   5.090   2.386   1.015
 3942TIP3   OH211831   3.748   4.098   1.953
 3942TIP3    H111832   3.656   4.085   1.932
 3942TIP3    H211833   3.793   4.024   1.913
 3943TIP3   OH211834   1.912   4.112   4.868
 3943TIP3    H111835   1.950   4.119   4.780
 3943TIP3    H211836   1.846   4.181   4.871
 3944TIP3   OH211837   3.107   3.825   2.674
 3944TIP3    H111838   3.181   3.807   2.732
 3944TIP3    H211839   3.111   3.756   2.608
 3945TIP3   OH211840   4.214   0.703   2.533
 3945TIP3    H111841   4.295   0.746   2.503
 3945TIP3    H211842   4.144   0.763   2.508
 3946TIP3   OH211843   4.286   1.222   3.069
 3946TIP3    H111844   4.281   1.306   3.114
 3946TIP3    H211845   4.207   1.175   3.097
 3947TIP3   OH211846   2.350   1.080   4.917
 3947TIP3    H111847   2.269   1.045   4.882
 3947TIP3    H211848   2.412   1.076   4.844
 3948TIP3   OH211849   3.059   0.685   0.087
 3948TIP3    H111850   3.051   0.743   0.163
 3948TIP3    H211851   3.149   0.651   0.092
 3949TIP3   OH211852   0.204   0.483   2.098
 3949TIP3    H111853   0.124   0.506   2.144
 3949TIP3    H211854   0.237   0.566   2.063
 3950TIP3   OH211855   2.582   2.702   2.290
 3950TIP3    H111856   2.518   2.668   2.228
 3950TIP3    H211857   2.550   2.674   2.376
 3951TIP3   OH211858   5.320   5.244   3.589
 3951TIP3    H111859   5.380   5.308   3.627
 3951TIP3    H211860   5.340   5.162   3.634
 3952TIP3   OH211861   5.051   2.192   2.255
 3952TIP3    H111862   4.986   2.213   2.323
 3952TIP3    H211863   5.026   2.248   2.181
 3953TIP3   OH211864   3.907   1.395   0.902
 3953TIP3    H111865   3.850   1.441   0.840
 3953TIP3    H211866   3.972   1.461   0.928
 3954TIP3   OH211867   2.894   3.621   3.570
 3954TIP3    H111868   2.828   3.652   3.631
 3954TIP3    H211869   2.929   3.701   3.530
 3955TIP3   OH211870   3.310   4.264   4.291
 3955TIP3    H111871   3.362   4.328   4.242
 3955TIP3    H211872   3.358   4.182   4.279
 3956TIP3   OH211873   0.467   2.813   2.759
 3956TIP3    H111874   0.391   2.837   2.813
 3956TIP3    H211875   0.480   2.720   2.777
 3957TIP3   OH211876   2.917   0.446   1.881
 3957TIP3    H111877   2.927   0.352   1.870
 3957TIP3    H211878   2.966   0.485   1.808
 3958TIP3   OH211879   2.915   1.090   4.026
 3958TIP3    H111880   2.842   1.125   3.974
 3958TIP3    H211881   2.981   1.159   4.026
 3959TIP3   OH211882   5.628   0.659   2.126
 3959TIP3    H111883   5.593   0.630   2.210
 3959TIP3    H211884   5.554   0.699   2.081
 3960TIP3   OH211885   0.756   5.940   2.470
 3960TIP3    H111886   0.813   5.936   2.547
 3960TIP3    H211887   0.701   5.863   2.477
 3961TIP3   OH211888   0.058   2.491   4.480
 3961TIP3    H111889  -0.018   2.432   4.482
 3961TIP3    H211890   0.086   2.497   4.571
 3962TIP3   OH211891   3.150   5.006   4.607
 3962TIP3    H111892   3.122   4.946   4.677
 3962TIP3    H211893   3.086   5.077   4.609
 3963TIP3   OH211894   5.159   1.329   3.790
 3963TIP3    H111895   5.161   1.239   3.756
 3963TIP3    H211896   5.138   1.383   3.713
 3964TIP3   OH211897   5.311   3.375   2.749
 3964TIP3    H111898   5.220   3.349   2.762
 3964TIP3    H211899   5.315   3.466   2.779
 3965TIP3   OH211900   2.021   2.069   4.877
 3965TIP3    H111901   2.110   2.039   4.897
 3965TIP3    H211902   2.013   2.151   4.926
 3966TIP3   OH211903   5.538   3.155   0.101
 3966TIP3    H111904   5.447   3.185   0.100
 3966TIP3    H211905   5.578   3.198   0.025
 3967TIP3   OH211906   1.132   2.992   0.579
 3967TIP3    H111907   1.178   2.918   0.618
 3967TIP3    H211908   1.080   3.029   0.651
 3968TIP3   OH211909   2.381   3.098   1.081
 3968TIP3    H111910   2.381   3.038   1.006
 3968TIP3    H211911   2.403   3.183   1.043
 3969TIP3   OH211912   4.551   0.823   2.095
 3969TIP3    H111913   4.532   0.914   2.072
 3969TIP3    H211914   4.599   0.828   2.177
 3970TIP3   OH211915   5.944   5.340   1.193
 3970TIP3    H111916   5.955   5.261   1.247
 3970TIP3    H211917   5.997   5.406   1.238
 3971TIP3   OH211918   0.097   5.735   4.915
 3971TIP3    H111919   0.098   5.700   4.826
 3971TIP3    H211920   0.166   5.688   4.960
 3972TIP3   OH211921   1.205   1.434   3.387
 3972TIP3    H111922   1.214   1.421   3.482
 3972TIP3    H211923   1.258   1.511   3.369
 3973TIP3   OH211924   5.912   5.509   4.129
 3973TIP3    H111925   5.919   5.601   4.158
 3973TIP3    H211926   6.001   5.486   4.103
 3974TIP3   OH211927   1.892   3.186   4.345
 3974TIP3    H111928   1.844   3.138   4.412
 3974TIP3    H211929   1.896   3.126   4.270
 3975TIP3   OH211930   5.217   5.361   0.116
 3975TIP3    H111931   5.284   5.405   0.168
 3975TIP3    H211932   5.263   5.285   0.079
 3976TIP3   OH211933   3.535   2.797   2.375
 3976TIP3    H111934   3.494   2.734   2.315
 3976TIP3    H211935   3.519   2.761   2.462
 3977TIP3   OH211936   5.295   0.549   2.195
 3977TIP3    H111937   5.263   0.638   2.181
 3977TIP3    H211938   5.363   0.559   2.262
 3978TIP3   OH211939   0.313   2.812   1.046
 3978TIP3    H111940   0.260   2.883   1.083
 3978TIP3    H211941   0.321   2.748   1.117
 3979TIP3   OH211942   4.199   0.970   1.340
 3979TIP3    H111943   4.283   1.016   1.346
 3979TIP3    H211944   4.172   0.957   1.430
 3980TIP3   OH211945   1.183   4.055   4.410
 3980TIP3    H111946   1.239   4.132   4.396
 3980TIP3    H211947   1.206   3.995   4.340
 3981TIP3   OH211948   0.909   5.740   0.412
 3981TIP3    H111949   0.819   5.708   0.410
 3981TIP3    H211950   0.957   5.682   0.352
 3982TIP3   OH211951   1.740   5.776   3.778
 3982TIP3    H111952   1.720   5.789   3.686
 3982TIP3    H211953   1.771   5.861   3.809
 3983TIP3   OH211954   5.302   1.158   0.294
 3983TIP3    H111955   5.371   1.119   0.240
 3983TIP3    H211956   5.303   1.251   0.271
 3984TIP3   OH211957   1.939   0.892   1.209
 3984TIP3    H111958   2.008   0.947   1.247
 3984TIP3    H211959   1.892   0.857   1.284
 3985TIP3   OH211960   3.849   3.388   1.276
 3985TIP3    H111961   3.759   3.363   1.294
 3985TIP3    H211962   3.880   3.324   1.213
 3986TIP3   OH211963   1.656   5.895   3.268
 3986TIP3    H111964   1.711   5.841   3.324
 3986TIP3    H211965   1.600   5.943   3.329
 3987TIP3   OH211966   6.319   4.878   1.911
 3987TIP3    H111967   6.343   4.869   2.004
 3987TIP3    H211968   6.293   4.790   1.885
 3988TIP3   OH211969   0.023   2.875   4.581
 3988TIP3    H111970   0.036   2.969   4.564
 3988TIP3    H211971   0.096   2.851   4.638
 3989TIP3   OH211972   1.049   4.580   1.519
 3989TIP3    H111973   1.106   4.655   1.502
 3989TIP3    H211974   1.109   4.509   1.542
 3990TIP3   OH211975   2.389   3.581   2.867
 3990TIP3    H111976   2.356   3.638   2.797
 3990TIP3    H211977   2.318   3.576   2.930
 3991TIP3   OH211978   2.830   1.744   3.428
 3991TIP3    H111979   2.807   1.693   3.506
 3991TIP3    H211980   2.910   1.790   3.451
 3992TIP3   OH211981   5.912   1.872   2.795
 3992TIP3    H111982   5.878   1.898   2.881
 3992TIP3    H211983   5.981   1.936   2.776
 3993TIP3   OH211984   0.056   4.606   2.523
 3993TIP3    H111985   0.110   4.682   2.544
 3993TIP3    H211986  -0.034   4.640   2.525
 3994TIP3   OH211987   0.975   2.082   3.726
 3994TIP3    H111988   1.060   2.104   3.687
 3994TIP3    H211989   0.915   2.149   3.695
 3995TIP3   OH211990   4.971   5.459   2.602
 3995TIP3    H111991   4.916   5.486   2.676
 3995TIP3    H211992   4.930   5.379   2.569
 3996TIP3   OH211993   0.429   2.400   0.755
 3996TIP3    H111994   0.474   2.472   0.798
 3996TIP3    H211995   0.470   2.396   0.668
 3997TIP3   OH211996   0.205   5.379   1.626
 3997TIP3    H111997   0.199   5.471   1.653
 3997TIP3    H211998   0.213   5.330   1.708
 3998TIP3   OH211999   4.244   0.919   4.478
 3998TIP3    H112000   4.326   0.965   4.495
 3998TIP3    H212001   4.270   0.837   4.437
 3999TIP3   OH212002   0.874   4.060   1.634
 3999TIP3    H112003   0.821   3.984   1.660
 3999TIP3    H212004   0.899   4.041   1.543
 4000TIP3   OH212005   4.460   2.756   4.173
 4000TIP3    H112006   4.435   2.731   4.084
 4000TIP3    H212007   4.468   2.674   4.220
 4001TIP3   OH212008   2.050   0.774   4.965
 4001TIP3    H112009   2.073   0.860   4.928
 4001TIP3    H212010   2.083   0.777   5.055
 4002TIP3   OH212011   0.857   2.760   2.370
 4002TIP3    H112012   0.927   2.758   2.304
 4002TIP3    H212013   0.815   2.675   2.363
 4003TIP3   OH212014   5.205   3.288   3.635
 4003TIP3    H112015   5.210   3.196   3.662
 4003TIP3    H212016   5.291   3.306   3.597
 4004TIP3   OH212017   1.620   3.079   3.866
 4004TIP3    H112018   1.594   2.987   3.858
 4004TIP3    H212019   1.666   3.098   3.785
 4005TIP3   OH212020   6.261   5.745   1.670
 4005TIP3    H112021   6.279   5.672   1.611
 4005TIP3    H212022   6.280   5.710   1.757
 4006TIP3   OH212023   2.640   5.689   4.210
 4006TIP3    H112024   2.611   5.721   4.295
 4006TIP3    H212025   2.730   5.719   4.202
 4007TIP3   OH212026   2.139   1.137   3.261
 4007TIP3    H112027   2.173   1.190   3.189
 4007TIP3    H212028   2.067   1.189   3.297
 4008TIP3   OH212029   4.795   0.997   4.276
 4008TIP3    H112030   4.878   1.033   4.309
 4008TIP3    H212031   4.748   0.968   4.354
 4009TIP3   OH212032   2.680   5.818   0.217
 4009TIP3    H112033   2.630   5.759   0.160
 4009TIP3    H212034   2.634   5.814   0.301
 4010TIP3   OH212035   1.097   2.773   1.750
 4010TIP3    H112036   1.090   2.862   1.783
 4010TIP3    H212037   1.166   2.733   1.803
 4011TIP3   OH212038   6.141   3.377   0.033
 4011TIP3    H112039   6.221   3.325   0.032
 4011TIP3    H212040   6.089   3.341  -0.039
 4012TIP3   OH212041   1.062   0.338   4.306
 4012TIP3    H112042   0.986   0.319   4.361
 4012TIP3    H212043   1.051   0.430   4.283
 4013TIP3   OH212044   6.171   1.958   0.144
 4013TIP3    H112045   6.251   2.011   0.141
 4013TIP3    H212046   6.101   2.022   0.160
 4014TIP3   OH212047   2.439   3.213   0.384
 4014TIP3    H112048   2.472   3.158   0.312
 4014TIP3    H212049   2.350   3.181   0.399
 4015TIP3   OH212050   5.452   3.277   3.541
 4015TIP3    H112051   5.445   3.215   3.468
 4015TIP3    H212052   5.490   3.356   3.503
 4016TIP3   OH212053   6.161   2.349   4.442
 4016TIP3    H112054   6.081   2.352   4.390
 4016TIP3    H212055   6.140   2.292   4.516
 4017TIP3   OH212056   5.037   3.624   1.053
 4017TIP3    H112057   5.016   3.671   1.133
 4017TIP3    H212058   5.087   3.547   1.081
 4018TIP3   OH212059   3.305   4.655   3.405
 4018TIP3    H112060   3.284   4.577   3.354
 4018TIP3    H212061   3.346   4.714   3.342
 4019TIP3   OH212062   0.599   3.891   2.603
 4019TIP3    H112063   0.633   3.921   2.688
 4019TIP3    H212064   0.531   3.828   2.626
 4020TIP3   OH212065   0.195   2.507   4.770
 4020TIP3    H112066   0.239   2.425   4.794
 4020TIP3    H212067   0.152   2.535   4.850
 4021TIP3   OH212068   3.569   2.320   4.576
 4021TIP3    H112069   3.634   2.298   4.643
 4021TIP3    H212070   3.485   2.316   4.622
 4022TIP3   OH212071   4.089   1.614   2.227
 4022TIP3    H112072   4.128   1.700   2.244
 4022TIP3    H212073   4.097   1.602   2.133
 4023TIP3   OH212074   4.573   3.306   2.097
 4023TIP3    H112075   4.616   3.245   2.157
 4023TIP3    H212076   4.485   3.318   2.133
 4024TIP3   OH212077   3.099   4.598   0.370
 4024TIP3    H112078   3.188   4.615   0.342
 4024TIP3    H212079   3.050   4.583   0.289
 4025TIP3   OH212080   6.140   5.449   4.443
 4025TIP3    H112081   6.120   5.527   4.494
 4025TIP3    H212082   6.063   5.393   4.453
 4026TIP3   OH212083   4.716   5.375   3.615
 4026TIP3    H112084   4.635   5.416   3.584
 4026TIP3    H212085   4.688   5.292   3.653
 4027TIP3   OH212086   5.211   2.049   3.078
 4027TIP3    H112087   5.227   2.032   3.171
 4027TIP3    H212088   5.237   2.141   3.067
 4028TIP3   OH212089   0.862   2.575   1.100
 4028TIP3    H112090   0.848   2.594   1.007
 4028TIP3    H212091   0.778   2.540   1.129
 4029TIP3   OH212092  -0.006   1.830   3.643
 4029TIP3    H112093  -0.019   1.792   3.556
 4029TIP3    H212094   0.079   1.796   3.672
 4030TIP3   OH212095   4.003   5.904   1.661
 4030TIP3    H112096   3.951   5.973   1.620
 4030TIP3    H212097   3.999   5.831   1.599
 4031TIP3   OH212098   1.086   4.441   2.968
 4031TIP3    H112099   1.047   4.382   2.903
 4031TIP3    H212100   1.129   4.383   3.031
 4032TIP3   OH212101   2.640   4.774   1.142
 4032TIP3    H112102   2.673   4.806   1.227
 4032TIP3    H212103   2.591   4.848   1.107
 4033TIP3   OH212104   0.202   5.116   0.479
 4033TIP3    H112105   0.113   5.089   0.457
 4033TIP3    H212106   0.196   5.146   0.570
 4034TIP3   OH212107   3.261   1.655   2.080
 4034TIP3    H112108   3.197   1.593   2.116
 4034TIP3    H212109   3.208   1.727   2.046
 4035TIP3   OH212110   2.240   5.776   1.840
 4035TIP3    H112111   2.224   5.865   1.808
 4035TIP3    H212112   2.273   5.788   1.929
 4036TIP3   OH212113   4.197   4.814   1.963
 4036TIP3    H112114   4.275   4.774   1.923
 4036TIP3    H212115   4.201   4.906   1.936
 4037TIP3   OH212116   3.056   2.236   4.216
 4037TIP3    H112117   3.042   2.221   4.309
 4037TIP3    H212118   3.133   2.184   4.194
 4038TIP3   OH212119   1.453   2.735   2.711
 4038TIP3    H112120   1.539   2.713   2.677
 4038TIP3    H212121   1.392   2.703   2.644
 4039TIP3   OH212122   1.759   2.355   5.195
 4039TIP3    H112123   1.762   2.373   5.101
 4039TIP3    H212124   1.808   2.428   5.235
 4040TIP3   OH212125   4.790   1.611   3.909
 4040TIP3    H112126   4.781   1.516   3.912
 4040TIP3    H212127   4.796   1.638   4.001
 4041TIP3   OH212128   0.335   3.964   0.185
 4041TIP3    H112129   0.322   4.015   0.265
 4041TIP3    H212130   0.304   3.876   0.207
 4042TIP3   OH212131   1.069   5.768   0.917
 4042TIP3    H112132   1.160   5.782   0.891
 4042TIP3    H212133   1.055   5.674   0.907
 4043TIP3   OH212134   5.267   3.259   0.052
 4043TIP3    H112135   5.230   3.347   0.051
 4043TIP3    H212136   5.288   3.241  -0.039
 4044TIP3   OH212137   3.375   2.370   2.026
 4044TIP3    H112138   3.431   2.366   2.104
 4044TIP3    H212139   3.367   2.279   1.998
 4045TIP3   OH212140   4.845   5.826   0.540
 4045TIP3    H112141   4.787   5.821   0.616
 4045TIP3    H212142   4.926   5.783   0.569
 4046TIP3   OH212143   4.000   1.851   3.395
 4046TIP3    H112144   4.071   1.914   3.405
 4046TIP3    H212145   3.935   1.876   3.461
 4047TIP3   OH212146   4.788   5.585   2.774
 4047TIP3    H112147   4.725   5.656   2.762
 4047TIP3    H212148   4.848   5.616   2.842
 4048TIP3   OH212149   0.503   3.449   2.373
 4048TIP3    H112150   0.480   3.452   2.465
 4048TIP3    H212151   0.546   3.364   2.362
 4049TIP3   OH212152   6.224   1.129   0.178
 4049TIP3    H112153   6.216   1.099   0.088
 4049TIP3    H212154   6.242   1.049   0.228
 4050TIP3   OH212155   5.720   4.227   4.761
 4050TIP3    H112156   5.656   4.157   4.772
 4050TIP3    H212157   5.704   4.287   4.834
 4051TIP3   OH212158   1.919   2.712   3.258
 4051TIP3    H112159   1.831   2.714   3.294
 4051TIP3    H212160   1.973   2.756   3.324
 4052TIP3   OH212161   1.371   2.463   3.788
 4052TIP3    H112162   1.327   2.378   3.791
 4052TIP3    H212163   1.305   2.523   3.753
 4053TIP3   OH212164   2.574   2.030   3.887
 4053TIP3    H112165   2.481   2.047   3.869
 4053TIP3    H212166   2.584   1.936   3.870
 4054TIP3   OH212167   5.580   0.164   0.083
 4054TIP3    H112168   5.625   0.095   0.132
 4054TIP3    H212169   5.493   0.169   0.124
 4055TIP3   OH212170   5.422   1.645   2.276
 4055TIP3    H112171   5.393   1.730   2.245
 4055TIP3    H212172   5.437   1.657   2.370
 4056TIP3   OH212173   0.227   4.300   4.402
 4056TIP3    H112174   0.278   4.348   4.337
 4056TIP3    H212175   0.213   4.362   4.473
 4057TIP3   OH212176   0.236   4.236   1.278
 4057TIP3    H112177   0.227   4.309   1.338
 4057TIP3    H212178   0.169   4.250   1.211
 4058TIP3   OH212179   3.228   0.407   2.122
 4058TIP3    H112180   3.227   0.451   2.037
 4058TIP3    H212181   3.233   0.478   2.186
 4059TIP3   OH212182   3.478   4.368   0.171
 4059TIP3    H112183   3.491   4.329   0.084
 4059TIP3    H212184   3.395   4.415   0.163
 4060TIP3   OH212185   2.568   1.556   3.569
 4060TIP3    H112186   2.598   1.548   3.479
 4060TIP3    H212187   2.482   1.514   3.570
 4061TIP3   OH212188   5.331   1.482   3.391
 4061TIP3    H112189   5.269   1.472   3.318
 4061TIP3    H212190   5.280   1.526   3.459
 4062TIP3   OH212191   5.882   3.859   4.828
 4062TIP3    H112192   5.801   3.815   4.802
 4062TIP3    H212193   5.949   3.817   4.774
 4063TIP3   OH212194   6.334   0.910   2.371
 4063TIP3    H112195   6.259   0.863   2.333
 4063TIP3    H212196   6.406   0.848   2.367
 4064TIP3   OH212197   1.050   3.212   3.625
 4064TIP3    H112198   1.021   3.249   3.708
 4064TIP3    H212199   1.145   3.211   3.631
 4065TIP3   OH212200   4.884   1.170   1.714
 4065TIP3    H112201   4.958   1.118   1.684
 4065TIP3    H212202   4.849   1.210   1.634
 4066TIP3   OH212203   0.880   1.461   3.944
 4066TIP3    H112204   0.855   1.504   3.862
 4066TIP3    H212205   0.957   1.510   3.974
 4067TIP3   OH212206   2.976   5.068   2.201
 4067TIP3    H112207   2.978   5.066   2.297
 4067TIP3    H212208   2.935   4.985   2.176
 4068TIP3   OH212209   4.811   2.672   2.961
 4068TIP3    H112210   4.890   2.617   2.962
 4068TIP3    H212211   4.844   2.761   2.977
 4069TIP3   OH212212   6.033   2.275   1.080
 4069TIP3    H112213   6.100   2.321   1.029
 4069TIP3    H212214   6.059   2.288   1.172
 4070TIP3   OH212215   1.802   0.471   0.846
 4070TIP3    H112216   1.727   0.413   0.856
 4070TIP3    H212217   1.848   0.437   0.769
 4071TIP3   OH212218   5.839   3.010   1.234
 4071TIP3    H112219   5.878   3.073   1.295
 4071TIP3    H212220   5.806   3.064   1.162
 4072TIP3   OH212221   6.117   1.753   4.773
 4072TIP3    H112222   6.056   1.813   4.816
 4072TIP3    H212223   6.179   1.729   4.842
 4073TIP3   OH212224   1.451   3.261   4.024
 4073TIP3    H112225   1.374   3.207   4.043
 4073TIP3    H212226   1.521   3.198   4.009
 4074TIP3   OH212227   4.809   4.015   1.251
 4074TIP3    H112228   4.791   4.070   1.175
 4074TIP3    H212229   4.857   4.071   1.311
 4075TIP3   OH212230   3.777   3.915   2.318
 4075TIP3    H112231   3.805   3.823   2.317
 4075TIP3    H212232   3.762   3.934   2.411
 4076TIP3   OH212233   0.724   4.261   5.114
 4076TIP3    H112234   0.774   4.262   5.033
 4076TIP3    H212235   0.722   4.353   5.143
 4077TIP3   OH212236   4.147   2.452   4.400
 4077TIP3    H112237   4.058   2.457   4.364
 4077TIP3    H212238   4.139   2.492   4.487
 4078TIP3   OH212239   2.762   1.445   1.301
 4078TIP3    H112240   2.809   1.418   1.380
 4078TIP3    H212241   2.671   1.455   1.330
 4079TIP3   OH212242   5.185   5.356   1.931
 4079TIP3    H112243   5.107   5.389   1.887
 4079TIP3    H212244   5.151   5.313   2.010
 4080TIP3   OH212245   0.709   0.513   3.139
 4080TIP3    H112246   0.707   0.430   3.186
 4080TIP3    H212247   0.720   0.487   3.047
 4081TIP3   OH212248   4.103   5.259   3.728
 4081TIP3    H112249   4.136   5.170   3.730
 4081TIP3    H212250   4.163   5.309   3.783
 4082TIP3   OH212251   2.053   0.429   0.969
 4082TIP3    H112252   1.966   0.451   0.935
 4082TIP3    H212253   2.082   0.509   1.013
 4083TIP3   OH212254   5.998   3.581   1.651
 4083TIP3    H112255   6.025   3.661   1.604
 4083TIP3    H212256   5.942   3.613   1.721
 4084TIP3   OH212257   1.268   4.772   4.388
 4084TIP3    H112258   1.276   4.859   4.425
 4084TIP3    H212259   1.287   4.783   4.294
 4085TIP3   OH212260   3.054   1.859   3.551
 4085TIP3    H112261   3.117   1.807   3.602
 4085TIP3    H212262   3.033   1.933   3.608
 4086TIP3   OH212263   1.522   2.215   3.688
 4086TIP3    H112264   1.482   2.134   3.718
 4086TIP3    H212265   1.580   2.189   3.616
 4087TIP3   OH212266   1.794   3.319   0.596
 4087TIP3    H112267   1.704   3.336   0.621
 4087TIP3    H212268   1.844   3.327   0.678
 4088TIP3   OH212269   2.793   4.092   2.478
 4088TIP3    H112270   2.774   4.126   2.391
 4088TIP3    H212271   2.843   4.012   2.463
 4089TIP3   OH212272   5.380   2.054   3.540
 4089TIP3    H112273   5.462   2.060   3.589
 4089TIP3    H212274   5.401   1.997   3.466
 4090TIP3   OH212275   5.468   5.191   1.716
 4090TIP3    H112276   5.491   5.185   1.809
 4090TIP3    H212277   5.426   5.276   1.707
 4091TIP3   OH212278   5.149   2.243   0.224
 4091TIP3    H112279   5.110   2.330   0.233
 4091TIP3    H212280   5.226   2.257   0.168
 4092TIP3   OH212281   6.012   1.210   4.551
 4092TIP3    H112282   6.016   1.117   4.573
 4092TIP3    H212283   5.964   1.214   4.469
 4093TIP3   OH212284   4.557   4.251   0.049
 4093TIP3    H112285   4.543   4.341   0.076
 4093TIP3    H212286   4.538   4.251  -0.045
 4094TIP3   OH212287   0.847   5.618   2.762
 4094TIP3    H112288   0.833   5.632   2.668
 4094TIP3    H212289   0.805   5.693   2.804
 4095TIP3   OH212290   4.190   3.173   4.655
 4095TIP3    H112291   4.107   3.126   4.648
 4095TIP3    H212292   4.250   3.125   4.597
 4096TIP3   OH212293   3.268   3.126   1.471
 4096TIP3    H112294   3.351   3.089   1.501
 4096TIP3    H212295   3.256   3.205   1.523
 4097TIP3   OH212296   1.168   3.965   3.857
 4097TIP3    H112297   1.250   3.931   3.821
 4097TIP3    H212298   1.161   4.054   3.823
 4098TIP3   OH212299   4.126   3.470   3.873
 4098TIP3    H112300   4.143   3.458   3.779
 4098TIP3    H212301   4.150   3.561   3.890
 4099TIP3   OH212302   3.244   1.862   0.821
 4099TIP3    H112303   3.185   1.847   0.896
 4099TIP3    H212304   3.255   1.957   0.819
 4100TIP3   OH212305   2.327   0.577   2.633
 4100TIP3    H112306   2.331   0.594   2.727
 4100TIP3    H212307   2.289   0.489   2.626
 4101TIP3   OH212308   5.959   1.790   0.715
 4101TIP3    H112309   5.995   1.718   0.663
 4101TIP3    H212310   6.026   1.859   0.709
 4102TIP3   OH212311   0.897   1.711   0.804
 4102TIP3    H112312   0.974   1.654   0.802
 4102TIP3    H212313   0.905   1.758   0.887
 4103TIP3   OH212314   4.550   2.920   2.265
 4103TIP3    H112315   4.498   2.984   2.314
 4103TIP3    H212316   4.488   2.849   2.246
 4104TIP3   OH212317   5.265   0.756   4.856
 4104TIP3    H112318   5.311   0.754   4.940
 4104TIP3    H212319   5.178   0.722   4.876
 4105TIP3   OH212320   2.078   2.765   2.828
 4105TIP3    H112321   2.005   2.808   2.873
 4105TIP3    H212322   2.116   2.707   2.894
 4106TIP3   OH212323   2.459   1.556   5.094
 4106TIP3    H112324   2.388   1.604   5.137
 4106TIP3    H212325   2.419   1.524   5.013
 4107TIP3   OH212326   1.641   1.949   1.645
 4107TIP3    H112327   1.699   1.888   1.691
 4107TIP3    H212328   1.674   2.036   1.669
 4108TIP3   OH212329   4.710   2.680   3.441
 4108TIP3    H112330   4.737   2.737   3.369
 4108TIP3    H212331   4.790   2.663   3.490
 4109TIP3   OH212332   0.891   5.146   0.517
 4109TIP3    H112333   0.979   5.133   0.480
 4109TIP3    H212334   0.886   5.082   0.588
 4110TIP3   OH212335   3.578   1.101   4.955
 4110TIP3    H112336   3.541   1.188   4.936
 4110TIP3    H212337   3.592   1.062   4.869
 4111TIP3   OH212338   4.444   5.580   3.616
 4111TIP3    H112339   4.470   5.537   3.697
 4111TIP3    H212340   4.476   5.670   3.624
 4112TIP3   OH212341   5.662   4.605   4.886
 4112TIP3    H112342   5.674   4.634   4.976
 4112TIP3    H212343   5.610   4.525   4.893
 4113TIP3   OH212344   1.148   4.766   1.216
 4113TIP3    H112345   1.206   4.836   1.247
 4113TIP3    H212346   1.156   4.770   1.121
 4114TIP3   OH212347   1.744   3.522   2.428
 4114TIP3    H112348   1.773   3.506   2.518
 4114TIP3    H212349   1.778   3.609   2.407
 4115TIP3   OH212350   1.664   5.593   4.786
 4115TIP3    H112351   1.744   5.645   4.784
 4115TIP3    H212352   1.686   5.515   4.734
 4116TIP3   OH212353   3.405   0.887   0.551
 4116TIP3    H112354   3.475   0.919   0.607
 4116TIP3    H212355   3.402   0.949   0.478
 4117TIP3   OH212356   0.330   3.850   2.229
 4117TIP3    H112357   0.269   3.892   2.289
 4117TIP3    H212358   0.415   3.889   2.249
 4118TIP3   OH212359   0.201   4.027   2.421
 4118TIP3    H112360   0.180   4.091   2.353
 4118TIP3    H212361   0.251   4.077   2.486
 4119TIP3   OH212362   1.287   5.557   3.541
 4119TIP3    H112363   1.276   5.527   3.631
 4119TIP3    H212364   1.351   5.627   3.546
 4120TIP3   OH212365   2.179   4.580   3.731
 4120TIP3    H112366   2.119   4.587   3.805
 4120TIP3    H212367   2.247   4.645   3.749
 4121TIP3   OH212368   4.440   4.990   4.478
 4121TIP3    H112369   4.483   5.063   4.433
 4121TIP3    H212370   4.419   5.024   4.565
 4122TIP3   OH212371   5.786   0.794   2.501
 4122TIP3    H112372   5.879   0.791   2.521
 4122TIP3    H212373   5.762   0.704   2.482
 4123TIP3   OH212374   0.043   3.725   4.980
 4123TIP3    H112375   0.052   3.654   5.044
 4123TIP3    H212376  -0.016   3.787   5.022
 4124TIP3   OH212377   4.737   0.797   2.361
 4124TIP3    H112378   4.804   0.801   2.293
 4124TIP3    H212379   4.772   0.851   2.432
 4125TIP3   OH212380   0.459   2.895   0.258
 4125TIP3    H112381   0.490   2.922   0.172
 4125TIP3    H212382   0.370   2.931   0.264
 4126TIP3   OH212383   2.033   4.523   0.387
 4126TIP3    H112384   2.082   4.605   0.385
 4126TIP3    H212385   1.957   4.542   0.442
 4127TIP3   OH212386   0.552   2.005   4.873
 4127TIP3    H112387   0.496   2.044   4.806
 4127TIP3    H212388   0.491   1.966   4.936
 4128TIP3   OH212389   2.470   1.097   2.783
 4128TIP3    H112390   2.482   1.168   2.720
 4128TIP3    H212391   2.451   1.142   2.865
 4129TIP3   OH212392   5.998   0.713   1.658
 4129TIP3    H112393   5.907   0.703   1.631
 4129TIP3    H212394   6.005   0.804   1.687
 4130TIP3   OH212395   3.194   2.369   3.588
 4130TIP3    H112396   3.233   2.291   3.626
 4130TIP3    H212397   3.233   2.442   3.636
 4131TIP3   OH212398   4.307   1.183   3.802
 4131TIP3    H112399   4.319   1.262   3.854
 4131TIP3    H212400   4.395   1.155   3.780
 4132TIP3   OH212401   3.456   3.515   3.702
 4132TIP3    H112402   3.512   3.437   3.694
 4132TIP3    H212403   3.421   3.510   3.791
 4133TIP3   OH212404   0.955   3.983   4.184
 4133TIP3    H112405   0.991   4.072   4.189
 4133TIP3    H212406   0.901   3.983   4.105
 4134TIP3   OH212407   4.917   5.506   4.560
 4134TIP3    H112408   4.826   5.501   4.529
 4134TIP3    H212409   4.916   5.573   4.628
 4135TIP3   OH212410   6.081   0.323   4.304
 4135TIP3    H112411   6.168   0.362   4.291
 4135TIP3    H212412   6.099   0.239   4.347
 4136TIP3   OH212413   1.874   4.333   2.143
 4136TIP3    H112414   1.849   4.250   2.103
 4136TIP3    H212415   1.891   4.392   2.069
 4137TIP3   OH212416   1.292   3.390   0.403
 4137TIP3    H112417   1.338   3.320   0.357
 4137TIP3    H212418   1.357   3.425   0.464
 4138TIP3   OH212419   2.145   1.212   2.403
 4138TIP3    H112420   2.235   1.196   2.372
 4138TIP3    H212421   2.121   1.132   2.448
 4139TIP3   OH212422   4.987   2.657   2.438
 4139TIP3    H112423   4.906   2.637   2.484
 4139TIP3    H212424   5.057   2.640   2.501
 4140TIP3   OH212425   4.840   3.251   3.842
 4140TIP3    H112426   4.812   3.321   3.784
 4140TIP3    H212427   4.820   3.282   3.930
 4141TIP3   OH212428   0.851   4.310   4.872
 4141TIP3    H112429   0.856   4.307   4.777
 4141TIP3    H212430   0.858   4.403   4.894
 4142TIP3   OH212431   3.867   3.040   4.247
 4142TIP3    H112432   3.890   2.947   4.249
 4142TIP3    H212433   3.772   3.042   4.240
 4143TIP3   OH212434   0.394   0.002   1.429
 4143TIP3    H112435   0.444   0.078   1.399
 4143TIP3    H212436   0.453  -0.072   1.417
 4144TIP3   OH212437   4.013   3.305   3.570
 4144TIP3    H112438   4.012   3.395   3.537
 4144TIP3    H212439   4.073   3.258   3.512
 4145TIP3   OH212440   5.282   5.370   2.495
 4145TIP3    H112441   5.236   5.411   2.568
 4145TIP3    H212442   5.360   5.425   2.483
 4146TIP3   OH212443   1.264   1.207   3.240
 4146TIP3    H112444   1.249   1.266   3.314
 4146TIP3    H212445   1.334   1.249   3.190
 4147TIP3   OH212446   3.748   3.416   0.475
 4147TIP3    H112447   3.816   3.454   0.420
 4147TIP3    H212448   3.784   3.332   0.503
 4148TIP3   OH212449   4.863   5.008   2.311
 4148TIP3    H112450   4.922   4.991   2.237
 4148TIP3    H212451   4.908   4.970   2.386
 4149TIP3   OH212452   1.955   0.200   2.225
 4149TIP3    H112453   1.920   0.118   2.190
 4149TIP3    H212454   2.003   0.239   2.152
 4150TIP3   OH212455   3.156   3.673   1.517
 4150TIP3    H112456   3.196   3.722   1.446
 4150TIP3    H212457   3.090   3.618   1.475
 4151TIP3   OH212458   6.309   1.900   0.478
 4151TIP3    H112459   6.308   1.825   0.419
 4151TIP3    H212460   6.399   1.904   0.511
 4152TIP3   OH212461   0.699   2.052   0.387
 4152TIP3    H112462   0.721   2.125   0.446
 4152TIP3    H212463   0.626   2.084   0.335
 4153TIP3   OH212464   5.128   2.639   3.157
 4153TIP3    H112465   5.123   2.622   3.063
 4153TIP3    H212466   5.216   2.611   3.182
 4154TIP3   OH212467   5.992   3.564   3.977
 4154TIP3    H112468   5.990   3.620   4.055
 4154TIP3    H212469   6.049   3.491   4.002
 4155TIP3   OH212470   0.850   1.174   1.341
 4155TIP3    H112471   0.760   1.142   1.342
 4155TIP3    H212472   0.842   1.267   1.321
 4156TIP3   OH212473   5.776   5.853   0.753
 4156TIP3    H112474   5.838   5.805   0.808
 4156TIP3    H212475   5.705   5.878   0.813
 4157TIP3   OH212476   0.764   4.216   1.869
 4157TIP3    H112477   0.790   4.167   1.791
 4157TIP3    H212478   0.823   4.185   1.937
 4158TIP3   OH212479   0.858   5.409   0.207
 4158TIP3    H112480   0.869   5.316   0.187
 4158TIP3    H212481   0.884   5.417   0.299
 4159TIP3   OH212482   1.461   5.477   4.935
 4159TIP3    H112483   1.527   5.504   4.872
 4159TIP3    H212484   1.378   5.504   4.896
 4160TIP3   OH212485   6.235   3.067   3.254
 4160TIP3    H112486   6.321   3.043   3.288
 4160TIP3    H212487   6.217   3.152   3.293
 4161TIP3   OH212488   1.809   4.400   1.514
 4161TIP3    H112489   1.723   4.439   1.502
 4161TIP3    H212490   1.867   4.452   1.459
 4162TIP3   OH212491   3.678   4.174   4.703
 4162TIP3    H112492   3.764   4.152   4.737
 4162TIP3    H212493   3.634   4.218   4.776
 4163TIP3   OH212494   2.525   5.728   1.695
 4163TIP3    H112495   2.444   5.743   1.743
 4163TIP3    H212496   2.515   5.776   1.613
 4164TIP3   OH212497   3.753   1.307   1.895
 4164TIP3    H112498   3.796   1.222   1.890
 4164TIP3    H212499   3.811   1.360   1.951
 4165TIP3   OH212500   2.806   3.257   4.500
 4165TIP3    H112501   2.730   3.247   4.444
 4165TIP3    H212502   2.776   3.313   4.571
 4166TIP3   OH212503   4.335   2.166   1.331
 4166TIP3    H112504   4.411   2.111   1.315
 4166TIP3    H212505   4.309   2.147   1.421
 4167TIP3   OH212506   4.730   5.921   1.852
 4167TIP3    H112507   4.809   5.873   1.827
 4167TIP3    H212508   4.750   6.012   1.832
 4168TIP3   OH212509   6.288   4.952   0.505
 4168TIP3    H112510   6.206   5.000   0.504
 4168TIP3    H212511   6.294   4.917   0.594
 4169TIP3   OH212512   6.144   4.673   2.469
 4169TIP3    H112513   6.050   4.686   2.476
 4169TIP3    H212514   6.174   4.742   2.410
 4170TIP3   OH212515   0.312   3.938   4.374
 4170TIP3    H112516   0.327   4.001   4.304
 4170TIP3    H212517   0.304   3.991   4.453
 4171TIP3   OH212518   4.105   5.150   1.070
 4171TIP3    H112519   4.185   5.201   1.056
 4171TIP3    H212520   4.123   5.065   1.029
 4172TIP3   OH212521   3.492   4.042   2.290
 4172TIP3    H112522   3.582   4.010   2.287
 4172TIP3    H212523   3.501   4.137   2.299
 4173TIP3   OH212524   4.730   1.761   0.944
 4173TIP3    H112525   4.765   1.847   0.965
 4173TIP3    H212526   4.697   1.727   1.027
 4174TIP3   OH212527   0.433   0.224   4.100
 4174TIP3    H112528   0.501   0.225   4.034
 4174TIP3    H212529   0.422   0.131   4.122
 4175TIP3   OH212530   3.634   3.469   0.735
 4175TIP3    H112531   3.664   3.447   0.646
 4175TIP3    H212532   3.676   3.553   0.754
 4176TIP3   OH212533   3.880   2.761   2.316
 4176TIP3    H112534   3.924   2.683   2.281
 4176TIP3    H212535   3.803   2.727   2.361
 4177TIP3   OH212536   3.477   2.837   3.739
 4177TIP3    H112537   3.559   2.813   3.694
 4177TIP3    H212538   3.484   2.932   3.751
 4178TIP3   OH212539   5.674   2.735   1.909
 4178TIP3    H112540   5.595   2.683   1.925
 4178TIP3    H212541   5.746   2.682   1.943
 4179TIP3   OH212542   3.688   4.283   2.424
 4179TIP3    H112543   3.747   4.249   2.356
 4179TIP3    H212544   3.738   4.353   2.466
 4180TIP3   OH212545   5.833   3.414   4.720
 4180TIP3    H112546   5.919   3.429   4.682
 4180TIP3    H212547   5.850   3.368   4.802
 4181TIP3   OH212548   3.333   3.540   3.471
 4181TIP3    H112549   3.377   3.516   3.552
 4181TIP3    H212550   3.286   3.621   3.492
 4182TIP3   OH212551   4.197   4.817   1.475
 4182TIP3    H112552   4.205   4.864   1.392
 4182TIP3    H212553   4.262   4.747   1.470
 4183TIP3   OH212554   5.917   1.511   3.837
 4183TIP3    H112555   5.916   1.442   3.771
 4183TIP3    H212556   5.974   1.477   3.906
 4184TIP3   OH212557   1.793   4.095   2.015
 4184TIP3    H112558   1.740   4.030   2.061
 4184TIP3    H212559   1.840   4.045   1.949
 4185TIP3   OH212560   5.688   2.683   2.633
 4185TIP3    H112561   5.735   2.601   2.618
 4185TIP3    H212562   5.722   2.743   2.567
 4186TIP3   OH212563   3.333   2.205   3.212
 4186TIP3    H112564   3.290   2.288   3.232
 4186TIP3    H212565   3.286   2.141   3.265
 4187TIP3   OH212566   4.495   1.530   3.494
 4187TIP3    H112567   4.466   1.617   3.523
 4187TIP3    H212568   4.544   1.548   3.413
 4188TIP3   OH212569   4.384   1.495   1.577
 4188TIP3    H112570   4.405   1.492   1.484
 4188TIP3    H212571   4.310   1.435   1.588
 4189TIP3   OH212572   4.031   4.067   1.377
 4189TIP3    H112573   4.120   4.089   1.404
 4189TIP3    H212574   3.987   4.151   1.368
 4190TIP3   OH212575   3.891   4.225   2.688
 4190TIP3    H112576   3.867   4.313   2.659
 4190TIP3    H212577   3.851   4.166   2.624
 4191TIP3   OH212578   5.765   1.396   1.186
 4191TIP3    H112579   5.753   1.378   1.279
 4191TIP3    H212580   5.734   1.317   1.141
 4192TIP3   OH212581   1.294   4.996   2.427
 4192TIP3    H112582   1.248   4.931   2.479
 4192TIP3    H212583   1.227   5.033   2.370
 4193TIP3   OH212584   3.705   4.025   0.866
 4193TIP3    H112585   3.714   4.042   0.772
 4193TIP3    H212586   3.786   3.979   0.890
 4194TIP3   OH212587   1.043   5.721   3.622
 4194TIP3    H112588   0.987   5.649   3.652
 4194TIP3    H212589   1.121   5.677   3.588
 4195TIP3   OH212590   0.223   1.739   3.788
 4195TIP3    H112591   0.239   1.806   3.854
 4195TIP3    H212592   0.170   1.673   3.832
 4196TIP3   OH212593   2.269   2.263   0.784
 4196TIP3    H112594   2.252   2.334   0.845
 4196TIP3    H212595   2.267   2.305   0.698
 4197TIP3   OH212596   5.283   5.000   2.640
 4197TIP3    H112597   5.348   4.952   2.692
 4197TIP3    H212598   5.294   4.967   2.551
 4198TIP3   OH212599   4.725   2.991   2.767
 4198TIP3    H112600   4.711   2.954   2.679
 4198TIP3    H212601   4.662   3.063   2.773
 4199TIP3   OH212602   5.505   4.763   0.780
 4199TIP3    H112603   5.555   4.712   0.843
 4199TIP3    H212604   5.569   4.793   0.716
 4200TIP3   OH212605   3.027   3.895   4.339
 4200TIP3    H112606   3.095   3.959   4.359
 4200TIP3    H212607   2.999   3.861   4.424
 4201TIP3   OH212608   0.924   5.247   3.088
 4201TIP3    H112609   0.877   5.330   3.079
 4201TIP3    H212610   0.862   5.181   3.058
 4202TIP3   OH212611   4.164   3.828   4.302
 4202TIP3    H112612   4.071   3.835   4.322
 4202TIP3    H212613   4.206   3.823   4.388
 4203TIP3   OH212614   4.411   4.124   1.857
 4203TIP3    H112615   4.345   4.193   1.846
 4203TIP3    H212616   4.381   4.052   1.802
 4204TIP3   OH212617   5.261   0.679   4.085
 4204TIP3    H112618   5.172   0.663   4.116
 4204TIP3    H212619   5.317   0.640   4.152
 4205TIP3   OH212620   2.093   0.498   3.471
 4205TIP3    H112621   2.098   0.459   3.559
 4205TIP3    H212622   2.053   0.430   3.417
 4206TIP3   OH212623   4.095   3.493   0.075
 4206TIP3    H112624   4.144   3.500  -0.007
 4206TIP3    H212625   4.156   3.449   0.135
 4207TIP3   OH212626   1.744   2.540   2.997
 4207TIP3    H112627   1.753   2.561   2.904
 4207TIP3    H212628   1.834   2.536   3.030
 4208TIP3   OH212629   0.070   5.495   3.833
 4208TIP3    H112630  -0.008   5.549   3.848
 4208TIP3    H212631   0.108   5.531   3.752
 4209TIP3   OH212632   2.309   1.888   0.821
 4209TIP3    H112633   2.238   1.922   0.875
 4209TIP3    H212634   2.361   1.965   0.799
 4210TIP3   OH212635   2.655   5.941   1.131
 4210TIP3    H112636   2.564   5.970   1.141
 4210TIP3    H212637   2.704   6.021   1.112
 4211TIP3   OH212638   4.308   4.720   3.113
 4211TIP3    H112639   4.262   4.645   3.075
 4211TIP3    H212640   4.388   4.728   3.060
 4212TIP3   OH212641   4.403   5.433   3.846
 4212TIP3    H112642   4.459   5.457   3.920
 4212TIP3    H212643   4.379   5.342   3.863
 4213TIP3   OH212644   0.870   4.344   1.624
 4213TIP3    H112645   0.930   4.374   1.693
 4213TIP3    H212646   0.876   4.248   1.628
 4214TIP3   OH212647   3.054   5.317   2.402
 4214TIP3    H112648   3.029   5.230   2.434
 4214TIP3    H212649   2.972   5.367   2.403
 4215TIP3   OH212650   1.780   5.808   1.854
 4215TIP3    H112651   1.711   5.756   1.895
 4215TIP3    H212652   1.856   5.749   1.852
 4216TIP3   OH212653   5.689   0.637   0.191
 4216TIP3    H112654   5.709   0.640   0.284
 4216TIP3    H212655   5.633   0.713   0.176
 4217TIP3   OH212656   4.950   0.107   4.210
 4217TIP3    H112657   4.987   0.045   4.148
 4217TIP3    H212658   4.858   0.114   4.185
 4218TIP3   OH212659   2.769   3.386   2.197
 4218TIP3    H112660   2.783   3.296   2.228
 4218TIP3    H212661   2.754   3.436   2.277
 4219TIP3   OH212662   5.680   5.574   4.943
 4219TIP3    H112663   5.692   5.511   4.872
 4219TIP3    H212664   5.757   5.561   4.999
 4220TIP3   OH212665   6.053   4.300   2.112
 4220TIP3    H112666   5.982   4.358   2.087
 4220TIP3    H212667   6.088   4.338   2.193
 4221TIP3   OH212668   3.366   2.633   2.240
 4221TIP3    H112669   3.311   2.649   2.164
 4221TIP3    H212670   3.335   2.550   2.277
 4222TIP3   OH212671   2.795   5.332   3.250
 4222TIP3    H112672   2.724   5.279   3.287
 4222TIP3    H212673   2.769   5.348   3.159
 4223TIP3   OH212674   5.536   5.186   2.559
 4223TIP3    H112675   5.464   5.237   2.522
 4223TIP3    H212676   5.548   5.222   2.646
 4224TIP3   OH212677   0.735   0.585   0.784
 4224TIP3    H112678   0.730   0.521   0.855
 4224TIP3    H212679   0.657   0.639   0.794
 4225TIP3   OH212680   1.908   5.342   4.675
 4225TIP3    H112681   1.988   5.374   4.716
 4225TIP3    H212682   1.853   5.315   4.748
 4226TIP3   OH212683   5.132   4.270   5.114
 4226TIP3    H112684   5.050   4.248   5.071
 4226TIP3    H212685   5.173   4.185   5.132
 4227TIP3   OH212686   5.644   3.716   3.316
 4227TIP3    H112687   5.688   3.737   3.233
 4227TIP3    H212688   5.612   3.800   3.348
 4228TIP3   OH212689   0.797   2.761   0.653
 4228TIP3    H112690   0.786   2.800   0.566
 4228TIP3    H212691   0.837   2.830   0.705
 4229TIP3   OH212692   0.434   5.917   0.471
 4229TIP3    H112693   0.343   5.938   0.448
 4229TIP3    H212694   0.436   5.822   0.476
 4230TIP3   OH212695   0.541   0.650   1.953
 4230TIP3    H112696   0.496   0.693   1.880
 4230TIP3    H212697   0.608   0.595   1.911
 4231TIP3   OH212698   6.205   1.231   3.818
 4231TIP3    H112699   6.239   1.179   3.892
 4231TIP3    H212700   6.124   1.187   3.793
 4232TIP3   OH212701   5.514   0.855   1.482
 4232TIP3    H112702   5.570   0.908   1.539
 4232TIP3    H212703   5.540   0.879   1.393
 4233TIP3   OH212704   0.525   1.095   3.946
 4233TIP3    H112705   0.546   1.043   3.868
 4233TIP3    H212706   0.610   1.127   3.976
 4234TIP3   OH212707   5.073   1.706   0.883
 4234TIP3    H112708   5.067   1.611   0.869
 4234TIP3    H212709   5.002   1.742   0.830
 4235TIP3   OH212710   0.025   0.288   3.890
 4235TIP3    H112711   0.016   0.232   3.813
 4235TIP3    H212712  -0.017   0.239   3.961
 4236TIP3   OH212713   3.919   5.099   3.013
 4236TIP3    H112714   3.828   5.070   3.020
 4236TIP3    H212715   3.953   5.055   2.935
 4237TIP3   OH212716   2.397   1.378   4.585
 4237TIP3    H112717   2.433   1.419   4.507
 4237TIP3    H212718   2.334   1.314   4.551
 4238TIP3   OH212719   1.292   5.277   2.407
 4238TIP3    H112720   1.205   5.250   2.376
 4238TIP3    H212721   1.337   5.195   2.428
 4239TIP3   OH212722   3.668   1.158   3.341
 4239TIP3    H112723   3.763   1.151   3.356
 4239TIP3    H212724   3.643   1.073   3.305
 4240TIP3   OH212725   3.995   4.780   4.918
 4240TIP3    H112726   3.973   4.810   5.006
 4240TIP3    H212727   3.914   4.742   4.885
 4241TIP3   OH212728   5.062   4.962   2.143
 4241TIP3    H112729   5.090   5.025   2.076
 4241TIP3    H212730   5.131   4.965   2.209
 4242TIP3   OH212731   1.000   5.429   5.020
 4242TIP3    H112732   0.928   5.367   5.027
 4242TIP3    H212733   1.065   5.384   4.967
 4243TIP3   OH212734   1.171   4.777   3.596
 4243TIP3    H112735   1.267   4.773   3.593
 4243TIP3    H212736   1.145   4.805   3.509
 4244TIP3   OH212737   4.170   5.859   2.131
 4244TIP3    H112738   4.103   5.844   2.198
 4244TIP3    H212739   4.121   5.878   2.051
 4245TIP3   OH212740   1.741   1.696   0.140
 4245TIP3    H112741   1.825   1.742   0.140
 4245TIP3    H212742   1.683   1.750   0.194
 4246TIP3   OH212743   3.253   5.217   0.357
 4246TIP3    H112744   3.298   5.218   0.272
 4246TIP3    H212745   3.270   5.130   0.392
 4247TIP3   OH212746   5.425   2.055   0.481
 4247TIP3    H112747   5.378   2.137   0.465
 4247TIP3    H212748   5.390   2.024   0.564
 4248TIP3   OH212749   4.244   4.559   2.313
 4248TIP3    H112750   4.321   4.598   2.355
 4248TIP3    H212751   4.172   4.578   2.373
 4249TIP3   OH212752   6.164   0.375   2.350
 4249TIP3    H112753   6.122   0.303   2.304
 4249TIP3    H212754   6.095   0.412   2.405
 4250TIP3   OH212755   0.123   1.791   4.124
 4250TIP3    H112756   0.061   1.721   4.101
 4250TIP3    H212757   0.068   1.866   4.146
 4251TIP3   OH212758   2.008   3.495   1.585
 4251TIP3    H112759   2.013   3.544   1.503
 4251TIP3    H212760   2.090   3.446   1.589
 4252TIP3   OH212761   5.704   5.045   1.665
 4252TIP3    H112762   5.630   5.105   1.655
 4252TIP3    H212763   5.670   4.961   1.633
 4253TIP3   OH212764   5.195   4.001   5.156
 4253TIP3    H112765   5.216   3.995   5.249
 4253TIP3    H212766   5.236   3.923   5.117
 4254TIP3   OH212767   3.801   1.967   3.537
 4254TIP3    H112768   3.720   1.970   3.588
 4254TIP3    H212769   3.823   2.060   3.524
 4255TIP3   OH212770   1.920   2.707   1.523
 4255TIP3    H112771   1.848   2.734   1.466
 4255TIP3    H212772   1.999   2.729   1.475
 4256TIP3   OH212773   3.172   3.895   1.027
 4256TIP3    H112774   3.140   3.900   0.937
 4256TIP3    H212775   3.262   3.924   1.022
 4257TIP3   OH212776   2.934   4.619   0.131
 4257TIP3    H112777   2.877   4.548   0.103
 4257TIP3    H212778   2.875   4.692   0.148
 4258TIP3   OH212779   1.324   3.623   2.482
 4258TIP3    H112780   1.396   3.562   2.463
 4258TIP3    H212781   1.261   3.571   2.531
 4259TIP3   OH212782   6.172   0.590   1.478
 4259TIP3    H112783   6.099   0.527   1.472
 4259TIP3    H212784   6.131   0.670   1.511
 4260TIP3   OH212785   0.481   5.450   0.604
 4260TIP3    H112786   0.412   5.484   0.661
 4260TIP3    H212787   0.547   5.415   0.665
 4261TIP3   OH212788   1.245   4.778   1.562
 4261TIP3    H112789   1.283   4.865   1.549
 4261TIP3    H212790   1.321   4.719   1.564
 4262TIP3   OH212791   6.368   2.096   3.163
 4262TIP3    H112792   6.333   2.100   3.252
 4262TIP3    H212793   6.310   2.036   3.117
 4263TIP3   OH212794   0.198   0.970   1.919
 4263TIP3    H112795   0.277   0.960   1.971
 4263TIP3    H212796   0.127   0.969   1.983
 4264TIP3   OH212797   5.236   3.897   4.230
 4264TIP3    H112798   5.247   3.803   4.246
 4264TIP3    H212799   5.174   3.902   4.158
 4265TIP3   OH212800   6.287   5.678   2.296
 4265TIP3    H112801   6.375   5.648   2.272
 4265TIP3    H212802   6.255   5.613   2.358
 4266TIP3   OH212803   4.283   5.571   0.355
 4266TIP3    H112804   4.377   5.585   0.362
 4266TIP3    H212805   4.264   5.579   0.262
 4267TIP3   OH212806   3.497   0.734   2.133
 4267TIP3    H112807   3.582   0.741   2.177
 4267TIP3    H212808   3.486   0.641   2.116
 4268TIP3   OH212809   1.391   2.835   0.924
 4268TIP3    H112810   1.416   2.853   1.015
 4268TIP3    H212811   1.452   2.887   0.872
 4269TIP3   OH212812   3.118   2.383   4.940
 4269TIP3    H112813   3.206   2.420   4.945
 4269TIP3    H212814   3.061   2.449   4.981
 4270TIP3   OH212815   0.503   5.116   0.202
 4270TIP3    H112816   0.508   5.135   0.109
 4270TIP3    H212817   0.477   5.199   0.243
 4271TIP3   OH212818   2.465   2.695   2.565
 4271TIP3    H112819   2.465   2.662   2.655
 4271TIP3    H212820   2.511   2.779   2.571
 4272TIP3   OH212821   2.586   1.467   2.891
 4272TIP3    H112822   2.565   1.382   2.929
 4272TIP3    H212823   2.501   1.511   2.883
 4273TIP3   OH212824   0.785   2.077   3.015
 4273TIP3    H112825   0.726   2.025   2.960
 4273TIP3    H212826   0.785   2.032   3.100
 4274TIP3   OH212827   4.800   4.725   0.524
 4274TIP3    H112828   4.771   4.692   0.439
 4274TIP3    H212829   4.878   4.672   0.545
 4275TIP3   OH212830   4.128   3.749   1.882
 4275TIP3    H112831   4.222   3.749   1.895
 4275TIP3    H212832   4.099   3.663   1.914
 4276TIP3   OH212833   2.395   5.097   3.704
 4276TIP3    H112834   2.367   5.121   3.615
 4276TIP3    H212835   2.318   5.057   3.744
 4277TIP3   OH212836   6.185   1.590   2.056
 4277TIP3    H112837   6.168   1.678   2.022
 4277TIP3    H212838   6.230   1.605   2.139
 4278TIP3   OH212839   6.044   3.101   2.305
 4278TIP3    H112840   6.005   3.188   2.314
 4278TIP3    H212841   6.123   3.115   2.253
 4279TIP3   OH212842   1.932   2.429   3.180
 4279TIP3    H112843   1.852   2.385   3.151
 4279TIP3    H212844   1.902   2.498   3.239
 4280TIP3   OH212845   6.000   1.192   5.013
 4280TIP3    H112846   5.945   1.151   5.080
 4280TIP3    H212847   6.017   1.122   4.950
 4281TIP3   OH212848   4.840   5.382   3.297
 4281TIP3    H112849   4.924   5.423   3.273
 4281TIP3    H212850   4.774   5.447   3.273
 4282TIP3   OH212851   1.323   5.506   0.783
 4282TIP3    H112852   1.363   5.529   0.699
 4282TIP3    H212853   1.397   5.483   0.840
 4283TIP3   OH212854   4.003   1.320   2.725
 4283TIP3    H112855   3.945   1.345   2.653
 4283TIP3    H212856   4.047   1.241   2.694
 4284TIP3   OH212857   0.536   5.587   5.091
 4284TIP3    H112858   0.532   5.502   5.135
 4284TIP3    H212859   0.584   5.570   5.010
 4285TIP3   OH212860   1.909   2.899   4.754
 4285TIP3    H112861   1.892   2.992   4.767
 4285TIP3    H212862   2.003   2.890   4.766
 4286TIP3   OH212863   0.688   1.611   1.213
 4286TIP3    H112864   0.657   1.702   1.209
 4286TIP3    H212865   0.748   1.609   1.287
 4287TIP3   OH212866   5.260   4.477   0.813
 4287TIP3    H112867   5.164   4.475   0.821
 4287TIP3    H212868   5.291   4.467   0.903
 4288TIP3   OH212869   1.011   5.875   0.102
 4288TIP3    H112870   1.021   5.791   0.147
 4288TIP3    H212871   0.961   5.929   0.163
 4289TIP3   OH212872   2.838   3.595   1.644
 4289TIP3    H112873   2.881   3.648   1.711
 4289TIP3    H212874   2.911   3.555   1.596
 4290TIP3   OH212875   6.310   0.730   4.057
 4290TIP3    H112876   6.260   0.680   3.993
 4290TIP3    H212877   6.394   0.746   4.015
 4291TIP3   OH212878   4.581   0.548   2.714
 4291TIP3    H112879   4.494   0.576   2.740
 4291TIP3    H212880   4.621   0.515   2.794
 4292TIP3   OH212881   5.519   5.058   3.248
 4292TIP3    H112882   5.536   5.123   3.317
 4292TIP3    H212883   5.504   4.976   3.295
 4293TIP3   OH212884   3.566   4.987   4.738
 4293TIP3    H112885   3.633   5.053   4.758
 4293TIP3    H212886   3.588   4.958   4.649
 4294TIP3   OH212887   0.727   5.103   2.982
 4294TIP3    H112888   0.788   5.030   2.976
 4294TIP3    H212889   0.655   5.079   2.924
 4295TIP3   OH212890   2.180   3.556   0.463
 4295TIP3    H112891   2.210   3.597   0.382
 4295TIP3    H212892   2.127   3.482   0.434
 4296TIP3   OH212893   5.861   0.848   2.123
 4296TIP3    H112894   5.878   0.893   2.041
 4296TIP3    H212895   5.775   0.808   2.111
 4297TIP3   OH212896   2.376   5.494   4.534
 4297TIP3    H112897   2.386   5.583   4.502
 4297TIP3    H212898   2.464   5.467   4.559
 4298TIP3   OH212899   5.350   5.384   4.181
 4298TIP3    H112900   5.387   5.382   4.092
 4298TIP3    H212901   5.312   5.297   4.193
 4299TIP3   OH212902   0.825   1.826   4.669
 4299TIP3    H112903   0.845   1.893   4.735
 4299TIP3    H212904   0.779   1.757   4.717
 4300TIP3   OH212905   3.528   3.736   2.458
 4300TIP3    H112906   3.522   3.710   2.366
 4300TIP3    H212907   3.602   3.796   2.461
 4301TIP3   OH212908   2.336   0.953   5.187
 4301TIP3    H112909   2.241   0.948   5.198
 4301TIP3    H212910   2.349   0.997   5.103
 4302TIP3   OH212911   0.661   4.441   2.812
 4302TIP3    H112912   0.712   4.435   2.893
 4302TIP3    H212913   0.675   4.357   2.768
 4303TIP3   OH212914   4.447   1.710   1.311
 4303TIP3    H112915   4.530   1.661   1.308
 4303TIP3    H212916   4.380   1.644   1.296
 4304TIP3   OH212917   6.059   4.587   4.945
 4304TIP3    H112918   6.073   4.633   4.862
 4304TIP3    H212919   6.035   4.656   5.007
 4305TIP3   OH212920   2.908   0.946   3.321
 4305TIP3    H112921   2.817   0.919   3.311
 4305TIP3    H212922   2.953   0.868   3.355
 4306TIP3   OH212923   0.096   3.942   1.826
 4306TIP3    H112924   0.010   3.914   1.857
 4306TIP3    H212925   0.157   3.880   1.866
 4307TIP3   OH212926   5.962   2.243   2.034
 4307TIP3    H112927   6.029   2.252   1.966
 4307TIP3    H212928   5.922   2.330   2.039
 4308TIP3   OH212929   5.537   5.614   0.745
 4308TIP3    H112930   5.526   5.609   0.840
 4308TIP3    H212931   5.560   5.525   0.718
 4309TIP3   OH212932   1.327   1.092   4.341
 4309TIP3    H112933   1.326   1.188   4.348
 4309TIP3    H212934   1.284   1.061   4.420
 4310TIP3   OH212935   1.996   3.380   0.397
 4310TIP3    H112936   2.051   3.303   0.408
 4310TIP3    H212937   1.936   3.377   0.471
 4311TIP3   OH212938   0.227   1.488   2.059
 4311TIP3    H112939   0.321   1.472   2.073
 4311TIP3    H212940   0.199   1.535   2.137
 4312TIP3   OH212941   4.924   5.209   0.770
 4312TIP3    H112942   5.001   5.166   0.733
 4312TIP3    H212943   4.890   5.263   0.699
 4313TIP3   OH212944   3.009   5.954   2.184
 4313TIP3    H112945   2.997   5.864   2.154
 4313TIP3    H212946   3.091   5.981   2.144
 4314TIP3   OH212947   3.502   3.217   3.320
 4314TIP3    H112948   3.565   3.289   3.317
 4314TIP3    H212949   3.422   3.254   3.281
 4315TIP3   OH212950   1.666   1.961   4.701
 4315TIP3    H112951   1.614   1.998   4.631
 4315TIP3    H212952   1.738   1.916   4.657
 4316TIP3   OH212953   1.058   5.490   0.733
 4316TIP3    H112954   1.151   5.470   0.719
 4316TIP3    H212955   1.023   5.413   0.777
 4317TIP3   OH212956   3.237   4.961   0.754
 4317TIP3    H112957   3.200   4.899   0.817
 4317TIP3    H212958   3.316   4.994   0.796
 4318TIP3   OH212959   2.710   4.784   0.212
 4318TIP3    H112960   2.626   4.754   0.178
 4318TIP3    H212961   2.746   4.840   0.143
 4319TIP3   OH212962   0.662   2.986   3.427
 4319TIP3    H112963   0.750   2.991   3.462
 4319TIP3    H212964   0.661   3.049   3.354
 4320TIP3   OH212965   4.843   2.254   4.927
 4320TIP3    H112966   4.876   2.172   4.890
 4320TIP3    H212967   4.898   2.269   5.004
 4321TIP3   OH212968   5.091   4.938   3.623
 4321TIP3    H112969   5.150   4.964   3.553
 4321TIP3    H212970   5.006   4.975   3.599
 4322TIP3   OH212971   4.284   1.884   1.448
 4322TIP3    H112972   4.364   1.840   1.418
 4322TIP3    H212973   4.214   1.841   1.400
 4323TIP3   OH212974   0.408   5.020   2.187
 4323TIP3    H112975   0.497   5.042   2.158
 4323TIP3    H212976   0.354   5.030   2.109
 4324TIP3   OH212977   1.563   2.847   4.063
 4324TIP3    H112978   1.473   2.817   4.071
 4324TIP3    H212979   1.586   2.829   3.972
 4325TIP3   OH212980   3.961   2.146   1.579
 4325TIP3    H112981   3.878   2.189   1.600
 4325TIP3    H212982   3.936   2.067   1.531
 4326TIP3   OH212983   5.386   0.470   4.717
 4326TIP3    H112984   5.463   0.489   4.770
 4326TIP3    H212985   5.332   0.549   4.723
 4327TIP3   OH212986   3.728   1.267   4.537
 4327TIP3    H112987   3.785   1.272   4.460
 4327TIP3    H212988   3.750   1.345   4.588
 4328TIP3   OH212989   3.602   5.699   3.683
 4328TIP3    H112990   3.522   5.671   3.638
 4328TIP3    H212991   3.622   5.629   3.744
 4329TIP3   OH212992   3.787   5.798   4.752
 4329TIP3    H112993   3.746   5.865   4.696
 4329TIP3    H212994   3.813   5.845   4.831
 4330TIP3   OH212995   4.344   3.099   3.171
 4330TIP3    H112996   4.438   3.110   3.154
 4330TIP3    H212997   4.302   3.169   3.120
 4331TIP3   OH212998   3.047   2.086   3.739
 4331TIP3    H112999   3.016   2.096   3.829
 4331TIP3    H213000   3.008   2.160   3.693
 4332TIP3   OH213001   0.857   5.947   4.081
 4332TIP3    H113002   0.882   5.886   4.150
 4332TIP3    H213003   0.768   5.975   4.104
 4333TIP3   OH213004   3.442   1.502   4.464
 4333TIP3    H113005   3.432   1.423   4.517
 4333TIP3    H213006   3.416   1.573   4.522
 4334TIP3   OH213007   0.406   3.607   0.875
 4334TIP3    H113008   0.482   3.646   0.832
 4334TIP3    H213009   0.337   3.673   0.867
 4335TIP3   OH213010   3.107   4.755   4.394
 4335TIP3    H113011   3.018   4.774   4.424
 4335TIP3    H213012   3.164   4.794   4.460
 4336TIP3   OH213013   3.038   4.026   4.025
 4336TIP3    H113014   2.944   4.007   4.020
 4336TIP3    H213015   3.077   3.945   4.057
 4337TIP3   OH213016   2.606   4.279   1.451
 4337TIP3    H113017   2.619   4.345   1.382
 4337TIP3    H213018   2.669   4.303   1.519
 4338TIP3   OH213019   0.150   5.646   3.304
 4338TIP3    H113020   0.196   5.564   3.286
 4338TIP3    H213021   0.065   5.637   3.261
 4339TIP3   OH213022   0.610   1.857   1.988
 4339TIP3    H113023   0.553   1.930   2.013
 4339TIP3    H213024   0.699   1.890   2.005
 4340TIP3   OH213025   5.566   5.356   1.378
 4340TIP3    H113026   5.504   5.282   1.377
 4340TIP3    H213027   5.595   5.362   1.468
 4341TIP3   OH213028   3.350   3.548   3.049
 4341TIP3    H113029   3.306   3.475   3.092
 4341TIP3    H213030   3.347   3.619   3.113
 4342TIP3   OH213031   0.864   2.454   3.313
 4342TIP3    H113032   0.769   2.466   3.314
 4342TIP3    H213033   0.899   2.540   3.334
 4343TIP3   OH213034   6.288   2.322   4.173
 4343TIP3    H113035   6.256   2.346   4.259
 4343TIP3    H213036   6.228   2.366   4.112
 4344TIP3   OH213037   4.311   4.909   0.667
 4344TIP3    H113038   4.339   4.880   0.580
 4344TIP3    H213039   4.302   5.004   0.659
 4345TIP3   OH213040   1.622   2.883   1.757
 4345TIP3    H113041   1.709   2.909   1.727
 4345TIP3    H213042   1.571   2.874   1.676
 4346TIP3   OH213043   3.309   4.761   4.648
 4346TIP3    H113044   3.282   4.843   4.688
 4346TIP3    H213045   3.277   4.693   4.708
 4347TIP3   OH213046   1.135   1.048   3.030
 4347TIP3    H113047   1.157   1.111   3.098
 4347TIP3    H213048   1.161   0.963   3.065
 4348TIP3   OH213049   0.006   1.208   2.879
 4348TIP3    H113050   0.068   1.232   2.948
 4348TIP3    H213051  -0.066   1.271   2.888
 4349TIP3   OH213052   6.346   5.523   4.281
 4349TIP3    H113053   6.384   5.610   4.295
 4349TIP3    H213054   6.269   5.522   4.338
 4350TIP3   OH213055   1.728   0.801   2.246
 4350TIP3    H113056   1.803   0.845   2.205
 4350TIP3    H213057   1.762   0.773   2.331
 4351TIP3   OH213058   5.578   2.036   0.261
 4351TIP3    H113059   5.659   2.001   0.298
 4351TIP3    H213060   5.516   2.037   0.335
 4352TIP3   OH213061   2.838   1.269   0.485
 4352TIP3    H113062   2.744   1.282   0.470
 4352TIP3    H213063   2.880   1.323   0.418
 4353TIP3   OH213064   0.188   2.191   4.450
 4353TIP3    H113065   0.131   2.196   4.527
 4353TIP3    H213066   0.177   2.101   4.418
 4354TIP3   OH213067   3.767   3.581   5.154
 4354TIP3    H113068   3.707   3.616   5.088
 4354TIP3    H213069   3.723   3.504   5.189
 4355TIP3   OH213070   4.643   4.253   3.317
 4355TIP3    H113071   4.658   4.345   3.335
 4355TIP3    H213072   4.723   4.209   3.347
 4356TIP3   OH213073   5.136   0.188   2.754
 4356TIP3    H113074   5.041   0.197   2.756
 4356TIP3    H213075   5.168   0.262   2.806
 4357TIP3   OH213076   4.937   3.248   0.445
 4357TIP3    H113077   5.003   3.306   0.483
 4357TIP3    H213078   4.939   3.171   0.502
 4358TIP3   OH213079   5.575   3.898   0.912
 4358TIP3    H113080   5.508   3.891   0.844
 4358TIP3    H213081   5.657   3.881   0.867
 4359TIP3   OH213082   1.821   1.620   3.966
 4359TIP3    H113083   1.784   1.556   3.905
 4359TIP3    H213084   1.757   1.691   3.968
 4360TIP3   OH213085   0.447   1.427   3.586
 4360TIP3    H113086   0.433   1.333   3.575
 4360TIP3    H213087   0.444   1.441   3.681
 4361TIP3   OH213088   1.695   4.929   0.881
 4361TIP3    H113089   1.648   4.892   0.806
 4361TIP3    H213090   1.673   5.022   0.880
 4362TIP3   OH213091   3.120   0.991   0.818
 4362TIP3    H113092   3.080   0.999   0.731
 4362TIP3    H213093   3.196   0.935   0.805
 4363TIP3   OH213094   0.902   1.563   3.674
 4363TIP3    H113095   0.986   1.600   3.646
 4363TIP3    H213096   0.877   1.504   3.602
 4364TIP3   OH213097   1.622   0.881   0.082
 4364TIP3    H113098   1.614   0.787   0.095
 4364TIP3    H213099   1.707   0.892   0.038
 4365TIP3   OH213100   2.852   5.286   0.828
 4365TIP3    H113101   2.845   5.332   0.911
 4365TIP3    H213102   2.804   5.340   0.766
 4366TIP3   OH213103   4.244   5.189   2.875
 4366TIP3    H113104   4.300   5.120   2.838
 4366TIP3    H213105   4.232   5.162   2.967
 4367TIP3   OH213106   5.453   1.351   0.960
 4367TIP3    H113107   5.498   1.400   0.891
 4367TIP3    H213108   5.468   1.401   1.040
 4368TIP3   OH213109   3.984   3.035   3.363
 4368TIP3    H113110   4.034   3.074   3.435
 4368TIP3    H213111   3.989   2.941   3.379
 4369TIP3   OH213112   6.086   3.718   0.893
 4369TIP3    H113113   6.166   3.666   0.881
 4369TIP3    H213114   6.108   3.780   0.962
 4370TIP3   OH213115   4.015   0.439   4.765
 4370TIP3    H113116   4.075   0.430   4.692
 4370TIP3    H213117   3.959   0.512   4.742
 4371TIP3   OH213118   0.712   1.845   1.450
 4371TIP3    H113119   0.679   1.799   1.528
 4371TIP3    H213120   0.636   1.852   1.392
 4372TIP3   OH213121   4.499   1.912   4.219
 4372TIP3    H113122   4.585   1.920   4.260
 4372TIP3    H213123   4.505   1.964   4.139
 4373TIP3   OH213124   3.413   0.166   3.723
 4373TIP3    H113125   3.366   0.148   3.804
 4373TIP3    H213126   3.436   0.259   3.729
 4374TIP3   OH213127   3.631   1.466   3.739
 4374TIP3    H113128   3.595   1.405   3.675
 4374TIP3    H213129   3.595   1.437   3.823
 4375TIP3   OH213130   5.889   5.155   2.754
 4375TIP3    H113131   5.833   5.111   2.817
 4375TIP3    H213132   5.849   5.136   2.669
 4376TIP3   OH213133   3.426   3.460   4.228
 4376TIP3    H113134   3.386   3.531   4.279
 4376TIP3    H213135   3.442   3.391   4.292
 4377TIP3   OH213136   0.120   5.530   1.299
 4377TIP3    H113137   0.077   5.517   1.384
 4377TIP3    H213138   0.079   5.609   1.264
 4378TIP3   OH213139   0.212   4.823   0.373
 4378TIP3    H113140   0.195   4.917   0.375
 4378TIP3    H213141   0.125   4.783   0.372
 4379TIP3   OH213142   2.136   2.213   3.602
 4379TIP3    H113143   2.080   2.141   3.632
 4379TIP3    H213144   2.120   2.217   3.508
 4380TIP3   OH213145   2.225   1.561   0.426
 4380TIP3    H113146   2.165   1.487   0.428
 4380TIP3    H213147   2.221   1.598   0.514
 4381TIP3   OH213148   3.790   5.877   2.278
 4381TIP3    H113149   3.828   5.954   2.236
 4381TIP3    H213150   3.725   5.912   2.339
 4382TIP3   OH213151   0.552   0.918   4.668
 4382TIP3    H113152   0.601   0.911   4.750
 4382TIP3    H213153   0.555   1.012   4.647
 4383TIP3   OH213154   2.153   0.802   0.372
 4383TIP3    H113155   2.189   0.849   0.448
 4383TIP3    H213156   2.059   0.821   0.375
 4384TIP3   OH213157   5.338   5.961   2.657
 4384TIP3    H113158   5.356   5.885   2.601
 4384TIP3    H213159   5.377   6.034   2.609
 4385TIP3   OH213160   5.968   2.749   4.693
 4385TIP3    H113161   6.020   2.744   4.612
 4385TIP3    H213162   5.899   2.812   4.673
 4386TIP3   OH213163   6.318   3.880   3.389
 4386TIP3    H113164   6.288   3.960   3.430
 4386TIP3    H213165   6.293   3.810   3.450
 4387TIP3   OH213166   1.420   5.792   0.525
 4387TIP3    H113167   1.325   5.804   0.531
 4387TIP3    H213168   1.431   5.699   0.507
 4388TIP3   OH213169   3.841   3.706   0.744
 4388TIP3    H113170   3.877   3.765   0.810
 4388TIP3    H213171   3.897   3.629   0.747
 4389TIP3   OH213172   2.325   3.543   0.743
 4389TIP3    H113173   2.323   3.466   0.686
 4389TIP3    H213174   2.254   3.598   0.711
 4390TIP3   OH213175   4.523   5.173   3.041
 4390TIP3    H113176   4.497   5.256   3.081
 4390TIP3    H213177   4.607   5.192   3.000
 4391TIP3   OH213178   0.505   0.304   3.807
 4391TIP3    H113179   0.417   0.333   3.833
 4391TIP3    H213180   0.493   0.214   3.777
 4392TIP3   OH213181   1.174   5.851   2.585
 4392TIP3    H113182   1.266   5.832   2.570
 4392TIP3    H213183   1.132   5.839   2.500
 4393TIP3   OH213184   1.840   3.719   0.331
 4393TIP3    H113185   1.887   3.664   0.269
 4393TIP3    H213186   1.750   3.686   0.330
 4394TIP3   OH213187   3.716   2.666   2.772
 4394TIP3    H113188   3.781   2.642   2.838
 4394TIP3    H213189   3.749   2.747   2.734
 4395TIP3   OH213190   3.310   3.989   0.057
 4395TIP3    H113191   3.334   4.014  -0.032
 4395TIP3    H213192   3.227   4.034   0.073
 4396TIP3   OH213193   0.455   1.468   0.629
 4396TIP3    H113194   0.438   1.395   0.688
 4396TIP3    H213195   0.524   1.518   0.671
 4397TIP3   OH213196   2.040   1.856   0.471
 4397TIP3    H113197   2.084   1.804   0.538
 4397TIP3    H213198   2.022   1.940   0.513
 4398TIP3   OH213199   4.611   3.270   4.047
 4398TIP3    H113200   4.566   3.342   4.002
 4398TIP3    H213201   4.562   3.257   4.128
 4399TIP3   OH213202   3.438   1.059   0.331
 4399TIP3    H113203   3.517   1.110   0.344
 4399TIP3    H213204   3.367   1.123   0.333
 4400TIP3   OH213205   4.778   1.611   4.946
 4400TIP3    H113206   4.704   1.583   4.893
 4400TIP3    H213207   4.822   1.529   4.971
 4401TIP3   OH213208   3.996   1.212   4.692
 4401TIP3    H113209   4.032   1.296   4.664
 4401TIP3    H213210   3.989   1.161   4.611
 4402TIP3   OH213211   5.736   2.389   0.985
 4402TIP3    H113212   5.777   2.467   0.950
 4402TIP3    H213213   5.807   2.340   1.026
 4403TIP3   OH213214   3.897   2.749   4.396
 4403TIP3    H113215   3.937   2.726   4.312
 4403TIP3    H213216   3.871   2.665   4.434
 4404TIP3   OH213217   4.390   3.720   1.962
 4404TIP3    H113218   4.410   3.713   2.056
 4404TIP3    H213219   4.465   3.678   1.919
 4405TIP3   OH213220   4.508   0.119   0.752
 4405TIP3    H113221   4.423   0.124   0.706
 4405TIP3    H213222   4.568   0.166   0.695
 4406TIP3   OH213223   3.248   2.903   2.056
 4406TIP3    H113224   3.258   2.970   1.988
 4406TIP3    H213225   3.267   2.820   2.011
 4407TIP3   OH213226   5.490   4.307   3.628
 4407TIP3    H113227   5.482   4.217   3.599
 4407TIP3    H213228   5.470   4.305   3.721
 4408TIP3   OH213229   4.793   2.965   3.730
 4408TIP3    H113230   4.791   3.045   3.676
 4408TIP3    H213231   4.862   2.912   3.691
 4409TIP3   OH213232   2.659   4.306   0.364
 4409TIP3    H113233   2.654   4.223   0.411
 4409TIP3    H213234   2.621   4.288   0.278
 4410TIP3   OH213235   1.828   1.527   1.728
 4410TIP3    H113236   1.793   1.495   1.645
 4410TIP3    H213237   1.807   1.457   1.791
 4411TIP3   OH213238   2.112   1.741   4.928
 4411TIP3    H113239   2.173   1.815   4.934
 4411TIP3    H213240   2.157   1.678   4.871
 4412TIP3   OH213241   0.848   0.568   3.742
 4412TIP3    H113242   0.803   0.488   3.769
 4412TIP3    H213243   0.929   0.569   3.793
 4413TIP3   OH213244   1.661   5.595   2.272
 4413TIP3    H113245   1.702   5.510   2.279
 4413TIP3    H213246   1.673   5.635   2.358
 4414TIP3   OH213247   0.199   0.972   4.071
 4414TIP3    H113248   0.227   1.062   4.090
 4414TIP3    H213249   0.253   0.917   4.127
 4415TIP3   OH213250   5.891   2.004   1.635
 4415TIP3    H113251   5.920   2.095   1.644
 4415TIP3    H213252   5.879   1.974   1.724
 4416TIP3   OH213253   5.280   3.318   1.575
 4416TIP3    H113254   5.292   3.376   1.649
 4416TIP3    H213255   5.292   3.374   1.498
 4417TIP3   OH213256   5.073   4.805   2.839
 4417TIP3    H113257   5.027   4.726   2.811
 4417TIP3    H213258   5.158   4.800   2.795
 4418TIP3   OH213259   1.756   1.609   3.024
 4418TIP3    H113260   1.661   1.602   3.015
 4418TIP3    H213261   1.774   1.577   3.112
 4419TIP3   OH213262   1.698   5.216   4.830
 4419TIP3    H113263   1.612   5.253   4.809
 4419TIP3    H213264   1.688   5.177   4.916
 4420TIP3   OH213265   2.717   0.785   0.046
 4420TIP3    H113266   2.775   0.721   0.005
 4420TIP3    H213267   2.629   0.754   0.026
 4421TIP3   OH213268   3.838   2.806   1.069
 4421TIP3    H113269   3.746   2.797   1.047
 4421TIP3    H213270   3.884   2.789   0.987
 4422TIP3   OH213271   2.539   0.594   4.175
 4422TIP3    H113272   2.624   0.632   4.197
 4422TIP3    H213273   2.530   0.519   4.233
 4423TIP3   OH213274   0.267   2.785   1.368
 4423TIP3    H113275   0.312   2.707   1.334
 4423TIP3    H213276   0.236   2.830   1.290
 4424TIP3   OH213277   1.339   0.821   3.041
 4424TIP3    H113278   1.282   0.747   3.020
 4424TIP3    H213279   1.394   0.831   2.964
 4425TIP3   OH213280   5.372   1.183   1.607
 4425TIP3    H113281   5.298   1.121   1.608
 4425TIP3    H213282   5.446   1.131   1.577
 4426TIP3   OH213283   1.478   1.802   4.098
 4426TIP3    H113284   1.481   1.711   4.067
 4426TIP3    H213285   1.480   1.854   4.018
 4427TIP3   OH213286   0.607   2.798   3.687
 4427TIP3    H113287   0.685   2.853   3.681
 4427TIP3    H213288   0.640   2.714   3.719
 4428TIP3   OH213289   5.568   1.644   3.166
 4428TIP3    H113290   5.612   1.567   3.130
 4428TIP3    H213291   5.479   1.640   3.132
 4429TIP3   OH213292   2.084   1.733   3.063
 4429TIP3    H113293   2.059   1.707   2.974
 4429TIP3    H213294   2.176   1.758   3.056
 4430TIP3   OH213295   4.754   3.533   4.668
 4430TIP3    H113296   4.670   3.551   4.711
 4430TIP3    H213297   4.808   3.494   4.737
 4431TIP3   OH213298   4.002   1.000   1.039
 4431TIP3    H113299   3.990   1.086   1.078
 4431TIP3    H213300   4.025   1.018   0.948
 4432TIP3   OH213301   2.397   1.445   2.389
 4432TIP3    H113302   2.421   1.522   2.441
 4432TIP3    H213303   2.327   1.477   2.331
 4433TIP3   OH213304   5.257   3.460   1.344
 4433TIP3    H113305   5.189   3.421   1.288
 4433TIP3    H213306   5.339   3.432   1.304
 4434TIP3   OH213307   1.980   3.115   0.246
 4434TIP3    H113308   1.899   3.165   0.258
 4434TIP3    H213309   1.955   3.042   0.189
 4435TIP3   OH213310   1.152   2.758   0.822
 4435TIP3    H113311   1.135   2.732   0.913
 4435TIP3    H213312   1.237   2.801   0.824
 4436TIP3   OH213313   5.127   4.734   2.403
 4436TIP3    H113314   5.080   4.802   2.452
 4436TIP3    H213315   5.212   4.772   2.384
 4437TIP3   OH213316   3.152   4.648   3.904
 4437TIP3    H113317   3.129   4.654   3.997
 4437TIP3    H213318   3.068   4.647   3.859
 4438TIP3   OH213319   1.579   4.847   4.389
 4438TIP3    H113320   1.532   4.832   4.471
 4438TIP3    H213321   1.618   4.762   4.368
 4439TIP3   OH213322   0.091   4.981   3.899
 4439TIP3    H113323   0.147   4.951   3.827
 4439TIP3    H213324   0.100   5.077   3.898
 4440TIP3   OH213325   6.071   5.881   1.817
 4440TIP3    H113326   6.012   5.929   1.760
 4440TIP3    H213327   6.119   5.823   1.758
 4441TIP3   OH213328   3.832   0.727   0.140
 4441TIP3    H113329   3.923   0.733   0.169
 4441TIP3    H213330   3.823   0.796   0.074
 4442TIP3   OH213331   0.968   1.788   0.251
 4442TIP3    H113332   1.009   1.872   0.231
 4442TIP3    H213333   0.885   1.811   0.292
 4443TIP3   OH213334   6.181   1.847   1.991
 4443TIP3    H113335   6.257   1.895   2.024
 4443TIP3    H213336   6.196   1.838   1.897
 4444TIP3   OH213337   1.223   2.348   2.578
 4444TIP3    H113338   1.221   2.352   2.482
 4444TIP3    H213339   1.315   2.334   2.599
 4445TIP3   OH213340   3.775   2.221   2.302
 4445TIP3    H113341   3.732   2.138   2.281
 4445TIP3    H213342   3.844   2.229   2.236
 4446TIP3   OH213343   2.840   1.217   4.366
 4446TIP3    H113344   2.811   1.266   4.443
 4446TIP3    H213345   2.819   1.274   4.292
 4447TIP3   OH213346   6.204   2.169   2.515
 4447TIP3    H113347   6.164   2.246   2.475
 4447TIP3    H213348   6.137   2.136   2.575
 4448TIP3   OH213349   3.282   3.070   4.593
 4448TIP3    H113350   3.277   3.089   4.686
 4448TIP3    H213351   3.355   3.009   4.585
 4449TIP3   OH213352   1.195   3.467   1.947
 4449TIP3    H113353   1.244   3.518   1.883
 4449TIP3    H213354   1.170   3.531   2.014
 4450TIP3   OH213355   2.943   4.943   2.737
 4450TIP3    H113356   2.914   4.966   2.826
 4450TIP3    H213357   2.935   4.847   2.734
 4451TIP3   OH213358   0.738   0.462   0.111
 4451TIP3    H113359   0.721   0.419   0.028
 4451TIP3    H213360   0.684   0.414   0.174
 4452TIP3   OH213361   3.201   5.178   3.593
 4452TIP3    H113362   3.169   5.091   3.568
 4452TIP3    H213363   3.215   5.223   3.510
 4453TIP3   OH213364   4.421   2.641   1.614
 4453TIP3    H113365   4.329   2.621   1.632
 4453TIP3    H213366   4.422   2.669   1.522
 4454TIP3   OH213367   3.436   3.852   1.517
 4454TIP3    H113368   3.529   3.844   1.495
 4454TIP3    H213369   3.393   3.867   1.432
 4455TIP3   OH213370   2.521   1.520   0.045
 4455TIP3    H113371   2.508   1.516   0.140
 4455TIP3    H213372   2.602   1.472   0.030
 4456TIP3   OH213373   4.531   4.391   4.226
 4456TIP3    H113374   4.454   4.363   4.175
 4456TIP3    H213375   4.548   4.480   4.197
 4457TIP3   OH213376   3.291   0.323   0.829
 4457TIP3    H113377   3.326   0.409   0.806
 4457TIP3    H213378   3.359   0.283   0.884
 4458TIP3   OH213379   3.176   4.634   4.878
 4458TIP3    H113380   3.233   4.594   4.943
 4458TIP3    H213381   3.088   4.610   4.905
 4459TIP3   OH213382   2.727   1.128   2.177
 4459TIP3    H113383   2.661   1.174   2.124
 4459TIP3    H213384   2.704   1.149   2.267
 4460TIP3   OH213385   6.202   5.330   4.971
 4460TIP3    H113386   6.202   5.356   5.063
 4460TIP3    H213387   6.256   5.395   4.927
 4461TIP3   OH213388   1.443   2.569   2.919
 4461TIP3    H113389   1.417   2.616   2.840
 4461TIP3    H213390   1.538   2.560   2.911
 4462TIP3   OH213391   0.859   2.706   0.231
 4462TIP3    H113392   0.945   2.743   0.248
 4462TIP3    H213393   0.800   2.781   0.231
 4463TIP3   OH213394   1.107   4.218   4.153
 4463TIP3    H113395   1.146   4.294   4.195
 4463TIP3    H213396   1.178   4.179   4.102
 4464TIP3   OH213397   5.609   4.562   3.677
 4464TIP3    H113398   5.563   4.596   3.754
 4464TIP3    H213399   5.616   4.468   3.693
 4465TIP3   OH213400   0.536   5.202   4.630
 4465TIP3    H113401   0.600   5.157   4.576
 4465TIP3    H213402   0.451   5.167   4.601
 4466TIP3   OH213403   5.881   5.322   4.491
 4466TIP3    H113404   5.832   5.250   4.531
 4466TIP3    H213405   5.823   5.398   4.500
 4467TIP3   OH213406   5.954   0.166   0.193
 4467TIP3    H113407   5.998   0.140   0.274
 4467TIP3    H213408   5.868   0.124   0.198
 4468TIP3   OH213409   3.596   0.934   3.186
 4468TIP3    H113410   3.519   0.887   3.219
 4468TIP3    H213411   3.571   0.962   3.098
 4469TIP3   OH213412   4.658   0.387   2.434
 4469TIP3    H113413   4.734   0.402   2.491
 4469TIP3    H213414   4.583   0.392   2.493
 4470TIP3   OH213415   4.405   0.728   4.372
 4470TIP3    H113416   4.416   0.717   4.278
 4470TIP3    H213417   4.491   0.752   4.404
 4471TIP3   OH213418   2.108   5.569   2.208
 4471TIP3    H113419   2.127   5.505   2.139
 4471TIP3    H213420   2.041   5.626   2.170
 4472TIP3   OH213421   6.192   2.815   1.624
 4472TIP3    H113422   6.155   2.903   1.630
 4472TIP3    H213423   6.260   2.812   1.691
 4473TIP3   OH213424   5.823   5.526   3.581
 4473TIP3    H113425   5.772   5.481   3.514
 4473TIP3    H213426   5.757   5.559   3.642
 4474TIP3   OH213427   4.773   0.144   0.583
 4474TIP3    H113428   4.814   0.067   0.622
 4474TIP3    H213429   4.810   0.218   0.631
 4475TIP3   OH213430   1.963   2.860   4.192
 4475TIP3    H113431   1.927   2.937   4.148
 4475TIP3    H213432   1.899   2.791   4.174
 4476TIP3   OH213433   5.386   4.507   3.886
 4476TIP3    H113434   5.292   4.495   3.878
 4476TIP3    H213435   5.409   4.466   3.969
 4477TIP3   OH213436   5.042   4.772   0.358
 4477TIP3    H113437   5.117   4.806   0.407
 4477TIP3    H213438   5.012   4.697   0.408
 4478TIP3   OH213439   0.837   1.553   0.118
 4478TIP3    H113440   0.851   1.483   0.182
 4478TIP3    H213441   0.852   1.634   0.167
 4479TIP3   OH213442   4.501   5.989   0.021
 4479TIP3    H113443   4.498   5.944   0.106
 4479TIP3    H213444   4.589   5.970  -0.012
 4480TIP3   OH213445   3.115   1.831   1.053
 4480TIP3    H113446   3.027   1.819   1.019
 4480TIP3    H213447   3.132   1.751   1.104
 4481TIP3   OH213448   0.090   4.806   2.192
 4481TIP3    H113449   0.128   4.891   2.216
 4481TIP3    H213450   0.013   4.798   2.248
 4482TIP3   OH213451   4.975   4.905   2.562
 4482TIP3    H113452   5.017   4.975   2.612
 4482TIP3    H213453   4.894   4.886   2.610
 4483TIP3   OH213454   0.678   1.967   4.481
 4483TIP3    H113455   0.590   1.934   4.500
 4483TIP3    H213456   0.735   1.916   4.538
 4484TIP3   OH213457   4.572   2.791   3.746
 4484TIP3    H113458   4.624   2.870   3.763
 4484TIP3    H213459   4.635   2.719   3.748
 4485TIP3   OH213460   2.026   2.117   0.059
 4485TIP3    H113461   2.012   2.192   0.001
 4485TIP3    H213462   2.100   2.071   0.020
 4486TIP3   OH213463   0.541   5.535   1.027
 4486TIP3    H113464   0.605   5.605   1.016
 4486TIP3    H213465   0.521   5.535   1.121
 4487TIP3   OH213466   1.447   2.170   2.205
 4487TIP3    H113467   1.521   2.111   2.220
 4487TIP3    H213468   1.420   2.152   2.115
 4488TIP3   OH213469   0.369   3.736   2.694
 4488TIP3    H113470   0.372   3.737   2.790
 4488TIP3    H213471   0.420   3.658   2.670
 4489TIP3   OH213472   2.800   1.655   2.764
 4489TIP3    H113473   2.779   1.729   2.821
 4489TIP3    H213474   2.730   1.592   2.780
 4490TIP3   OH213475   5.608   2.809   2.236
 4490TIP3    H113476   5.639   2.886   2.284
 4490TIP3    H213477   5.683   2.782   2.183
 4491TIP3   OH213478   0.455   2.586   2.466
 4491TIP3    H113479   0.390   2.602   2.398
 4491TIP3    H213480   0.404   2.577   2.547
 4492TIP3   OH213481   0.470   4.188   2.455
 4492TIP3    H113482   0.515   4.114   2.412
 4492TIP3    H213483   0.466   4.256   2.388
 4493TIP3   OH213484   1.140   5.025   0.045
 4493TIP3    H113485   1.111   4.957   0.107
 4493TIP3    H213486   1.143   4.979  -0.039
 4494TIP3   OH213487   5.969   0.378   3.800
 4494TIP3    H113488   5.918   0.398   3.879
 4494TIP3    H213489   5.905   0.341   3.739
 4495TIP3   OH213490   0.969   3.752   1.143
 4495TIP3    H113491   1.063   3.766   1.126
 4495TIP3    H213492   0.937   3.706   1.066
 4496TIP3   OH213493   6.250   2.915   2.041
 4496TIP3    H113494   6.299   2.892   1.962
 4496TIP3    H213495   6.158   2.903   2.016
 4497TIP3   OH213496   4.128   2.573   4.637
 4497TIP3    H113497   4.196   2.527   4.687
 4497TIP3    H213498   4.064   2.600   4.702
 4498TIP3   OH213499   4.575   5.421   2.747
 4498TIP3    H113500   4.668   5.441   2.756
 4498TIP3    H213501   4.542   5.415   2.837
 4499TIP3   OH213502   6.269   0.248   5.130
 4499TIP3    H113503   6.262   0.287   5.217
 4499TIP3    H213504   6.187   0.270   5.086
 4500TIP3   OH213505   4.569   3.366   3.401
 4500TIP3    H113506   4.513   3.395   3.329
 4500TIP3    H213507   4.658   3.376   3.368
 4501TIP3   OH213508   1.175   0.576   4.493
 4501TIP3    H113509   1.203   0.568   4.584
 4501TIP3    H213510   1.257   0.584   4.444
 4502TIP3   OH213511   0.265   5.334   4.165
 4502TIP3    H113512   0.292   5.293   4.083
 4502TIP3    H213513   0.182   5.292   4.187
 4503TIP3   OH213514   5.975   3.156   2.746
 4503TIP3    H113515   5.889   3.139   2.708
 4503TIP3    H213516   5.974   3.110   2.830
 4504TIP3   OH213517   2.516   1.188   1.271
 4504TIP3    H113518   2.486   1.250   1.205
 4504TIP3    H213519   2.595   1.149   1.232
 4505TIP3   OH213520   4.426   0.165   2.037
 4505TIP3    H113521   4.495   0.217   2.079
 4505TIP3    H213522   4.472   0.088   2.004
 4506TIP3   OH213523   6.168   3.612   2.490
 4506TIP3    H113524   6.128   3.527   2.507
 4506TIP3    H213525   6.094   3.673   2.490
 4507TIP3   OH213526   5.182   4.410   0.247
 4507TIP3    H113527   5.170   4.374   0.335
 4507TIP3    H213528   5.094   4.411   0.209
 4508TIP3   OH213529   6.075   4.775   4.368
 4508TIP3    H113530   6.126   4.700   4.341
 4508TIP3    H213531   6.136   4.848   4.366
 4509TIP3   OH213532   2.799   3.297   4.168
 4509TIP3    H113533   2.831   3.216   4.130
 4509TIP3    H213534   2.877   3.342   4.199
 4510TIP3   OH213535   2.859   3.249   0.957
 4510TIP3    H113536   2.944   3.204   0.958
 4510TIP3    H213537   2.835   3.257   1.049
 4511TIP3   OH213538   0.156   3.420   5.079
 4511TIP3    H113539   0.077   3.383   5.040
 4511TIP3    H213540   0.219   3.347   5.078
 4512TIP3   OH213541   0.067   1.605   4.688
 4512TIP3    H113542  -0.021   1.569   4.680
 4512TIP3    H213543   0.124   1.528   4.698
 4513TIP3   OH213544   4.224   0.136   2.203
 4513TIP3    H113545   4.167   0.103   2.134
 4513TIP3    H213546   4.304   0.163   2.158
 4514TIP3   OH213547   3.290   5.723   3.702
 4514TIP3    H113548   3.290   5.632   3.732
 4514TIP3    H213549   3.255   5.719   3.613
 4515TIP3   OH213550   3.193   3.632   4.355
 4515TIP3    H113551   3.140   3.601   4.429
 4515TIP3    H213552   3.163   3.721   4.340
 4516TIP3   OH213553   3.885   3.833   4.426
 4516TIP3    H113554   3.898   3.790   4.511
 4516TIP3    H213555   3.842   3.766   4.372
 4517TIP3   OH213556   3.345   3.410   1.053
 4517TIP3    H113557   3.352   3.396   1.148
 4517TIP3    H213558   3.277   3.476   1.043
 4518TIP3   OH213559   0.691   2.544   3.744
 4518TIP3    H113560   0.704   2.509   3.832
 4518TIP3    H213561   0.625   2.486   3.705
 4519TIP3   OH213562   6.116   2.070   4.594
 4519TIP3    H113563   6.097   1.993   4.648
 4519TIP3    H213564   6.211   2.069   4.583
 4520TIP3   OH213565   1.229   5.536   3.824
 4520TIP3    H113566   1.167   5.582   3.880
 4520TIP3    H213567   1.315   5.559   3.859
 4521TIP3   OH213568   0.462   0.429   3.366
 4521TIP3    H113569   0.442   0.397   3.278
 4521TIP3    H213570   0.383   0.475   3.394
 4522TIP3   OH213571   0.550   4.996   4.838
 4522TIP3    H113572   0.488   4.981   4.910
 4522TIP3    H213573   0.540   5.089   4.818
 4523TIP3   OH213574   1.510   3.004   3.604
 4523TIP3    H113575   1.433   3.016   3.549
 4523TIP3    H213576   1.503   2.914   3.637
 4524TIP3   OH213577   2.829   5.497   2.555
 4524TIP3    H113578   2.775   5.481   2.633
 4524TIP3    H213579   2.854   5.589   2.562
 4525TIP3   OH213580   2.392   1.784   0.166
 4525TIP3    H113581   2.385   1.827   0.252
 4525TIP3    H213582   2.406   1.692   0.186
 4526TIP3   OH213583   5.900   5.902   5.078
 4526TIP3    H113584   5.886   5.995   5.098
 4526TIP3    H213585   5.959   5.872   5.147
 4527TIP3   OH213586   3.075   2.693   0.108
 4527TIP3    H113587   3.098   2.619   0.051
 4527TIP3    H213588   3.032   2.653   0.183
 4528TIP3   OH213589   4.965   3.158   2.082
 4528TIP3    H113590   5.048   3.191   2.116
 4528TIP3    H213591   4.964   3.188   1.991
 4529TIP3   OH213592   0.525   2.168   0.869
 4529TIP3    H113593   0.502   2.247   0.819
 4529TIP3    H213594   0.589   2.123   0.814
 4530TIP3   OH213595   5.087   2.574   4.242
 4530TIP3    H113596   5.016   2.583   4.305
 4530TIP3    H213597   5.092   2.660   4.199
 4531TIP3   OH213598   3.423   1.670   1.225
 4531TIP3    H113599   3.451   1.664   1.316
 4531TIP3    H213600   3.374   1.589   1.210
 4532TIP3   OH213601   4.697   5.453   1.999
 4532TIP3    H113602   4.722   5.374   1.951
 4532TIP3    H213603   4.673   5.516   1.931
 4533TIP3   OH213604   5.004   1.077   1.947
 4533TIP3    H113605   4.982   1.151   2.005
 4533TIP3    H213606   4.969   1.102   1.862
 4534TIP3   OH213607   5.175   4.763   1.085
 4534TIP3    H113608   5.218   4.679   1.104
 4534TIP3    H213609   5.190   4.777   0.991
 4535TIP3   OH213610   3.694   5.412   4.924
 4535TIP3    H113611   3.790   5.407   4.916
 4535TIP3    H213612   3.676   5.504   4.941
 4536TIP3   OH213613   2.592   0.651   0.878
 4536TIP3    H113614   2.672   0.693   0.847
 4536TIP3    H213615   2.525   0.719   0.870
 4537TIP3   OH213616   0.113   0.415   2.735
 4537TIP3    H113617   0.155   0.499   2.717
 4537TIP3    H213618   0.185   0.355   2.754
 4538TIP3   OH213619   5.008   2.951   4.981
 4538TIP3    H113620   5.006   2.998   5.065
 4538TIP3    H213621   4.949   3.000   4.924
 4539TIP3   OH213622   4.086   0.551   2.724
 4539TIP3    H113623   4.127   0.597   2.651
 4539TIP3    H213624   4.125   0.589   2.802
 4540TIP3   OH213625   0.953   4.329   2.481
 4540TIP3    H113626   1.018   4.333   2.411
 4540TIP3    H213627   0.908   4.246   2.466
 4541TIP3   OH213628   1.513   5.183   0.236
 4541TIP3    H113629   1.593   5.188   0.185
 4541TIP3    H213630   1.535   5.124   0.309
 4542TIP3   OH213631   2.669   2.106   4.208
 4542TIP3    H113632   2.611   2.179   4.230
 4542TIP3    H213633   2.720   2.090   4.288
 4543TIP3   OH213634   1.813   1.639   2.274
 4543TIP3    H113635   1.779   1.710   2.328
 4543TIP3    H213636   1.822   1.677   2.187
 4544TIP3   OH213637   3.762   2.654   3.758
 4544TIP3    H113638   3.775   2.724   3.823
 4544TIP3    H213639   3.768   2.699   3.674
 4545TIP3   OH213640   1.458   5.674   0.023
 4545TIP3    H113641   1.421   5.741  -0.035
 4545TIP3    H213642   1.488   5.723   0.100
 4546TIP3   OH213643   6.047   5.828   0.639
 4546TIP3    H113644   6.104   5.803   0.712
 4546TIP3    H213645   5.990   5.897   0.675
 4547TIP3   OH213646   4.754   5.509   1.058
 4547TIP3    H113647   4.772   5.460   1.138
 4547TIP3    H213648   4.659   5.522   1.058
 4548TIP3   OH213649   4.394   1.168   1.435
 4548TIP3    H113650   4.325   1.219   1.475
 4548TIP3    H213651   4.471   1.225   1.436
 4549TIP3   OH213652   3.190   3.735   2.384
 4549TIP3    H113653   3.274   3.690   2.386
 4549TIP3    H213654   3.209   3.821   2.348
 4550TIP3   OH213655   4.377   3.975   0.697
 4550TIP3    H113656   4.372   4.070   0.700
 4550TIP3    H213657   4.427   3.956   0.618
 4551TIP3   OH213658   0.030   0.700   1.097
 4551TIP3    H113659  -0.016   0.625   1.135
 4551TIP3    H213660   0.054   0.755   1.172
 4552TIP3   OH213661   3.493   0.983   1.601
 4552TIP3    H113662   3.452   1.069   1.612
 4552TIP3    H213663   3.502   0.972   1.507
 4553TIP3   OH213664   4.092   0.487   1.554
 4553TIP3    H113665   4.079   0.421   1.622
 4553TIP3    H213666   4.040   0.562   1.584
 4554TIP3   OH213667   3.511   3.596   1.445
 4554TIP3    H113668   3.517   3.674   1.390
 4554TIP3    H213669   3.584   3.540   1.416
 4555TIP3   OH213670   4.890   1.278   2.102
 4555TIP3    H113671   4.874   1.362   2.146
 4555TIP3    H213672   4.832   1.216   2.146
 4556TIP3   OH213673   5.109   5.630   0.964
 4556TIP3    H113674   5.031   5.613   0.911
 4556TIP3    H213675   5.177   5.575   0.926
 4557TIP3   OH213676   2.360   5.596   2.313
 4557TIP3    H113677   2.411   5.558   2.242
 4557TIP3    H213678   2.273   5.610   2.274
 4558TIP3   OH213679   0.832   1.997   4.028
 4558TIP3    H113680   0.762   2.058   4.052
 4558TIP3    H213681   0.861   1.961   4.112
 4559TIP3   OH213682   0.164   1.028   4.705
 4559TIP3    H113683   0.140   0.969   4.634
 4559TIP3    H213684   0.168   0.972   4.782
 4560TIP3   OH213685   2.552   0.784   1.205
 4560TIP3    H113686   2.545   0.844   1.131
 4560TIP3    H213687   2.526   0.699   1.170
 4561TIP3   OH213688   2.843   2.383   3.774
 4561TIP3    H113689   2.900   2.374   3.850
 4561TIP3    H213690   2.779   2.449   3.801
 4562TIP3   OH213691   3.233   3.980   2.287
 4562TIP3    H113692   3.317   3.986   2.242
 4562TIP3    H213693   3.226   4.062   2.336
 4563TIP3   OH213694   5.429   0.621   3.347
 4563TIP3    H113695   5.414   0.690   3.283
 4563TIP3    H213696   5.377   0.647   3.423
 4564TIP3   OH213697   2.951   4.150   2.207
 4564TIP3    H113698   2.942   4.174   2.115
 4564TIP3    H213699   2.865   4.167   2.245
 4565TIP3   OH213700   5.288   4.921   0.844
 4565TIP3    H113701   5.352   4.850   0.847
 4565TIP3    H213702   5.340   5.001   0.849
 4566TIP3   OH213703   5.652   5.845   4.881
 4566TIP3    H113704   5.651   5.860   4.975
 4566TIP3    H213705   5.662   5.751   4.871
 4567TIP3   OH213706   5.434   5.609   4.397
 4567TIP3    H113707   5.511   5.553   4.407
 4567TIP3    H213708   5.457   5.689   4.444
 4568TIP3   OH213709   3.230   3.547   0.108
 4568TIP3    H113710   3.271   3.621   0.064
 4568TIP3    H213711   3.184   3.500   0.038
 4569TIP3   OH213712   2.669   3.774   1.331
 4569TIP3    H113713   2.705   3.710   1.270
 4569TIP3    H213714   2.608   3.826   1.278
 4570TIP3   OH213715   3.387   4.983   3.718
 4570TIP3    H113716   3.439   4.930   3.658
 4570TIP3    H213717   3.317   5.020   3.663
 4571TIP3   OH213718   1.273   0.502   1.580
 4571TIP3    H113719   1.231   0.542   1.504
 4571TIP3    H213720   1.366   0.522   1.570
 4572TIP3   OH213721   0.374   0.619   4.010
 4572TIP3    H113722   0.315   0.547   4.031
 4572TIP3    H213723   0.339   0.656   3.930
 4573TIP3   OH213724   3.673   5.500   1.687
 4573TIP3    H113725   3.655   5.593   1.672
 4573TIP3    H213726   3.717   5.471   1.607
 4574TIP3   OH213727   3.024   2.455   4.697
 4574TIP3    H113728   3.101   2.512   4.690
 4574TIP3    H213729   3.040   2.403   4.776
 4575TIP3   OH213730   4.324   0.889   0.330
 4575TIP3    H113731   4.410   0.892   0.289
 4575TIP3    H213732   4.288   0.977   0.319
 4576TIP3   OH213733   0.654   5.353   0.795
 4576TIP3    H113734   0.596   5.287   0.833
 4576TIP3    H213735   0.728   5.358   0.855
 4577TIP3   OH213736   3.671   1.434   1.178
 4577TIP3    H113737   3.721   1.499   1.228
 4577TIP3    H213738   3.625   1.383   1.245
 4578TIP3   OH213739   5.838   0.076   4.669
 4578TIP3    H113740   5.752   0.115   4.654
 4578TIP3    H213741   5.843   0.065   4.764
 4579TIP3   OH213742   3.875   0.254   4.923
 4579TIP3    H113743   3.816   0.244   4.848
 4579TIP3    H213744   3.929   0.331   4.901
 4580TIP3   OH213745   4.439   0.984   4.965
 4580TIP3    H113746   4.378   1.039   5.013
 4580TIP3    H213747   4.459   1.033   4.885
 4581TIP3   OH213748   2.234   5.249   4.280
 4581TIP3    H113749   2.145   5.249   4.244
 4581TIP3    H213750   2.272   5.331   4.248
 4582TIP3   OH213751   4.895   1.173   3.830
 4582TIP3    H113752   4.857   1.096   3.787
 4582TIP3    H213753   4.907   1.236   3.759
 4583TIP3   OH213754   4.741   0.958   1.479
 4583TIP3    H113755   4.772   0.877   1.519
 4583TIP3    H213756   4.654   0.935   1.445
 4584TIP3   OH213757   0.254   0.909   0.645
 4584TIP3    H113758   0.206   0.991   0.641
 4584TIP3    H213759   0.203   0.854   0.705
 4585TIP3   OH213760   3.123   0.870   4.118
 4585TIP3    H113761   3.061   0.935   4.084
 4585TIP3    H213762   3.208   0.914   4.113
 4586TIP3   OH213763   3.599   5.691   5.014
 4586TIP3    H113764   3.535   5.751   5.054
 4586TIP3    H213765   3.565   5.674   4.926
 4587TIP3   OH213766   5.624   1.223   1.527
 4587TIP3    H113767   5.562   1.272   1.580
 4587TIP3    H213768   5.696   1.285   1.512
 4588TIP3   OH213769   1.364   4.997   2.042
 4588TIP3    H113770   1.282   5.028   2.005
 4588TIP3    H213771   1.404   4.945   1.971
 4589TIP3   OH213772   2.509   5.392   1.172
 4589TIP3    H113773   2.436   5.333   1.153
 4589TIP3    H213774   2.553   5.351   1.247
 4590TIP3   OH213775   3.814   2.902   0.639
 4590TIP3    H113776   3.844   2.921   0.550
 4590TIP3    H213777   3.795   2.988   0.677
 4591TIP3   OH213778   5.711   3.127   3.371
 4591TIP3    H113779   5.690   3.200   3.314
 4591TIP3    H213780   5.799   3.147   3.405
 4592TIP3   OH213781   5.448   2.209   4.541
 4592TIP3    H113782   5.406   2.184   4.459
 4592TIP3    H213783   5.504   2.283   4.517
 4593TIP3   OH213784   4.792   1.349   4.284
 4593TIP3    H113785   4.797   1.335   4.378
 4593TIP3    H213786   4.710   1.396   4.271
 4594TIP3   OH213787   1.733   4.543   2.905
 4594TIP3    H113788   1.768   4.600   2.974
 4594TIP3    H213789   1.639   4.562   2.904
 4595TIP3   OH213790   1.348   2.556   2.150
 4595TIP3    H113791   1.413   2.545   2.220
 4595TIP3    H213792   1.397   2.539   2.069
 4596TIP3   OH213793   2.563   3.824   4.351
 4596TIP3    H113794   2.470   3.801   4.350
 4596TIP3    H213795   2.565   3.919   4.345
 4597TIP3   OH213796   6.222   1.326   4.269
 4597TIP3    H113797   6.254   1.382   4.339
 4597TIP3    H213798   6.232   1.237   4.303
 4598TIP3   OH213799   5.900   5.279   5.011
 4598TIP3    H113800   5.838   5.294   4.941
 4598TIP3    H213801   5.914   5.185   5.011
 4599TIP3   OH213802   0.790   4.561   2.404
 4599TIP3    H113803   0.785   4.478   2.453
 4599TIP3    H213804   0.766   4.537   2.314
 4600TIP3   OH213805   5.798   2.475   2.265
 4600TIP3    H113806   5.871   2.441   2.318
 4600TIP3    H213807   5.724   2.418   2.287
 4601TIP3   OH213808   2.070   4.715   2.012
 4601TIP3    H113809   1.979   4.736   2.035
 4601TIP3    H213810   2.108   4.680   2.092
 4602TIP3   OH213811   3.918   5.160   2.017
 4602TIP3    H113812   4.001   5.113   2.024
 4602TIP3    H213813   3.932   5.220   1.944
 4603TIP3   OH213814   1.815   5.731   3.435
 4603TIP3    H113815   1.833   5.637   3.433
 4603TIP3    H213816   1.885   5.767   3.489
 4604TIP3   OH213817   1.870   2.474   1.154
 4604TIP3    H113818   1.891   2.389   1.191
 4604TIP3    H213819   1.815   2.455   1.078
 4605TIP3   OH213820   1.408   3.345   3.081
 4605TIP3    H113821   1.483   3.347   3.139
 4605TIP3    H213822   1.360   3.426   3.101
 4606TIP3   OH213823   3.453   0.452   3.753
 4606TIP3    H113824   3.547   0.463   3.739
 4606TIP3    H213825   3.415   0.446   3.665
 4607TIP3   OH213826   0.857   0.345   3.983
 4607TIP3    H113827   0.858   0.381   4.071
 4607TIP3    H213828   0.847   0.251   3.995
 4608TIP3   OH213829   0.508   1.792   0.787
 4608TIP3    H113830   0.448   1.835   0.847
 4608TIP3    H213831   0.570   1.861   0.763
 4609TIP3   OH213832   6.264   4.135   3.518
 4609TIP3    H113833   6.326   4.185   3.465
 4609TIP3    H213834   6.287   4.158   3.608
 4610TIP3   OH213835   0.829   3.016   4.843
 4610TIP3    H113836   0.895   3.061   4.895
 4610TIP3    H213837   0.811   2.935   4.892
 4611TIP3   OH213838   3.756   3.384   3.316
 4611TIP3    H113839   3.813   3.335   3.257
 4611TIP3    H213840   3.769   3.476   3.291
 4612TIP3   OH213841   4.561   2.456   3.932
 4612TIP3    H113842   4.521   2.397   3.995
 4612TIP3    H213843   4.491   2.479   3.871
 4613TIP3   OH213844   0.571   4.381   1.554
 4613TIP3    H113845   0.552   4.362   1.645
 4613TIP3    H213846   0.665   4.368   1.544
 4614TIP3   OH213847   0.361   0.961   1.190
 4614TIP3    H113848   0.402   0.994   1.110
 4614TIP3    H213849   0.428   0.976   1.258
 4615TIP3   OH213850   2.280   1.253   1.510
 4615TIP3    H113851   2.226   1.329   1.490
 4615TIP3    H213852   2.363   1.270   1.466
 4616TIP3   OH213853   4.421   2.344   1.108
 4616TIP3    H113854   4.396   2.302   1.190
 4616TIP3    H213855   4.417   2.274   1.043
 4617TIP3   OH213856   5.169   3.057   1.554
 4617TIP3    H113857   5.206   3.133   1.598
 4617TIP3    H213858   5.224   3.043   1.477
 4618TIP3   OH213859   3.362   4.664   2.242
 4618TIP3    H113860   3.403   4.750   2.232
 4618TIP3    H213861   3.435   4.603   2.247
 4619TIP3   OH213862   3.654   5.362   2.723
 4619TIP3    H113863   3.652   5.427   2.793
 4619TIP3    H213864   3.588   5.391   2.661
 4620TIP3   OH213865   0.220   0.847   3.195
 4620TIP3    H113866   0.192   0.779   3.133
 4620TIP3    H213867   0.220   0.927   3.143
 4621TIP3   OH213868   1.688   2.228   4.777
 4621TIP3    H113869   1.742   2.174   4.718
 4621TIP3    H213870   1.599   2.218   4.743
 4622TIP3   OH213871   1.674   0.877   1.142
 4622TIP3    H113872   1.767   0.897   1.152
 4622TIP3    H213873   1.671   0.813   1.071
 4623TIP3   OH213874   3.070   2.265   1.579
 4623TIP3    H113875   3.107   2.247   1.493
 4623TIP3    H213876   2.975   2.265   1.565
 4624TIP3   OH213877   3.375   3.822   2.028
 4624TIP3    H113878   3.421   3.769   1.962
 4624TIP3    H213879   3.407   3.788   2.112
 4625TIP3   OH213880   4.478   1.050   2.991
 4625TIP3    H113881   4.396   1.091   3.017
 4625TIP3    H213882   4.452   0.974   2.940
 4626TIP3   OH213883   3.321   1.495   3.973
 4626TIP3    H113884   3.253   1.473   3.909
 4626TIP3    H213885   3.389   1.429   3.960
 4627TIP3   OH213886   4.166   0.836   3.614
 4627TIP3    H113887   4.224   0.891   3.561
 4627TIP3    H213888   4.144   0.891   3.690
 4628TIP3   OH213889   3.360   5.651   2.450
 4628TIP3    H113890   3.394   5.565   2.475
 4628TIP3    H213891   3.367   5.703   2.530
 4629TIP3   OH213892   0.227   2.739   3.402
 4629TIP3    H113893   0.320   2.746   3.379
 4629TIP3    H213894   0.220   2.783   3.487
 4630TIP3   OH213895   4.621   2.239   0.536
 4630TIP3    H113896   4.676   2.188   0.476
 4630TIP3    H213897   4.672   2.318   0.553
 4631TIP3   OH213898   0.290   0.774   0.995
 4631TIP3    H113899   0.310   0.839   1.063
 4631TIP3    H213900   0.202   0.743   1.016
 4632TIP3   OH213901   2.770   5.445   0.631
 4632TIP3    H113902   2.851   5.414   0.593
 4632TIP3    H213903   2.789   5.535   0.657
 4633TIP3   OH213904   5.978   2.058   4.010
 4633TIP3    H113905   6.015   2.064   4.098
 4633TIP3    H213906   5.968   1.964   3.994
 4634TIP3   OH213907   0.562   1.408   0.185
 4634TIP3    H113908   0.471   1.378   0.189
 4634TIP3    H213909   0.555   1.501   0.164
 4635TIP3   OH213910   5.667   4.290   1.004
 4635TIP3    H113911   5.732   4.312   1.071
 4635TIP3    H213912   5.718   4.255   0.932
 4636TIP3   OH213913   1.103   5.436   4.511
 4636TIP3    H113914   1.036   5.504   4.505
 4636TIP3    H213915   1.095   5.388   4.428
 4637TIP3   OH213916   1.375   0.806   0.466
 4637TIP3    H113917   1.382   0.855   0.384
 4637TIP3    H213918   1.292   0.760   0.460
 4638TIP3   OH213919   5.586   1.534   4.860
 4638TIP3    H113920   5.548   1.461   4.811
 4638TIP3    H213921   5.635   1.584   4.794
 4639TIP3   OH213922   4.409   2.121   2.554
 4639TIP3    H113923   4.488   2.124   2.608
 4639TIP3    H213924   4.428   2.056   2.486
 4640TIP3   OH213925   4.768   3.396   2.453
 4640TIP3    H113926   4.827   3.451   2.401
 4640TIP3    H213927   4.726   3.339   2.389
 4641TIP3   OH213928   4.720   5.652   4.348
 4641TIP3    H113929   4.639   5.632   4.397
 4641TIP3    H213930   4.708   5.743   4.319
 4642TIP3   OH213931   1.478   0.439   3.741
 4642TIP3    H113932   1.503   0.471   3.654
 4642TIP3    H213933   1.507   0.508   3.801
 4643TIP3   OH213934   4.773   2.616   3.759
 4643TIP3    H113935   4.865   2.642   3.765
 4643TIP3    H213936   4.774   2.535   3.707
 4644TIP3   OH213937   4.891   1.568   2.494
 4644TIP3    H113938   4.910   1.484   2.452
 4644TIP3    H213939   4.889   1.548   2.587
 4645TIP3   OH213940   1.285   2.698   1.297
 4645TIP3    H113941   1.344   2.770   1.274
 4645TIP3    H213942   1.236   2.680   1.217
 4646TIP3   OH213943   5.237   4.504   5.086
 4646TIP3    H113944   5.191   4.442   5.142
 4646TIP3    H213945   5.207   4.483   4.997
 4647TIP3   OH213946   4.349   5.239   0.917
 4647TIP3    H113947   4.437   5.206   0.897
 4647TIP3    H213948   4.363   5.327   0.952
 4648TIP3   OH213949   4.947   3.414   3.605
 4648TIP3    H113950   4.957   3.503   3.638
 4648TIP3    H213951   5.032   3.372   3.621
 4649TIP3   OH213952   0.739   0.671   0.421
 4649TIP3    H113953   0.658   0.721   0.408
 4649TIP3    H213954   0.709   0.586   0.454
 4650TIP3   OH213955   5.874   4.285   2.565
 4650TIP3    H113956   5.826   4.231   2.627
 4650TIP3    H213957   5.806   4.326   2.511
 4651TIP3   OH213958   1.782   5.754   0.056
 4651TIP3    H113959   1.710   5.812   0.033
 4651TIP3    H213960   1.783   5.754   0.152
 4652TIP3   OH213961   1.034   3.775   1.532
 4652TIP3    H113962   1.024   3.827   1.452
 4652TIP3    H213963   1.112   3.810   1.574
 4653TIP3   OH213964   3.789   5.732   3.457
 4653TIP3    H113965   3.839   5.650   3.458
 4653TIP3    H213966   3.734   5.727   3.535
 4654TIP3   OH213967   3.518   0.999   1.290
 4654TIP3    H113968   3.593   0.995   1.231
 4654TIP3    H213969   3.446   0.958   1.240
 4655TIP3   OH213970   0.293   0.503   1.046
 4655TIP3    H113971   0.303   0.595   1.021
 4655TIP3    H213972   0.253   0.462   0.969
 4656TIP3   OH213973   2.450   1.549   0.290
 4656TIP3    H113974   2.369   1.557   0.339
 4656TIP3    H213975   2.515   1.523   0.356
 4657TIP3   OH213976   3.692   4.090   3.252
 4657TIP3    H113977   3.673   4.176   3.288
 4657TIP3    H213978   3.710   4.106   3.159
 4658TIP3   OH213979   3.874   5.656   1.102
 4658TIP3    H113980   3.868   5.661   1.197
 4658TIP3    H213981   3.788   5.624   1.074
 4659TIP3   OH213982   3.232   2.686   1.515
 4659TIP3    H113983   3.262   2.602   1.550
 4659TIP3    H213984   3.312   2.728   1.482
 4660TIP3   OH213985   3.295   5.329   2.327
 4660TIP3    H113986   3.213   5.313   2.374
 4660TIP3    H213987   3.269   5.375   2.247
 4661TIP3   OH213988   4.086   5.839   2.483
 4661TIP3    H113989   3.996   5.809   2.496
 4661TIP3    H213990   4.135   5.759   2.465
 4662TIP3   OH213991   4.485   0.263   1.462
 4662TIP3    H113992   4.409   0.319   1.479
 4662TIP3    H213993   4.555   0.300   1.515
 4663TIP3   OH213994   0.170   5.666   0.737
 4663TIP3    H113995   0.155   5.578   0.704
 4663TIP3    H213996   0.265   5.672   0.750
 4664TIP3   OH213997   5.377   0.740   3.601
 4664TIP3    H113998   5.297   0.773   3.643
 4664TIP3    H213999   5.418   0.686   3.668
 4665TIP3   OH214000   5.555   4.646   2.219
 4665TIP3    H114001   5.496   4.712   2.253
 4665TIP3    H214002   5.497   4.583   2.176
 4666TIP3   OH214003   0.934   4.593   3.584
 4666TIP3    H114004   0.915   4.570   3.493
 4666TIP3    H214005   0.929   4.688   3.587
 4667TIP3   OH214006   3.421   3.723   4.542
 4667TIP3    H114007   3.390   3.751   4.456
 4667TIP3    H214008   3.505   3.767   4.553
 4668TIP3   OH214009   5.400   4.964   1.557
 4668TIP3    H114010   5.408   5.025   1.630
 4668TIP3    H214011   5.363   4.884   1.596
 4669TIP3   OH214012   4.519   3.509   3.945
 4669TIP3    H114013   4.520   3.597   3.983
 4669TIP3    H214014   4.498   3.524   3.852
 4670TIP3   OH214015   3.142   4.172   3.436
 4670TIP3    H114016   3.209   4.239   3.420
 4670TIP3    H214017   3.133   4.127   3.352
 4671TIP3   OH214018   4.101   1.222   0.863
 4671TIP3    H114019   4.027   1.280   0.877
 4671TIP3    H214020   4.164   1.245   0.932
 4672TIP3   OH214021   4.927   1.968   1.601
 4672TIP3    H114022   5.018   1.962   1.628
 4672TIP3    H214023   4.890   1.882   1.620
 4673TIP3   OH214024   1.577   3.963   0.982
 4673TIP3    H114025   1.641   4.011   0.930
 4673TIP3    H214026   1.492   3.997   0.953
 4674TIP3   OH214027   4.367   2.466   4.750
 4674TIP3    H114028   4.423   2.394   4.720
 4674TIP3    H214029   4.429   2.530   4.786
 4675TIP3   OH214030   3.723   0.045   3.648
 4675TIP3    H114031   3.649   0.105   3.650
 4675TIP3    H214032   3.786   0.086   3.589
 4676TIP3   OH214033   4.088   1.598   1.000
 4676TIP3    H114034   4.121   1.580   1.088
 4676TIP3    H214035   4.066   1.691   1.001
 4677TIP3   OH214036   5.842   0.920   4.335
 4677TIP3    H114037   5.757   0.889   4.303
 4677TIP3    H214038   5.906   0.867   4.287
 4678TIP3   OH214039   6.293   4.392   0.157
 4678TIP3    H114040   6.233   4.428   0.091
 4678TIP3    H214041   6.239   4.382   0.235
 4679TIP3   OH214042   2.238   4.230   4.942
 4679TIP3    H114043   2.189   4.275   4.874
 4679TIP3    H214044   2.323   4.274   4.945
 4680TIP3   OH214045   6.082   2.094   2.813
 4680TIP3    H114046   6.155   2.039   2.843
 4680TIP3    H214047   6.111   2.183   2.831
 4681TIP3   OH214048   1.726   5.755   4.418
 4681TIP3    H114049   1.810   5.712   4.435
 4681TIP3    H214050   1.701   5.724   4.331
 4682TIP3   OH214051   4.878   3.090   4.783
 4682TIP3    H114052   4.855   3.103   4.691
 4682TIP3    H214053   4.920   3.172   4.809
 4683TIP3   OH214054   2.229   1.099   4.043
 4683TIP3    H114055   2.294   1.055   3.988
 4683TIP3    H214056   2.225   1.189   4.010
 4684TIP3   OH214057   2.310   1.564   1.127
 4684TIP3    H114058   2.299   1.591   1.035
 4684TIP3    H214059   2.224   1.579   1.166
 4685TIP3   OH214060   0.461   5.158   0.867
 4685TIP3    H114061   0.476   5.063   0.873
 4685TIP3    H214062   0.421   5.169   0.781
 4686TIP3   OH214063   1.058   1.222   5.035
 4686TIP3    H114064   1.077   1.186   4.949
 4686TIP3    H214065   1.144   1.236   5.075
 4687TIP3   OH214066   0.940   2.885   4.499
 4687TIP3    H114067   0.855   2.929   4.494
 4687TIP3    H214068   0.931   2.824   4.572
 4688TIP3   OH214069   2.796   5.413   1.078
 4688TIP3    H114070   2.702   5.424   1.089
 4688TIP3    H214071   2.831   5.409   1.167
 4689TIP3   OH214072   1.957   3.270   2.986
 4689TIP3    H114073   1.872   3.260   3.029
 4689TIP3    H214074   1.940   3.332   2.915
 4690TIP3   OH214075   0.948   2.489   1.471
 4690TIP3    H114076   0.971   2.452   1.556
 4690TIP3    H214077   0.960   2.416   1.410
 4691TIP3   OH214078   2.265   4.207   2.141
 4691TIP3    H114079   2.222   4.278   2.092
 4691TIP3    H214080   2.230   4.127   2.102
 4692TIP3   OH214081   1.667   2.417   4.361
 4692TIP3    H114082   1.728   2.488   4.343
 4692TIP3    H214083   1.592   2.435   4.304
 4693TIP3   OH214084   1.917   2.830   3.742
 4693TIP3    H114085   2.002   2.795   3.715
 4693TIP3    H214086   1.937   2.917   3.776
 4694TIP3   OH214087   4.642   2.861   4.404
 4694TIP3    H114088   4.576   2.911   4.451
 4694TIP3    H214089   4.631   2.887   4.312
 4695TIP3   OH214090   5.965   1.597   4.624
 4695TIP3    H114091   5.942   1.511   4.659
 4695TIP3    H214092   6.008   1.642   4.696
 4696TIP3   OH214093   2.564   0.767   3.041
 4696TIP3    H114094   2.552   0.789   2.948
 4696TIP3    H214095   2.656   0.745   3.049
 4697TIP3   OH214096   1.358   3.222   3.687
 4697TIP3    H114097   1.373   3.214   3.781
 4697TIP3    H214098   1.430   3.174   3.647
 4698TIP3   OH214099   4.908   0.248   1.630
 4698TIP3    H114100   4.886   0.305   1.704
 4698TIP3    H214101   4.989   0.285   1.595
 4699TIP3   OH214102   5.827   5.969   2.233
 4699TIP3    H114103   5.820   6.027   2.309
 4699TIP3    H214104   5.889   5.902   2.261
 4700TIP3   OH214105   5.674   1.225   3.812
 4700TIP3    H114106   5.604   1.207   3.749
 4700TIP3    H214107   5.644   1.300   3.862
 4701TIP3   OH214108   1.439   1.448   2.541
 4701TIP3    H114109   1.473   1.439   2.452
 4701TIP3    H214110   1.346   1.467   2.530
 4702TIP3   OH214111   5.091   0.700   2.005
 4702TIP3    H114112   5.104   0.722   1.913
 4702TIP3    H214113   5.114   0.607   2.011
 4703TIP3   OH214114   4.448   5.913   2.499
 4703TIP3    H114115   4.451   5.846   2.568
 4703TIP3    H214116   4.383   5.976   2.530
 4704TIP3   OH214117   5.046   2.797   4.102
 4704TIP3    H114118   5.020   2.824   4.190
 4704TIP3    H214119   4.996   2.854   4.043
 4705TIP3   OH214120   0.929   5.281   2.738
 4705TIP3    H114121   0.932   5.244   2.827
 4705TIP3    H214122   0.992   5.353   2.740
 4706TIP3   OH214123   2.823   2.607   4.787
 4706TIP3    H114124   2.790   2.544   4.852
 4706TIP3    H214125   2.897   2.562   4.746
 4707TIP3   OH214126   6.210   3.312   3.358
 4707TIP3    H114127   6.189   3.347   3.445
 4707TIP3    H214128   6.135   3.336   3.304
 4708TIP3   OH214129   3.138   0.051   0.968
 4708TIP3    H114130   3.140  -0.043   0.950
 4708TIP3    H214131   3.199   0.089   0.905
 4709TIP3   OH214132   6.005   5.373   0.364
 4709TIP3    H114133   6.087   5.422   0.362
 4709TIP3    H214134   6.004   5.325   0.280
 4710TIP3   OH214135   3.920   4.034   4.792
 4710TIP3    H114136   3.988   4.001   4.850
 4710TIP3    H214137   3.838   4.001   4.829
 4711TIP3   OH214138   3.564   0.506   3.022
 4711TIP3    H114139   3.644   0.525   3.072
 4711TIP3    H214140   3.545   0.414   3.043
 4712TIP3   OH214141   5.156   5.352   3.414
 4712TIP3    H114142   5.210   5.312   3.482
 4712TIP3    H214143   5.177   5.303   3.335
 4713TIP3   OH214144   5.168   0.956   2.751
 4713TIP3    H114145   5.168   1.019   2.823
 4713TIP3    H214146   5.260   0.930   2.742
 4714TIP3   OH214147   5.654   5.352   0.713
 4714TIP3    H114148   5.645   5.257   0.711
 4714TIP3    H214149   5.747   5.367   0.731
 4715TIP3   OH214150   0.661   5.777   0.749
 4715TIP3    H114151   0.688   5.858   0.793
 4715TIP3    H214152   0.726   5.764   0.680
 4716TIP3   OH214153   5.351   2.902   2.153
 4716TIP3    H114154   5.313   2.895   2.241
 4716TIP3    H214155   5.442   2.874   2.164
 4717TIP3   OH214156   2.299   3.976   1.718
 4717TIP3    H114157   2.243   3.938   1.651
 4717TIP3    H214158   2.266   3.941   1.801
 4718TIP3   OH214159   1.271   1.947   2.163
 4718TIP3    H114160   1.352   1.928   2.116
 4718TIP3    H214161   1.236   1.860   2.185
 4719TIP3   OH214162   2.477   3.406   2.023
 4719TIP3    H114163   2.559   3.423   1.977
 4719TIP3    H214164   2.452   3.318   1.995
 4720TIP3   OH214165   2.131   0.518   5.017
 4720TIP3    H114166   2.201   0.492   4.957
 4720TIP3    H214167   2.105   0.605   4.986
 4721TIP3   OH214168   2.432   0.609   2.375
 4721TIP3    H114169   2.487   0.543   2.335
 4721TIP3    H214170   2.416   0.576   2.464
 4722TIP3   OH214171   5.623   2.495   1.325
 4722TIP3    H114172   5.667   2.558   1.269
 4722TIP3    H214173   5.663   2.411   1.303
 4723TIP3   OH214174   4.437   5.464   3.028
 4723TIP3    H114175   4.354   5.490   2.989
 4723TIP3    H214176   4.486   5.546   3.039
 4724TIP3   OH214177   2.792   5.494   4.854
 4724TIP3    H114178   2.813   5.401   4.869
 4724TIP3    H214179   2.868   5.541   4.889
 4725TIP3   OH214180   3.806   4.953   0.946
 4725TIP3    H114181   3.818   4.862   0.972
 4725TIP3    H214182   3.729   4.953   0.890
 4726TIP3   OH214183   1.784   3.887   2.208
 4726TIP3    H114184   1.805   3.857   2.296
 4726TIP3    H214185   1.832   3.827   2.150
 4727TIP3   OH214186   5.123   5.197   3.170
 4727TIP3    H114187   5.030   5.174   3.171
 4727TIP3    H214188   5.166   5.125   3.215
 4728TIP3   OH214189   3.457   4.875   4.301
 4728TIP3    H114190   3.421   4.786   4.298
 4728TIP3    H214191   3.511   4.876   4.380
 4729TIP3   OH214192   0.821   2.980   0.820
 4729TIP3    H114193   0.759   3.053   0.815
 4729TIP3    H214194   0.887   3.008   0.883
 4730TIP3   OH214195   5.085   0.792   3.410
 4730TIP3    H114196   5.086   0.703   3.376
 4730TIP3    H214197   5.022   0.790   3.482
 4731TIP3   OH214198   0.491   4.257   1.140
 4731TIP3    H114199   0.417   4.218   1.187
 4731TIP3    H214200   0.568   4.210   1.172
 4732TIP3   OH214201   1.567   1.943   1.366
 4732TIP3    H114202   1.598   2.034   1.370
 4732TIP3    H214203   1.574   1.912   1.456
 4733TIP3   OH214204   0.731   2.900   1.780
 4733TIP3    H114205   0.694   2.939   1.859
 4733TIP3    H214206   0.822   2.930   1.779
 4734TIP3   OH214207   4.466   4.127   3.985
 4734TIP3    H114208   4.536   4.068   3.955
 4734TIP3    H214209   4.411   4.073   4.041
 4735TIP3   OH214210   2.828   3.891   2.108
 4735TIP3    H114211   2.856   3.958   2.046
 4735TIP3    H214212   2.908   3.863   2.152
 4736TIP3   OH214213   1.305   1.361   4.346
 4736TIP3    H114214   1.277   1.367   4.254
 4736TIP3    H214215   1.224   1.351   4.395
 4737TIP3   OH214216   3.595   3.314   1.358
 4737TIP3    H114217   3.587   3.233   1.306
 4737TIP3    H214218   3.505   3.340   1.376
 4738TIP3   OH214219   1.635   5.112   5.098
 4738TIP3    H114220   1.693   5.037   5.091
 4738TIP3    H214221   1.640   5.139   5.190
 4739TIP3   OH214222   4.379   5.052   4.745
 4739TIP3    H114223   4.400   5.109   4.819
 4739TIP3    H214224   4.428   4.972   4.761
 4740TIP3   OH214225   4.893   0.915   4.040
 4740TIP3    H114226   4.975   0.965   4.042
 4740TIP3    H214227   4.837   0.958   4.105
 4741TIP3   OH214228   1.922   0.265   2.855
 4741TIP3    H114229   2.007   0.221   2.848
 4741TIP3    H214230   1.861   0.195   2.879
 4742TIP3   OH214231   1.025   3.907   3.397
 4742TIP3    H114232   1.098   3.937   3.342
 4742TIP3    H214233   1.032   3.961   3.476
 4743TIP3   OH214234   1.509   4.280   0.838
 4743TIP3    H114235   1.576   4.278   0.907
 4743TIP3    H214236   1.514   4.369   0.803
 4744TIP3   OH214237   1.533   5.408   3.175
 4744TIP3    H114238   1.557   5.478   3.114
 4744TIP3    H214239   1.605   5.406   3.238
 4745TIP3   OH214240   3.969   1.824   1.165
 4745TIP3    H114241   3.952   1.865   1.080
 4745TIP3    H214242   4.025   1.887   1.211
 4746TIP3   OH214243   6.012   4.025   3.466
 4746TIP3    H114244   6.098   4.059   3.489
 4746TIP3    H214245   6.010   4.029   3.370
 4747TIP3   OH214246   1.304   3.629   1.058
 4747TIP3    H114247   1.337   3.672   0.979
 4747TIP3    H214248   1.246   3.561   1.025
 4748TIP3   OH214249   1.634   3.505   0.934
 4748TIP3    H114250   1.571   3.510   0.862
 4748TIP3    H214251   1.714   3.543   0.898
 4749TIP3   OH214252   3.948   5.711   2.905
 4749TIP3    H114253   3.922   5.793   2.862
 4749TIP3    H214254   3.928   5.725   2.998
 4750TIP3   OH214255   2.830   0.562   2.356
 4750TIP3    H114256   2.876   0.563   2.441
 4750TIP3    H214257   2.742   0.529   2.377
 4751TIP3   OH214258   5.575   1.778   3.750
 4751TIP3    H114259   5.649   1.759   3.692
 4751TIP3    H214260   5.520   1.700   3.744
 4752TIP3   OH214261   0.973   0.725   2.005
 4752TIP3    H114262   0.894   0.772   2.030
 4752TIP3    H214263   1.017   0.783   1.942
 4753TIP3   OH214264   5.103   0.645   1.358
 4753TIP3    H114265   5.077   0.737   1.366
 4753TIP3    H214266   5.172   0.633   1.423
 4754TIP3   OH214267   2.525   0.958   4.701
 4754TIP3    H114268   2.547   1.015   4.627
 4754TIP3    H214269   2.516   0.871   4.662
 4755TIP3   OH214270   0.334   4.037   1.426
 4755TIP3    H114271   0.413   4.009   1.379
 4755TIP3    H214272   0.299   4.109   1.374
 4756TIP3   OH214273   2.601   5.725   2.685
 4756TIP3    H114274   2.584   5.631   2.697
 4756TIP3    H214275   2.528   5.755   2.630
 4757TIP3   OH214276   1.255   5.675   1.287
 4757TIP3    H114277   1.201   5.625   1.226
 4757TIP3    H214278   1.209   5.758   1.297
 4758TIP3   OH214279   4.451   5.873   3.358
 4758TIP3    H114280   4.393   5.798   3.342
 4758TIP3    H214281   4.422   5.939   3.295
 4759TIP3   OH214282   2.859   5.919   0.468
 4759TIP3    H114283   2.868   5.998   0.413
 4759TIP3    H214284   2.946   5.880   0.468
 4760TIP3   OH214285   0.918   3.949   1.342
 4760TIP3    H114286   0.972   4.019   1.306
 4760TIP3    H214287   0.922   3.879   1.277
 4761TIP3   OH214288   0.479   0.532   4.918
 4761TIP3    H114289   0.400   0.481   4.933
 4761TIP3    H214290   0.490   0.584   4.997
 4762TIP3   OH214291   4.070   0.952   1.585
 4762TIP3    H114292   4.053   0.863   1.553
 4762TIP3    H214293   3.998   1.004   1.550
 4763TIP3   OH214294   6.061   5.107   0.500
 4763TIP3    H114295   6.051   5.191   0.456
 4763TIP3    H214296   6.059   5.127   0.593
 4764TIP3   OH214297   6.130   5.121   2.483
 4764TIP3    H114298   6.148   5.158   2.569
 4764TIP3    H214299   6.043   5.155   2.460
 4765TIP3   OH214300   4.567   3.321   4.980
 4765TIP3    H114301   4.635   3.279   5.034
 4765TIP3    H214302   4.527   3.249   4.931
 4766TIP3   OH214303   3.150   2.089   4.983
 4766TIP3    H114304   3.205   2.080   5.061
 4766TIP3    H214305   3.148   2.182   4.964
 4767TIP3   OH214306   4.236   4.843   2.731
 4767TIP3    H114307   4.287   4.806   2.659
 4767TIP3    H214308   4.301   4.883   2.788
 4768TIP3   OH214309   3.568   4.275   4.937
 4768TIP3    H114310   3.518   4.352   4.964
 4768TIP3    H214311   3.594   4.234   5.020
 4769TIP3   OH214312   2.003   0.271   3.342
 4769TIP3    H114313   2.074   0.232   3.290
 4769TIP3    H214314   1.927   0.217   3.322
 4770TIP3   OH214315   0.310   0.294   0.331
 4770TIP3    H114316   0.317   0.372   0.386
 4770TIP3    H214317   0.327   0.221   0.390
 4771TIP3   OH214318   3.562   3.267   0.918
 4771TIP3    H114319   3.575   3.356   0.886
 4771TIP3    H214320   3.487   3.273   0.977
 4772TIP3   OH214321   2.142   1.566   3.699
 4772TIP3    H114322   2.149   1.629   3.770
 4772TIP3    H214323   2.146   1.481   3.741
 4773TIP3   OH214324   3.243   1.787   3.172
 4773TIP3    H114325   3.184   1.718   3.200
 4773TIP3    H214326   3.316   1.742   3.130
 4774TIP3   OH214327   4.241   4.701   3.369
 4774TIP3    H114328   4.290   4.627   3.405
 4774TIP3    H214329   4.250   4.692   3.274
 4775TIP3   OH214330   5.738   4.278   1.436
 4775TIP3    H114331   5.703   4.210   1.379
 4775TIP3    H214332   5.793   4.331   1.379
 4776TIP3   OH214333   0.566   3.128   4.974
 4776TIP3    H114334   0.630   3.198   4.961
 4776TIP3    H214335   0.618   3.053   5.005
 4777TIP3   OH214336   1.082   0.027   1.659
 4777TIP3    H114337   1.021   0.058   1.726
 4777TIP3    H214338   1.168   0.055   1.690
 4778TIP3   OH214339   4.909   1.993   3.101
 4778TIP3    H114340   5.002   2.016   3.089
 4778TIP3    H214341   4.905   1.900   3.082
 4779TIP3   OH214342   4.372   2.866   3.590
 4779TIP3    H114343   4.375   2.962   3.585
 4779TIP3    H214344   4.446   2.843   3.645
 4780TIP3   OH214345   1.080   2.471   0.757
 4780TIP3    H114346   1.135   2.445   0.684
 4780TIP3    H214347   1.128   2.541   0.800
 4781TIP3   OH214348   0.926   4.093   4.485
 4781TIP3    H114349   0.983   4.060   4.415
 4781TIP3    H214350   0.839   4.062   4.462
 4782TIP3   OH214351   4.704   5.457   5.019
 4782TIP3    H114352   4.680   5.534   4.968
 4782TIP3    H214353   4.728   5.391   4.954
 4783TIP3   OH214354   2.628   5.934   0.827
 4783TIP3    H114355   2.540   5.896   0.821
 4783TIP3    H214356   2.634   5.965   0.918
 4784TIP3   OH214357   6.341   5.313   3.466
 4784TIP3    H114358   6.275   5.274   3.523
 4784TIP3    H214359   6.397   5.364   3.524
 4785TIP3   OH214360   4.309   3.577   5.048
 4785TIP3    H114361   4.215   3.557   5.040
 4785TIP3    H214362   4.312   3.651   5.109
 4786TIP3   OH214363   0.902   2.254   1.301
 4786TIP3    H114364   0.826   2.293   1.259
 4786TIP3    H214365   0.865   2.201   1.372
 4787TIP3   OH214366   1.566   0.434   2.627
 4787TIP3    H114367   1.486   0.482   2.604
 4787TIP3    H214368   1.568   0.436   2.723
 4788TIP3   OH214369   5.931   1.699   2.347
 4788TIP3    H114370   5.858   1.681   2.406
 4788TIP3    H214371   5.889   1.727   2.265
 4789TIP3   OH214372   1.565   0.814   4.930
 4789TIP3    H114373   1.603   0.845   4.848
 4789TIP3    H214374   1.606   0.729   4.946
 4790TIP3   OH214375   3.885   2.099   2.736
 4790TIP3    H114376   3.932   2.167   2.689
 4790TIP3    H214377   3.839   2.050   2.668
 4791TIP3   OH214378   0.848   0.052   4.844
 4791TIP3    H114379   0.901  -0.027   4.836
 4791TIP3    H214380   0.912   0.123   4.851
 4792TIP3   OH214381   1.331   5.368   0.351
 4792TIP3    H114382   1.317   5.437   0.286
 4792TIP3    H214383   1.405   5.318   0.317
 4793TIP3   OH214384   4.202   0.338   0.883
 4793TIP3    H114385   4.196   0.290   0.800
 4793TIP3    H214386   4.111   0.350   0.910
 4794TIP3   OH214387   5.260   4.452   1.659
 4794TIP3    H114388   5.287   4.544   1.658
 4794TIP3    H214389   5.228   4.437   1.747
 4795TIP3   OH214390   3.449   2.260   2.818
 4795TIP3    H114391   3.471   2.211   2.897
 4795TIP3    H214392   3.364   2.299   2.837
 4796TIP3   OH214393   6.041   0.445   0.018
 4796TIP3    H114394   6.055   0.534   0.051
 4796TIP3    H214395   5.980   0.456  -0.055
 4797TIP3   OH214396   2.724   5.069   2.476
 4797TIP3    H114397   2.648   5.050   2.530
 4797TIP3    H214398   2.748   4.985   2.438
 4798TIP3   OH214399   4.173   3.223   0.607
 4798TIP3    H114400   4.182   3.246   0.515
 4798TIP3    H214401   4.261   3.197   0.634
 4799TIP3   OH214402   6.298   1.298   0.826
 4799TIP3    H114403   6.331   1.229   0.883
 4799TIP3    H214404   6.377   1.347   0.799
 4800TIP3   OH214405   4.470   4.865   3.416
 4800TIP3    H114406   4.426   4.944   3.446
 4800TIP3    H214407   4.400   4.812   3.376
 4801TIP3   OH214408   2.288   0.778   3.905
 4801TIP3    H114409   2.216   0.773   3.968
 4801TIP3    H214410   2.304   0.687   3.880
 4802TIP3   OH214411   5.354   2.808   1.320
 4802TIP3    H114412   5.373   2.896   1.351
 4802TIP3    H214413   5.411   2.797   1.243
 4803TIP3   OH214414   5.398   0.431   1.956
 4803TIP3    H114415   5.413   0.356   2.014
 4803TIP3    H214416   5.354   0.495   2.011
 4804TIP3   OH214417   1.015   2.028   4.508
 4804TIP3    H114418   1.018   2.082   4.587
 4804TIP3    H214419   1.068   1.952   4.529
 4805TIP3   OH214420   6.327   5.669   1.986
 4805TIP3    H114421   6.297   5.652   2.076
 4805TIP3    H214422   6.280   5.606   1.932
 4806TIP3   OH214423   0.101   1.321   4.732
 4806TIP3    H114424   0.098   1.337   4.827
 4806TIP3    H214425   0.133   1.231   4.724
 4807TIP3   OH214426   3.266   4.157   2.697
 4807TIP3    H114427   3.337   4.099   2.667
 4807TIP3    H214428   3.195   4.143   2.634
 4808TIP3   OH214429   2.421   3.879   2.858
 4808TIP3    H114430   2.421   3.840   2.946
 4808TIP3    H214431   2.509   3.914   2.847
 4809TIP3   OH214432   3.996   0.874   3.360
 4809TIP3    H114433   3.938   0.803   3.389
 4809TIP3    H214434   3.966   0.951   3.409
 4810TIP3   OH214435   0.723   3.950   0.280
 4810TIP3    H114436   0.693   3.873   0.328
 4810TIP3    H214437   0.691   4.025   0.332
 4811TIP3   OH214438   0.583   3.450   1.911
 4811TIP3    H114439   0.625   3.370   1.880
 4811TIP3    H214440   0.655   3.505   1.942
 4812TIP3   OH214441   4.020   5.583   0.134
 4812TIP3    H114442   3.931   5.618   0.146
 4812TIP3    H214443   4.075   5.636   0.192
 4813TIP3   OH214444   3.747   3.956   2.581
 4813TIP3    H114445   3.824   3.905   2.606
 4813TIP3    H214446   3.699   3.968   2.663
 4814TIP3   OH214447   4.893   1.732   3.140
 4814TIP3    H114448   4.946   1.736   3.219
 4814TIP3    H214449   4.949   1.688   3.076
 4815TIP3   OH214450   0.724   4.195   2.694
 4815TIP3    H114451   0.701   4.110   2.732
 4815TIP3    H214452   0.684   4.193   2.607
 4816TIP3   OH214453   1.688   1.803   2.823
 4816TIP3    H114454   1.685   1.727   2.764
 4816TIP3    H214455   1.733   1.771   2.900
 4817TIP3   OH214456   3.475   5.644   4.041
 4817TIP3    H114457   3.387   5.682   4.054
 4817TIP3    H214458   3.461   5.574   3.977
 4818TIP3   OH214459   0.723   5.759   1.012
 4818TIP3    H114460   0.816   5.740   1.019
 4818TIP3    H214461   0.706   5.761   0.918
 4819TIP3   OH214462   2.702   1.721   5.120
 4819TIP3    H114463   2.625   1.681   5.161
 4819TIP3    H214464   2.692   1.702   5.026
 4820TIP3   OH214465   1.785   3.377   1.357
 4820TIP3    H114466   1.770   3.444   1.290
 4820TIP3    H214467   1.810   3.299   1.307
 4821TIP3   OH214468   4.895   0.091   2.834
 4821TIP3    H114469   4.940   0.029   2.891
 4821TIP3    H214470   4.913   0.060   2.745
 4822TIP3   OH214471   4.572   2.897   1.066
 4822TIP3    H114472   4.657   2.934   1.087
 4822TIP3    H214473   4.518   2.913   1.144
 4823TIP3   OH214474   5.419   2.799   0.432
 4823TIP3    H114475   5.387   2.885   0.404
 4823TIP3    H214476   5.382   2.738   0.367
 4824TIP3   OH214477   3.484   5.894   4.194
 4824TIP3    H114478   3.508   5.815   4.145
 4824TIP3    H214479   3.435   5.861   4.270
 4825TIP3   OH214480   0.706   4.509   2.130
 4825TIP3    H114481   0.712   4.531   2.037
 4825TIP3    H214482   0.621   4.466   2.139
 4826TIP3   OH214483   4.450   2.019   0.607
 4826TIP3    H114484   4.525   1.968   0.638
 4826TIP3    H214485   4.485   2.107   0.595
 4827TIP3   OH214486   1.505   0.998   4.172
 4827TIP3    H114487   1.435   1.048   4.214
 4827TIP3    H214488   1.526   0.928   4.233
 4828TIP3   OH214489   4.893   5.875   4.558
 4828TIP3    H114490   4.901   5.820   4.636
 4828TIP3    H214491   4.802   5.904   4.558
 4829TIP3   OH214492   5.446   5.859   3.765
 4829TIP3    H114493   5.516   5.915   3.798
 4829TIP3    H214494   5.377   5.920   3.738
 4830TIP3   OH214495   4.198   4.585   0.831
 4830TIP3    H114496   4.195   4.491   0.849
 4830TIP3    H214497   4.204   4.626   0.917
 4831TIP3   OH214498   4.842   1.530   0.045
 4831TIP3    H114499   4.882   1.558   0.128
 4831TIP3    H214500   4.872   1.594  -0.019
 4832TIP3   OH214501   4.400   3.200   0.997
 4832TIP3    H114502   4.483   3.173   1.037
 4832TIP3    H214503   4.333   3.168   1.058
 4833TIP3   OH214504   1.288   4.564   3.991
 4833TIP3    H114505   1.229   4.537   3.921
 4833TIP3    H214506   1.372   4.576   3.949
 4834TIP3   OH214507   3.983   4.061   4.518
 4834TIP3    H114508   3.947   3.979   4.483
 4834TIP3    H214509   3.961   4.060   4.611
 4835TIP3   OH214510   2.667   0.928   1.004
 4835TIP3    H114511   2.723   0.899   0.932
 4835TIP3    H214512   2.713   1.003   1.041
 4836TIP3   OH214513   0.861   4.301   0.624
 4836TIP3    H114514   0.829   4.213   0.644
 4836TIP3    H214515   0.806   4.329   0.550
 4837TIP3   OH214516   5.605   0.066   3.917
 4837TIP3    H114517   5.591   0.041   4.008
 4837TIP3    H214518   5.518   0.086   3.884
 4838TIP3   OH214519   4.015   4.812   0.445
 4838TIP3    H114520   4.025   4.747   0.515
 4838TIP3    H214521   3.980   4.889   0.489
 4839TIP3   OH214522   6.224   4.482   4.559
 4839TIP3    H114523   6.194   4.477   4.469
 4839TIP3    H214524   6.164   4.425   4.607
 4840TIP3   OH214525   1.900   3.875   1.883
 4840TIP3    H114526   1.818   3.847   1.843
 4840TIP3    H214527   1.932   3.798   1.930
 4841TIP3   OH214528   0.432   4.648   0.389
 4841TIP3    H114529   0.351   4.698   0.381
 4841TIP3    H214530   0.420   4.573   0.330
 4842TIP3   OH214531   2.766   5.602   1.316
 4842TIP3    H114532   2.842   5.625   1.369
 4842TIP3    H214533   2.741   5.514   1.346
 4843TIP3   OH214534   5.486   2.376   2.484
 4843TIP3    H114535   5.528   2.300   2.443
 4843TIP3    H214536   5.491   2.445   2.418
 4844TIP3   OH214537   5.541   0.165   1.447
 4844TIP3    H114538   5.549   0.232   1.515
 4844TIP3    H214539   5.451   0.132   1.456
 4845TIP3   OH214540   1.652   5.575   2.552
 4845TIP3    H114541   1.701   5.532   2.622
 4845TIP3    H214542   1.566   5.533   2.554
 4846TIP3   OH214543   5.780   0.081   2.475
 4846TIP3    H114544   5.855   0.071   2.534
 4846TIP3    H214545   5.705   0.054   2.527
 4847TIP3   OH214546   1.288   0.274   0.505
 4847TIP3    H114547   1.354   0.244   0.568
 4847TIP3    H214548   1.212   0.218   0.522
 4848TIP3   OH214549   0.232   3.833   0.875
 4848TIP3    H114550   0.181   3.910   0.851
 4848TIP3    H214551   0.226   3.829   0.970
 4849TIP3   OH214552   3.483   1.242   2.214
 4849TIP3    H114553   3.492   1.334   2.239
 4849TIP3    H214554   3.466   1.197   2.296
 4850TIP3   OH214555   1.348   5.832   3.280
 4850TIP3    H114556   1.381   5.804   3.365
 4850TIP3    H214557   1.330   5.925   3.291
 4851TIP3   OH214558   1.543   4.506   2.365
 4851TIP3    H114559   1.527   4.460   2.283
 4851TIP3    H214560   1.470   4.567   2.373
 4852TIP3   OH214561   5.094   2.909   1.283
 4852TIP3    H114562   5.187   2.896   1.262
 4852TIP3    H214563   5.085   3.004   1.291
 4853TIP3   OH214564   4.993   1.704   4.710
 4853TIP3    H114565   4.943   1.623   4.702
 4853TIP3    H214566   4.948   1.765   4.652
 4854TIP3   OH214567   5.019   3.628   2.001
 4854TIP3    H114568   5.010   3.585   1.915
 4854TIP3    H214569   4.956   3.699   1.999
 4855TIP3   OH214570   0.186   5.234   3.864
 4855TIP3    H114571   0.235   5.247   3.783
 4855TIP3    H214572   0.123   5.306   3.865
 4856TIP3   OH214573   3.728   2.287   1.667
 4856TIP3    H114574   3.732   2.368   1.718
 4856TIP3    H214575   3.649   2.243   1.698
 4857TIP3   OH214576   3.931   4.811   4.172
 4857TIP3    H114577   3.888   4.874   4.115
 4857TIP3    H214578   3.986   4.759   4.114
 4858TIP3   OH214579   6.243   3.155   4.292
 4858TIP3    H114580   6.221   3.193   4.207
 4858TIP3    H214581   6.283   3.071   4.271
 4859TIP3   OH214582   0.824   5.074   3.434
 4859TIP3    H114583   0.759   5.137   3.405
 4859TIP3    H214584   0.904   5.099   3.389
 4860TIP3   OH214585   0.271   0.308   2.529
 4860TIP3    H114586   0.329   0.277   2.599
 4860TIP3    H214587   0.186   0.271   2.550
 4861TIP3   OH214588   4.066   4.664   4.619
 4861TIP3    H114589   4.142   4.661   4.561
 4861TIP3    H214590   4.094   4.619   4.698
 4862TIP3   OH214591   5.633   0.593   2.962
 4862TIP3    H114592   5.704   0.566   3.021
 4862TIP3    H214593   5.616   0.684   2.985
 4863TIP3   OH214594   4.615   3.844   2.203
 4863TIP3    H114595   4.680   3.848   2.134
 4863TIP3    H214596   4.620   3.755   2.236
 4864TIP3   OH214597   2.910   3.645   4.208
 4864TIP3    H114598   2.908   3.642   4.112
 4864TIP3    H214599   2.971   3.715   4.229
 4865TIP3   OH214600   2.973   0.395   4.798
 4865TIP3    H114601   2.889   0.376   4.757
 4865TIP3    H214602   2.991   0.486   4.774
 4866TIP3   OH214603   4.619   5.149   2.636
 4866TIP3    H114604   4.621   5.206   2.712
 4866TIP3    H214605   4.607   5.061   2.672
 4867TIP3   OH214606   3.392   3.959   4.946
 4867TIP3    H114607   3.329   3.905   4.899
 4867TIP3    H214608   3.368   3.951   5.038
 4868TIP3   OH214609   1.349   4.514   4.440
 4868TIP3    H114610   1.440   4.499   4.414
 4868TIP3    H214611   1.345   4.608   4.459
 4869TIP3   OH214612   0.175   1.711   2.251
 4869TIP3    H114613   0.178   1.703   2.346
 4869TIP3    H214614   0.113   1.782   2.235
 4870TIP3   OH214615   2.860   0.235   2.421
 4870TIP3    H114616   2.806   0.158   2.442
 4870TIP3    H214617   2.798   0.308   2.425
 4871TIP3   OH214618   4.861   0.300   0.197
 4871TIP3    H114619   4.799   0.228   0.186
 4871TIP3    H214620   4.932   0.279   0.136
 4872TIP3   OH214621   1.602   3.327   4.703
 4872TIP3    H114622   1.574   3.241   4.671
 4872TIP3    H214623   1.606   3.382   4.624
 4873TIP3   OH214624   2.987   5.626   2.207
 4873TIP3    H114625   2.944   5.667   2.282
 4873TIP3    H214626   3.070   5.593   2.242
 4874TIP3   OH214627   0.810   3.105   0.313
 4874TIP3    H114628   0.798   3.187   0.360
 4874TIP3    H214629   0.899   3.110   0.278
 4875TIP3   OH214630   3.821   3.792   3.651
 4875TIP3    H114631   3.809   3.879   3.612
 4875TIP3    H214632   3.859   3.810   3.737
 4876TIP3   OH214633   2.129   1.249   1.260
 4876TIP3    H114634   2.058   1.264   1.198
 4876TIP3    H214635   2.208   1.257   1.208
 4877TIP3   OH214636   2.118   4.855   2.687
 4877TIP3    H114637   2.200   4.823   2.649
 4877TIP3    H214638   2.096   4.932   2.635
 4878TIP3   OH214639   1.636   0.480   0.356
 4878TIP3    H114640   1.549   0.491   0.395
 4878TIP3    H214641   1.696   0.515   0.421
 4879TIP3   OH214642   3.610   5.585   0.700
 4879TIP3    H114643   3.679   5.593   0.765
 4879TIP3    H214644   3.586   5.492   0.703
 4880TIP3   OH214645   4.429   1.893   2.326
 4880TIP3    H114646   4.381   1.858   2.251
 4880TIP3    H214647   4.406   1.836   2.399
 4881TIP3   OH214648   4.081   0.596   3.504
 4881TIP3    H114649   4.055   0.677   3.549
 4881TIP3    H214650   4.124   0.626   3.424
 4882TIP3   OH214651   4.935   2.081   0.851
 4882TIP3    H114652   4.942   2.175   0.869
 4882TIP3    H214653   4.988   2.040   0.919
 4883TIP3   OH214654   1.545   4.320   2.962
 4883TIP3    H114655   1.510   4.405   2.987
 4883TIP3    H214656   1.565   4.328   2.869
 4884TIP3   OH214657   6.221   5.596   2.769
 4884TIP3    H114658   6.156   5.625   2.705
 4884TIP3    H214659   6.209   5.655   2.843
 4885TIP3   OH214660   2.872   4.062   0.224
 4885TIP3    H114661   2.904   4.143   0.183
 4885TIP3    H214662   2.948   4.028   0.273
 4886TIP3   OH214663   5.262   5.506   0.779
 4886TIP3    H114664   5.247   5.462   0.695
 4886TIP3    H214665   5.321   5.578   0.757
 4887TIP3   OH214666   6.047   4.085   0.125
 4887TIP3    H114667   6.133   4.051   0.152
 4887TIP3    H214668   6.047   4.080   0.030
 4888TIP3   OH214669   6.182   2.653   2.281
 4888TIP3    H114670   6.177   2.742   2.246
 4888TIP3    H214671   6.270   2.646   2.316
 4889TIP3   OH214672   0.719   0.349   4.989
 4889TIP3    H114673   0.682   0.429   4.953
 4889TIP3    H214674   0.694   0.281   4.927
 4890TIP3   OH214675   2.515   1.693   1.254
 4890TIP3    H114676   2.510   1.784   1.224
 4890TIP3    H214677   2.431   1.655   1.228
 4891TIP3   OH214678   3.443   1.002   4.350
 4891TIP3    H114679   3.468   1.002   4.443
 4891TIP3    H214680   3.446   0.910   4.325
 4892TIP3   OH214681   1.827   2.802   0.414
 4892TIP3    H114682   1.884   2.850   0.474
 4892TIP3    H214683   1.794   2.869   0.354
 4893TIP3   OH214684   2.366   4.917   1.467
 4893TIP3    H114685   2.373   4.878   1.380
 4893TIP3    H214686   2.290   4.874   1.506
 4894TIP3   OH214687   2.164   4.127   3.156
 4894TIP3    H114688   2.154   4.161   3.244
 4894TIP3    H214689   2.242   4.071   3.161
 4895TIP3   OH214690   2.006   1.934   1.209
 4895TIP3    H114691   1.970   1.907   1.294
 4895TIP3    H214692   2.075   1.870   1.191
 4896TIP3   OH214693   3.355   1.949   2.446
 4896TIP3    H114694   3.380   1.959   2.538
 4896TIP3    H214695   3.266   1.914   2.448
 4897TIP3   OH214696   5.989   3.209   1.356
 4897TIP3    H114697   5.956   3.294   1.384
 4897TIP3    H214698   6.083   3.222   1.343
 4898TIP3   OH214699   4.260   4.368   3.301
 4898TIP3    H114700   4.313   4.414   3.366
 4898TIP3    H214701   4.323   4.340   3.234
 4899TIP3   OH214702   4.004   2.848   5.152
 4899TIP3    H114703   4.061   2.772   5.162
 4899TIP3    H214704   3.992   2.857   5.058
 4900TIP3   OH214705   5.531   0.116   3.518
 4900TIP3    H114706   5.579   0.178   3.573
 4900TIP3    H214707   5.485   0.171   3.454
 4901TIP3   OH214708   3.273   0.419   1.657
 4901TIP3    H114709   3.335   0.434   1.586
 4901TIP3    H214710   3.194   0.466   1.630
 4902TIP3   OH214711   2.100   2.432   1.718
 4902TIP3    H114712   2.153   2.484   1.658
 4902TIP3    H214713   2.017   2.479   1.724
 4903TIP3   OH214714   4.004   5.372   1.624
 4903TIP3    H114715   4.030   5.373   1.532
 4903TIP3    H214716   4.059   5.438   1.665
 4904TIP3   OH214717   5.415   1.672   2.547
 4904TIP3    H114718   5.327   1.694   2.517
 4904TIP3    H214719   5.421   1.711   2.634
 4905TIP3   OH214720   0.942   2.245   5.188
 4905TIP3    H114721   0.855   2.217   5.216
 4905TIP3    H214722   0.955   2.202   5.103
 4906TIP3   OH214723   3.883   2.766   0.101
 4906TIP3    H114724   3.941   2.746   0.028
 4906TIP3    H214725   3.804   2.715   0.084
 4907TIP3   OH214726   4.976   0.549   0.321
 4907TIP3    H114727   4.902   0.609   0.326
 4907TIP3    H214728   4.937   0.465   0.298
 4908TIP3   OH214729   4.933   4.022   3.222
 4908TIP3    H114730   4.924   4.068   3.138
 4908TIP3    H214731   4.940   4.092   3.286
 4909TIP3   OH214732   6.313   4.754   3.809
 4909TIP3    H114733   6.336   4.834   3.856
 4909TIP3    H214734   6.241   4.781   3.752
 4910TIP3   OH214735   3.277   5.263   1.082
 4910TIP3    H114736   3.313   5.286   1.167
 4910TIP3    H214737   3.347   5.283   1.020
 4911TIP3   OH214738   4.149   0.678   0.887
 4911TIP3    H114739   4.198   0.657   0.966
 4911TIP3    H214740   4.202   0.644   0.815
 4912TIP3   OH214741   3.036   4.187   0.449
 4912TIP3    H114742   3.105   4.120   0.443
 4912TIP3    H214743   3.084   4.270   0.457
 4913TIP3   OH214744   3.923   1.085   5.016
 4913TIP3    H114745   3.899   0.993   5.005
 4913TIP3    H214746   3.991   1.100   4.950
 4914TIP3   OH214747   5.307   2.245   3.316
 4914TIP3    H114748   5.373   2.285   3.259
 4914TIP3    H214749   5.357   2.202   3.385
 4915TIP3   OH214750   6.071   0.585   3.356
 4915TIP3    H114751   6.105   0.495   3.352
 4915TIP3    H214752   6.134   0.636   3.305
 4916TIP3   OH214753   2.581   4.163   4.822
 4916TIP3    H114754   2.554   4.074   4.841
 4916TIP3    H214755   2.627   4.157   4.738
 4917TIP3   OH214756   2.414   3.137   2.004
 4917TIP3    H114757   2.394   3.131   1.911
 4917TIP3    H214758   2.431   3.047   2.031
 4918TIP3   OH214759   5.411   3.752   3.603
 4918TIP3    H114760   5.454   3.667   3.596
 4918TIP3    H214761   5.359   3.747   3.683
 4919TIP3   OH214762   3.673   2.533   2.136
 4919TIP3    H114763   3.761   2.495   2.128
 4919TIP3    H214764   3.632   2.516   2.052
 4920TIP3   OH214765   1.914   3.278   0.849
 4920TIP3    H114766   1.843   3.268   0.913
 4920TIP3    H214767   1.954   3.362   0.871
 4921TIP3   OH214768   1.506   3.411   2.461
 4921TIP3    H114769   1.538   3.385   2.547
 4921TIP3    H214770   1.581   3.454   2.420
 4922TIP3   OH214771   5.431   2.434   4.892
 4922TIP3    H114772   5.344   2.397   4.907
 4922TIP3    H214773   5.491   2.364   4.918
 4923TIP3   OH214774   3.333   5.383   3.689
 4923TIP3    H114775   3.270   5.316   3.662
 4923TIP3    H214776   3.337   5.376   3.784
 4924TIP3   OH214777   2.337   1.850   2.931
 4924TIP3    H114778   2.338   1.860   2.836
 4924TIP3    H214779   2.418   1.891   2.961
 4925TIP3   OH214780   1.920   1.521   4.954
 4925TIP3    H114781   1.990   1.585   4.961
 4925TIP3    H214782   1.872   1.528   5.037
 4926TIP3   OH214783   1.667   3.350   4.305
 4926TIP3    H114784   1.693   3.441   4.316
 4926TIP3    H214785   1.748   3.305   4.281
 4927TIP3   OH214786   5.012   2.590   3.434
 4927TIP3    H114787   5.035   2.514   3.487
 4927TIP3    H214788   5.026   2.561   3.344
 4928TIP3   OH214789   1.578   2.552   1.987
 4928TIP3    H114790   1.580   2.527   1.895
 4928TIP3    H214791   1.643   2.495   2.028
 4929TIP3   OH214792   4.259   2.158   4.835
 4929TIP3    H114793   4.249   2.213   4.913
 4929TIP3    H214794   4.350   2.172   4.808
 4930TIP3   OH214795   5.286   1.007   1.218
 4930TIP3    H114796   5.263   1.072   1.152
 4930TIP3    H214797   5.374   1.033   1.248
 4931TIP3   OH214798   1.708   1.157   2.940
 4931TIP3    H114799   1.776   1.224   2.937
 4931TIP3    H214800   1.753   1.076   2.916
 4932TIP3   OH214801   3.004   5.751   1.969
 4932TIP3    H114802   2.915   5.754   1.934
 4932TIP3    H214803   3.000   5.685   2.038
 4933TIP3   OH214804   0.031   4.321   4.030
 4933TIP3    H114805  -0.012   4.399   4.065
 4933TIP3    H214806   0.009   4.252   4.093
 4934TIP3   OH214807   5.631   2.192   3.413
 4934TIP3    H114808   5.680   2.110   3.417
 4934TIP3    H214809   5.692   2.258   3.445
 4935TIP3   OH214810   5.173   5.447   4.421
 4935TIP3    H114811   5.147   5.360   4.389
 4935TIP3    H214812   5.103   5.473   4.480
 4936TIP3   OH214813   5.256   3.255   3.965
 4936TIP3    H114814   5.273   3.187   4.030
 4936TIP3    H214815   5.186   3.219   3.910
 4937TIP3   OH214816   0.365   3.147   4.075
 4937TIP3    H114817   0.280   3.191   4.081
 4937TIP3    H214818   0.428   3.218   4.068
 4938TIP3   OH214819   5.478   5.557   2.538
 4938TIP3    H114820   5.439   5.640   2.511
 4938TIP3    H214821   5.512   5.574   2.626
 4939TIP3   OH214822   6.027   2.051   4.323
 4939TIP3    H114823   6.026   2.096   4.408
 4939TIP3    H214824   5.962   1.982   4.332
 4940TIP3   OH214825   4.505   2.365   0.823
 4940TIP3    H114826   4.545   2.278   0.829
 4940TIP3    H214827   4.486   2.389   0.913
 4941TIP3   OH214828   0.421   5.665   0.807
 4941TIP3    H114829   0.505   5.696   0.773
 4941TIP3    H214830   0.443   5.584   0.854
 4942TIP3   OH214831   2.687   5.317   2.394
 4942TIP3    H114832   2.728   5.378   2.456
 4942TIP3    H214833   2.701   5.231   2.434
 4943TIP3   OH214834   2.624   4.943   0.705
 4943TIP3    H114835   2.583   4.866   0.667
 4943TIP3    H214836   2.630   5.006   0.633
 4944TIP3   OH214837   3.389   3.975   2.545
 4944TIP3    H114838   3.383   3.880   2.547
 4944TIP3    H214839   3.412   3.996   2.454
 4945TIP3   OH214840   4.505   3.461   2.982
 4945TIP3    H114841   4.458   3.474   3.065
 4945TIP3    H214842   4.442   3.485   2.915
 4946TIP3   OH214843   3.231   5.451   4.528
 4946TIP3    H114844   3.176   5.467   4.605
 4946TIP3    H214845   3.275   5.368   4.547
 4947TIP3   OH214846   6.357   0.729   2.078
 4947TIP3    H114847   6.272   0.721   2.120
 4947TIP3    H214848   6.377   0.823   2.083
 4948TIP3   OH214849   2.022   0.177   4.959
 4948TIP3    H114850   2.072   0.203   5.036
 4948TIP3    H214851   2.086   0.131   4.904
 4949TIP3   OH214852   5.176   0.016   1.205
 4949TIP3    H114853   5.107   0.071   1.241
 4949TIP3    H214854   5.136  -0.071   1.196
 4950TIP3   OH214855   3.007   0.207   2.180
 4950TIP3    H114856   2.978   0.227   2.269
 4950TIP3    H214857   3.073   0.274   2.161
 4951TIP3   OH214858   2.650   3.065   2.869
 4951TIP3    H114859   2.632   3.028   2.783
 4951TIP3    H214860   2.740   3.037   2.888
 4952TIP3   OH214861   2.037   4.542   0.121
 4952TIP3    H114862   2.016   4.465   0.068
 4952TIP3    H214863   2.025   4.512   0.211
 4953TIP3   OH214864   0.774   0.854   1.787
 4953TIP3    H114865   0.783   0.905   1.868
 4953TIP3    H214866   0.809   0.768   1.809
 4954TIP3   OH214867   1.973   5.639   4.372
 4954TIP3    H114868   2.037   5.657   4.303
 4954TIP3    H214869   1.908   5.582   4.331
 4955TIP3   OH214870   5.606   1.566   4.193
 4955TIP3    H114871   5.685   1.555   4.247
 4955TIP3    H214872   5.542   1.606   4.253
 4956TIP3   OH214873   0.198   2.812   2.866
 4956TIP3    H114874   0.216   2.820   2.960
 4956TIP3    H214875   0.115   2.764   2.861
 4957TIP3   OH214876   0.286   1.224   2.803
 4957TIP3    H114877   0.206   1.277   2.795
 4957TIP3    H214878   0.357   1.286   2.789
 4958TIP3   OH214879   4.691   5.765   3.729
 4958TIP3    H114880   4.709   5.739   3.639
 4958TIP3    H214881   4.742   5.846   3.741
 4959TIP3   OH214882   2.865   5.213   1.989
 4959TIP3    H114883   2.811   5.279   2.030
 4959TIP3    H214884   2.926   5.185   2.058
 4960TIP3   OH214885   1.414   0.668   0.969
 4960TIP3    H114886   1.359   0.602   0.927
 4960TIP3    H214887   1.422   0.738   0.903
 4961TIP3   OH214888   0.203   4.936   4.334
 4961TIP3    H114889   0.148   4.929   4.256
 4961TIP3    H214890   0.292   4.949   4.300
 4962TIP3   OH214891   4.944   4.268   1.842
 4962TIP3    H114892   4.923   4.240   1.931
 4962TIP3    H214893   4.978   4.189   1.799
 4963TIP3   OH214894   4.469   3.823   3.787
 4963TIP3    H114895   4.530   3.790   3.852
 4963TIP3    H214896   4.523   3.871   3.725
 4964TIP3   OH214897   6.331   4.255   2.287
 4964TIP3    H114898   6.379   4.338   2.296
 4964TIP3    H214899   6.260   4.261   2.350
 4965TIP3   OH214900   3.086   4.201   4.479
 4965TIP3    H114901   3.132   4.148   4.545
 4965TIP3    H214902   3.156   4.245   4.432
 4966TIP3   OH214903   5.363   4.474   2.427
 4966TIP3    H114904   5.394   4.555   2.385
 4966TIP3    H214905   5.271   4.491   2.446
 4967TIP3   OH214906   1.536   0.593   3.978
 4967TIP3    H114907   1.567   0.537   4.049
 4967TIP3    H214908   1.458   0.635   4.012
 4968TIP3   OH214909   2.325   0.449   3.353
 4968TIP3    H114910   2.252   0.450   3.414
 4968TIP3    H214911   2.327   0.537   3.317
 4969TIP3   OH214912   5.611   2.267   2.271
 4969TIP3    H114913   5.578   2.260   2.182
 4969TIP3    H214914   5.682   2.202   2.277
 4970TIP3   OH214915   5.356   5.892   1.200
 4970TIP3    H114916   5.306   5.828   1.250
 4970TIP3    H214917   5.376   5.962   1.262
 4971TIP3   OH214918   0.068   4.605   1.611
 4971TIP3    H114919   0.145   4.651   1.643
 4971TIP3    H214920   0.025   4.571   1.689
 4972TIP3   OH214921   2.537   5.069   0.449
 4972TIP3    H114922   2.568   4.986   0.414
 4972TIP3    H214923   2.467   5.095   0.389
 4973TIP3   OH214924   2.766   0.531   0.527
 4973TIP3    H114925   2.853   0.522   0.566
 4973TIP3    H214926   2.705   0.524   0.600
 4974TIP3   OH214927   0.852   0.179   0.026
 4974TIP3    H114928   0.846   0.132   0.109
 4974TIP3    H214929   0.763   0.211   0.009
 4975TIP3   OH214930   3.032   5.276   3.827
 4975TIP3    H114931   3.101   5.237   3.881
 4975TIP3    H214932   3.013   5.209   3.762
 4976TIP3   OH214933   5.579   1.566   2.765
 4976TIP3    H114934   5.495   1.521   2.772
 4976TIP3    H214935   5.560   1.657   2.788
 4977TIP3   OH214936   2.871   5.033   3.000
 4977TIP3    H114937   2.961   5.067   3.003
 4977TIP3    H214938   2.872   4.962   3.064
 4978TIP3   OH214939   1.667   0.974   1.544
 4978TIP3    H114940   1.702   0.913   1.609
 4978TIP3    H214941   1.575   0.949   1.535
 4979TIP3   OH214942   3.479   0.169   1.540
 4979TIP3    H114943   3.476   0.169   1.636
 4979TIP3    H214944   3.439   0.252   1.515
 4980TIP3   OH214945   4.333   0.030   0.958
 4980TIP3    H114946   4.369   0.089   0.891
 4980TIP3    H214947   4.404  -0.032   0.976
 4981TIP3   OH214948   5.787   2.889   3.759
 4981TIP3    H114949   5.850   2.831   3.716
 4981TIP3    H214950   5.810   2.977   3.729
 4982TIP3   OH214951   5.017   2.268   2.909
 4982TIP3    H114952   5.082   2.214   2.864
 4982TIP3    H214953   4.955   2.293   2.840
 4983TIP3   OH214954   2.085   2.567   3.015
 4983TIP3    H114955   2.029   2.507   3.064
 4983TIP3    H214956   2.173   2.550   3.049
 4984TIP3   OH214957   2.412   4.427   3.707
 4984TIP3    H114958   2.358   4.461   3.779
 4984TIP3    H214959   2.465   4.502   3.681
 4985TIP3   OH214960   0.577   3.065   1.606
 4985TIP3    H114961   0.500   3.082   1.661
 4985TIP3    H214962   0.639   3.021   1.665
 4986TIP3   OH214963   1.857   4.572   0.809
 4986TIP3    H114964   1.867   4.574   0.714
 4986TIP3    H214965   1.946   4.584   0.843
 4987TIP3   OH214966   3.221   2.614   0.654
 4987TIP3    H114967   3.164   2.544   0.623
 4987TIP3    H214968   3.165   2.691   0.657
 4988TIP3   OH214969   6.250   2.291   3.817
 4988TIP3    H114970   6.255   2.196   3.827
 4988TIP3    H214971   6.186   2.320   3.881
 4989TIP3   OH214972  -0.020   2.418   1.764
 4989TIP3    H114973  -0.007   2.436   1.857
 4989TIP3    H214974   0.036   2.482   1.719
 4990TIP3   OH214975   0.093   4.320   5.165
 4990TIP3    H114976   0.019   4.363   5.121
 4990TIP3    H214977   0.148   4.392   5.194
 4991TIP3   OH214978   2.822   2.373   5.011
 4991TIP3    H114979   2.734   2.351   5.040
 4991TIP3    H214980   2.855   2.435   5.076
 4992TIP3   OH214981   1.351   4.187   4.037
 4992TIP3    H114982   1.285   4.189   3.967
 4992TIP3    H214983   1.435   4.181   3.991
 4993TIP3   OH214984   0.125   5.012   0.088
 4993TIP3    H114985   0.113   5.100   0.125
 4993TIP3    H214986   0.196   5.022   0.024
 4994TIP3   OH214987   3.935   0.280   4.521
 4994TIP3    H114988   3.916   0.284   4.427
 4994TIP3    H214989   3.852   0.257   4.562
 4995TIP3   OH214990   2.777   4.111   1.021
 4995TIP3    H114991   2.746   4.081   0.935
 4995TIP3    H214992   2.824   4.036   1.057
 4996TIP3   OH214993   0.790   3.294   2.374
 4996TIP3    H114994   0.769   3.229   2.441
 4996TIP3    H214995   0.733   3.272   2.300
 4997TIP3   OH214996   0.515   1.448   2.776
 4997TIP3    H114997   0.572   1.383   2.733
 4997TIP3    H214998   0.489   1.507   2.706
 4998TIP3   OH214999   5.653   5.454   4.269
 4998TIP3    H115000   5.746   5.477   4.271
 4998TIP3    H215001   5.619   5.501   4.192
 4999TIP3   OH215002   2.672   4.747   2.132
 4999TIP3    H115003   2.722   4.797   2.197
 4999TIP3    H215004   2.739   4.701   2.081
 5000TIP3   OH215005   4.153   2.744   0.191
 5000TIP3    H115006   4.070   2.778   0.157
 5000TIP3    H215007   4.198   2.820   0.226
 5001TIP3   OH215008   0.327   3.658   5.086
 5001TIP3    H115009   0.302   3.582   5.138
 5001TIP3    H215010   0.287   3.641   5.000
 5002TIP3   OH215011   3.248   0.140   2.747
 5002TIP3    H115012   3.252   0.048   2.772
 5002TIP3    H215013   3.213   0.139   2.658
 5003TIP3   OH215014   1.386   1.655   4.450
 5003TIP3    H115015   1.354   1.585   4.393
 5003TIP3    H215016   1.467   1.684   4.409
 5004TIP3   OH215017   1.447   2.711   4.799
 5004TIP3    H115018   1.421   2.635   4.851
 5004TIP3    H215019   1.523   2.681   4.749
 5005TIP3   OH215020   5.678   2.465   3.865
 5005TIP3    H115021   5.722   2.383   3.844
 5005TIP3    H215022   5.734   2.507   3.930
 5006TIP3   OH215023   1.746   0.375   4.388
 5006TIP3    H115024   1.688   0.415   4.451
 5006TIP3    H215025   1.834   0.398   4.418
 5007TIP3   OH215026   5.651   4.949   2.153
 5007TIP3    H115027   5.695   4.866   2.171
 5007TIP3    H215028   5.573   4.948   2.209
 5008TIP3   OH215029   4.840   4.397   4.970
 5008TIP3    H115030   4.803   4.476   4.928
 5008TIP3    H215031   4.893   4.357   4.901
 5009TIP3   OH215032   4.479   5.821   1.100
 5009TIP3    H115033   4.445   5.747   1.050
 5009TIP3    H215034   4.520   5.781   1.177
 5010TIP3   OH215035   3.200   4.749   0.945
 5010TIP3    H115036   3.130   4.776   1.003
 5010TIP3    H215037   3.245   4.679   0.992
 5011TIP3   OH215038   4.564   2.653   4.813
 5011TIP3    H115039   4.544   2.744   4.833
 5011TIP3    H215040   4.645   2.635   4.862
 5012TIP3   OH215041   2.937   4.559   4.632
 5012TIP3    H115042   2.943   4.509   4.714
 5012TIP3    H215043   2.878   4.508   4.577
 5013TIP3   OH215044   4.594   2.176   2.787
 5013TIP3    H115045   4.531   2.148   2.854
 5013TIP3    H215046   4.658   2.104   2.784
 5014TIP3   OH215047   2.134   2.951   2.516
 5014TIP3    H115048   2.044   2.982   2.518
 5014TIP3    H215049   2.184   3.018   2.563
 5015TIP3   OH215050   4.999   3.857   2.358
 5015TIP3    H115051   4.909   3.860   2.391
 5015TIP3    H215052   4.997   3.912   2.279
 5016TIP3   OH215053   6.253   3.474   4.842
 5016TIP3    H115054   6.319   3.538   4.819
 5016TIP3    H215055   6.203   3.460   4.761
 5017TIP3   OH215056   2.296   3.743   4.381
 5017TIP3    H115057   2.256   3.821   4.341
 5017TIP3    H215058   2.224   3.679   4.384
 5018TIP3   OH215059   1.456   5.906   2.244
 5018TIP3    H115060   1.418   5.991   2.265
 5018TIP3    H215061   1.474   5.866   2.329
 5019TIP3   OH215062   2.644   3.072   4.865
 5019TIP3    H115063   2.677   2.992   4.825
 5019TIP3    H215064   2.648   3.055   4.959
 5020TIP3   OH215065   2.420   1.528   4.343
 5020TIP3    H115066   2.382   1.607   4.381
 5020TIP3    H215067   2.465   1.558   4.264
 5021TIP3   OH215068   6.247   3.713   3.888
 5021TIP3    H115069   6.190   3.640   3.864
 5021TIP3    H215070   6.187   3.788   3.897
 5022TIP3   OH215071   1.957   1.016   4.057
 5022TIP3    H115072   1.986   0.924   4.058
 5022TIP3    H215073   2.033   1.064   4.089
 5023TIP3   OH215074   2.966   5.356   4.375
 5023TIP3    H115075   2.933   5.317   4.294
 5023TIP3    H215076   3.046   5.402   4.349
 5024TIP3   OH215077   3.561   0.708   1.521
 5024TIP3    H115078   3.556   0.756   1.604
 5024TIP3    H215079   3.470   0.701   1.492
 5025TIP3   OH215080   2.315   2.262   2.597
 5025TIP3    H115081   2.394   2.307   2.567
 5025TIP3    H215082   2.334   2.237   2.688
 5026TIP3   OH215083   6.031   3.678   2.140
 5026TIP3    H115084   5.987   3.638   2.066
 5026TIP3    H215085   5.999   3.768   2.142
 5027TIP3   OH215086   1.960   4.356   1.785
 5027TIP3    H115087   1.904   4.404   1.724
 5027TIP3    H215088   2.005   4.291   1.731
 5028TIP3   OH215089   5.372   5.159   1.353
 5028TIP3    H115090   5.350   5.096   1.422
 5028TIP3    H215091   5.334   5.122   1.274
 5029TIP3   OH215092   0.706   2.280   3.620
 5029TIP3    H115093   0.769   2.350   3.634
 5029TIP3    H215094   0.724   2.248   3.532
 5030TIP3   OH215095   6.328   2.974   0.375
 5030TIP3    H115096   6.347   3.064   0.350
 5030TIP3    H215097   6.234   2.964   0.362
 5031TIP3   OH215098   5.739   2.840   0.908
 5031TIP3    H115099   5.770   2.749   0.910
 5031TIP3    H215100   5.718   2.856   0.816
 5032TIP3   OH215101   1.148   2.903   4.662
 5032TIP3    H115102   1.095   2.889   4.584
 5032TIP3    H215103   1.164   2.815   4.697
 5033TIP3   OH215104   3.517   1.553   4.207
 5033TIP3    H115105   3.512   1.506   4.290
 5033TIP3    H215106   3.604   1.531   4.172
 5034TIP3   OH215107   6.036   2.391   2.375
 5034TIP3    H115108   6.067   2.356   2.292
 5034TIP3    H215109   6.097   2.461   2.397
 5035TIP3   OH215110   1.277   2.916   2.414
 5035TIP3    H115111   1.257   2.857   2.488
 5035TIP3    H215112   1.341   2.867   2.362
 5036TIP3   OH215113   6.118   3.141   3.668
 5036TIP3    H115114   6.213   3.136   3.657
 5036TIP3    H215115   6.105   3.162   3.761
 5037TIP3   OH215116   5.719   1.169   2.091
 5037TIP3    H115117   5.762   1.122   2.019
 5037TIP3    H215118   5.775   1.152   2.167
 5038TIP3   OH215119   4.532   1.882   5.031
 5038TIP3    H115120   4.546   1.973   5.006
 5038TIP3    H215121   4.447   1.860   4.993
 5039TIP3   OH215122   3.497   0.088   0.934
 5039TIP3    H115123   3.494   0.005   0.887
 5039TIP3    H215124   3.458   0.068   1.020
 5040TIP3   OH215125   1.575   3.952   3.377
 5040TIP3    H115126   1.641   3.886   3.398
 5040TIP3    H215127   1.533   3.920   3.297
 5041TIP3   OH215128   4.347   2.281   0.442
 5041TIP3    H115129   4.437   2.276   0.475
 5041TIP3    H215130   4.345   2.358   0.386
 5042TIP3   OH215131   2.652   3.097   1.618
 5042TIP3    H115132   2.690   3.182   1.597
 5042TIP3    H215133   2.559   3.106   1.597
 5043TIP3   OH215134   1.619   5.779   0.705
 5043TIP3    H115135   1.682   5.754   0.637
 5043TIP3    H215136   1.540   5.803   0.656
 5044TIP3   OH215137   2.649   4.435   1.229
 5044TIP3    H115138   2.637   4.520   1.187
 5044TIP3    H215139   2.734   4.404   1.197
 5045TIP3   OH215140   4.273   4.120   4.717
 5045TIP3    H115141   4.235   4.198   4.677
 5045TIP3    H215142   4.270   4.137   4.811
 5046TIP3   OH215143   0.388   2.592   0.185
 5046TIP3    H115144   0.452   2.661   0.203
 5046TIP3    H215145   0.315   2.637   0.142
 5047TIP3   OH215146   2.972   4.815   3.372
 5047TIP3    H115147   2.962   4.728   3.410
 5047TIP3    H215148   2.887   4.835   3.334
 5048TIP3   OH215149   3.862   4.491   4.502
 5048TIP3    H115150   3.919   4.558   4.541
 5048TIP3    H215151   3.791   4.481   4.566
 5049TIP3   OH215152   1.840   0.648   4.713
 5049TIP3    H115153   1.818   0.569   4.662
 5049TIP3    H215154   1.907   0.692   4.661
 5050TIP3   OH215155   0.172   2.506   2.784
 5050TIP3    H115156   0.224   2.493   2.864
 5050TIP3    H215157   0.089   2.542   2.815
 5051TIP3   OH215158   5.609   5.700   0.107
 5051TIP3    H115159   5.694   5.660   0.088
 5051TIP3    H215160   5.624   5.750   0.188
 5052TIP3   OH215161   0.772   4.399   3.064
 5052TIP3    H115162   0.858   4.434   3.088
 5052TIP3    H215163   0.769   4.313   3.105
 5053TIP3   OH215164   5.743   5.814   2.478
 5053TIP3    H115165   5.661   5.779   2.444
 5053TIP3    H215166   5.810   5.753   2.445
 5054TIP3   OH215167   2.366   5.127   4.073
 5054TIP3    H115168   2.309   5.145   4.148
 5054TIP3    H215169   2.306   5.101   4.003
 5055TIP3   OH215170   6.093   0.238   1.208
 5055TIP3    H115171   6.123   0.164   1.155
 5055TIP3    H215172   5.998   0.240   1.193
 5056TIP3   OH215173   3.265   1.091   2.668
 5056TIP3    H115174   3.256   1.107   2.762
 5056TIP3    H215175   3.179   1.060   2.641
 5057TIP3   OH215176   1.505   2.444   1.254
 5057TIP3    H115177   1.544   2.504   1.317
 5057TIP3    H215178   1.425   2.413   1.297
 5058TIP3   OH215179   5.789   3.907   3.129
 5058TIP3    H115180   5.781   3.812   3.118
 5058TIP3    H215181   5.875   3.919   3.169
 5059TIP3   OH215182   3.580   1.930   1.940
 5059TIP3    H115183   3.509   1.994   1.932
 5059TIP3    H215184   3.614   1.943   2.029
 5060TIP3   OH215185   5.826   5.499   5.156
 5060TIP3    H115186   5.861   5.417   5.120
 5060TIP3    H215187   5.792   5.474   5.242
 5061TIP3   OH215188   1.486   2.332   0.048
 5061TIP3    H115189   1.551   2.332  -0.023
 5061TIP3    H215190   1.536   2.352   0.127
 5062TIP3   OH215191   3.348   0.592   1.230
 5062TIP3    H115192   3.381   0.682   1.237
 5062TIP3    H215193   3.420   0.543   1.188
 5063TIP3   OH215194   4.104   1.009   2.955
 5063TIP3    H115195   4.132   1.002   2.863
 5063TIP3    H215196   4.029   1.069   2.952
 5064TIP3   OH215197   4.859   0.833   0.257
 5064TIP3    H115198   4.860   0.871   0.345
 5064TIP3    H215199   4.936   0.868   0.214
 5065TIP3   OH215200   5.288   1.229   4.277
 5065TIP3    H115201   5.315   1.319   4.261
 5065TIP3    H215202   5.369   1.179   4.276
 5066TIP3   OH215203   4.784   1.036   2.503
 5066TIP3    H115204   4.871   1.072   2.490
 5066TIP3    H215205   4.779   1.014   2.596
 5067TIP3   OH215206   3.838   4.881   2.256
 5067TIP3    H115207   3.925   4.918   2.236
 5067TIP3    H215208   3.794   4.950   2.305
 5068TIP3   OH215209   5.906   2.200   5.141
 5068TIP3    H115210   5.947   2.186   5.056
 5068TIP3    H215211   5.877   2.291   5.138
 5069TIP3   OH215212   3.528   0.525   1.021
 5069TIP3    H115213   3.509   0.555   0.932
 5069TIP3    H215214   3.616   0.558   1.039
 5070TIP3   OH215215   4.893   5.571   0.826
 5070TIP3    H115216   4.895   5.498   0.764
 5070TIP3    H215217   4.827   5.545   0.891
 5071TIP3   OH215218   5.546   1.168   4.221
 5071TIP3    H115219   5.564   1.229   4.294
 5071TIP3    H215220   5.528   1.085   4.264
 5072TIP3   OH215221   2.244   2.881   1.584
 5072TIP3    H115222   2.303   2.866   1.511
 5072TIP3    H215223   2.202   2.965   1.565
 5073TIP3   OH215224   3.082   0.787   2.921
 5073TIP3    H115225   3.153   0.813   2.980
 5073TIP3    H215226   3.087   0.691   2.917
 5074TIP3   OH215227   2.061   1.681   1.006
 5074TIP3    H115228   1.969   1.662   1.024
 5074TIP3    H215229   2.089   1.609   0.949
 5075TIP3   OH215230   5.550   4.483   1.490
 5075TIP3    H115231   5.459   4.470   1.463
 5075TIP3    H215232   5.583   4.394   1.505
 5076TIP3   OH215233   0.978   3.390   1.190
 5076TIP3    H115234   1.028   3.382   1.271
 5076TIP3    H215235   1.043   3.404   1.122
 5077TIP3   OH215236   2.796   3.504   2.833
 5077TIP3    H115237   2.809   3.417   2.871
 5077TIP3    H215238   2.778   3.488   2.740
 5078TIP3   OH215239   0.521   5.038   2.817
 5078TIP3    H115240   0.448   4.978   2.834
 5078TIP3    H215241   0.542   5.025   2.724
 5079TIP3   OH215242   0.502   0.901   3.212
 5079TIP3    H115243   0.542   0.824   3.251
 5079TIP3    H215244   0.408   0.886   3.220
 5080TIP3   OH215245   1.351   1.509   4.709
 5080TIP3    H115246   1.444   1.497   4.690
 5080TIP3    H215247   1.316   1.554   4.632
 5081TIP3   OH215248   2.052   4.361   4.695
 5081TIP3    H115249   2.090   4.440   4.735
 5081TIP3    H215250   2.099   4.353   4.612
 5082TIP3   OH215251   2.683   5.793   4.766
 5082TIP3    H115252   2.602   5.783   4.816
 5082TIP3    H215253   2.751   5.801   4.833
 5083TIP3   OH215254   3.471   0.282   4.751
 5083TIP3    H115255   3.437   0.253   4.667
 5083TIP3    H215256   3.396   0.326   4.793
 5084TIP3   OH215257   0.522   0.786   0.630
 5084TIP3    H115258   0.442   0.836   0.612
 5084TIP3    H215259   0.526   0.782   0.726
 5085TIP3   OH215260   3.624   2.014   2.186
 5085TIP3    H115261   3.564   2.088   2.179
 5085TIP3    H215262   3.573   1.946   2.231
 5086TIP3   OH215263   3.225   1.402   4.976
 5086TIP3    H115264   3.148   1.411   5.031
 5086TIP3    H215265   3.207   1.457   4.900
 5087TIP3   OH215266   4.256   4.872   1.179
 5087TIP3    H115267   4.307   4.947   1.208
 5087TIP3    H215268   4.258   4.877   1.084
 5088TIP3   OH215269   3.554   3.769   3.581
 5088TIP3    H115270   3.523   3.686   3.618
 5088TIP3    H215271   3.646   3.775   3.607
 5089TIP3   OH215272   2.298   3.285   2.253
 5089TIP3    H115273   2.309   3.252   2.164
 5089TIP3    H215274   2.359   3.234   2.306
 5090TIP3   OH215275   5.185   2.246   4.935
 5090TIP3    H115276   5.153   2.232   5.024
 5090TIP3    H215277   5.125   2.313   4.899
 5091TIP3   OH215278   1.498   1.646   5.099
 5091TIP3    H115279   1.584   1.646   5.142
 5091TIP3    H215280   1.496   1.728   5.050
 5092TIP3   OH215281   5.324   4.462   1.339
 5092TIP3    H115282   5.236   4.489   1.366
 5092TIP3    H215283   5.310   4.381   1.289
 5093TIP3   OH215284   4.758   3.490   1.176
 5093TIP3    H115285   4.773   3.580   1.150
 5093TIP3    H215286   4.672   3.490   1.218
 5094TIP3   OH215287   2.519   3.544   2.301
 5094TIP3    H115288   2.518   3.485   2.225
 5094TIP3    H215289   2.590   3.511   2.356
 5095TIP3   OH215290   3.180   3.797   3.498
 5095TIP3    H115291   3.115   3.836   3.440
 5095TIP3    H215292   3.148   3.816   3.586
 5096TIP3   OH215293   1.887   5.489   2.024
 5096TIP3    H115294   1.869   5.575   2.062
 5096TIP3    H215295   1.930   5.509   1.941
 5097TIP3   OH215296   0.234   0.683   0.475
 5097TIP3    H115297   0.213   0.773   0.450
 5097TIP3    H215298   0.194   0.673   0.562
 5098TIP3   OH215299   0.173   1.731   2.519
 5098TIP3    H115300   0.111   1.701   2.585
 5098TIP3    H215301   0.252   1.679   2.535
 5099TIP3   OH215302   1.363   0.703   3.693
 5099TIP3    H115303   1.445   0.688   3.645
 5099TIP3    H215304   1.322   0.777   3.649
 5100TIP3   OH215305   3.904   3.683   0.084
 5100TIP3    H115306   3.981   3.627   0.095
 5100TIP3    H215307   3.905   3.707  -0.009
 5101TIP3   OH215308   4.636   1.208   1.819
 5101TIP3    H115309   4.603   1.130   1.773
 5101TIP3    H215310   4.731   1.204   1.807
 5102TIP3   OH215311   5.662   3.863   2.719
 5102TIP3    H115312   5.657   3.848   2.624
 5102TIP3    H215313   5.707   3.947   2.727
 5103TIP3   OH215314   2.694   3.285   3.247
 5103TIP3    H115315   2.601   3.303   3.251
 5103TIP3    H215316   2.731   3.330   3.323
 5104TIP3   OH215317   3.331   1.302   0.727
 5104TIP3    H115318   3.240   1.296   0.696
 5104TIP3    H215319   3.338   1.390   0.762
 5105TIP3   OH215320   1.323   4.196   0.089
 5105TIP3    H115321   1.227   4.201   0.094
 5105TIP3    H215322   1.347   4.256   0.019
 5106TIP3   OH215323   2.470   5.361   1.860
 5106TIP3    H115324   2.497   5.269   1.869
 5106TIP3    H215325   2.547   5.405   1.824
 5107TIP3   OH215326   0.387   2.668   0.498
 5107TIP3    H115327   0.423   2.731   0.560
 5107TIP3    H215328   0.435   2.587   0.517
 5108TIP3   OH215329   6.019   4.691   1.790
 5108TIP3    H115330   6.094   4.655   1.838
 5108TIP3    H215331   5.946   4.684   1.851
 5109TIP3   OH215332   2.891   0.118   3.152
 5109TIP3    H115333   2.809   0.119   3.101
 5109TIP3    H215334   2.949   0.177   3.105
 5110TIP3   OH215335   5.785   2.655   4.381
 5110TIP3    H115336   5.834   2.663   4.462
 5110TIP3    H215337   5.710   2.600   4.404
 5111TIP3   OH215338   4.040   2.322   1.191
 5111TIP3    H115339   4.087   2.395   1.151
 5111TIP3    H215340   3.948   2.341   1.175
 5112TIP3   OH215341   6.365   0.754   3.566
 5112TIP3    H115342   6.378   0.844   3.596
 5112TIP3    H215343   6.269   0.744   3.562
 5113TIP3   OH215344   5.995   5.435   3.071
 5113TIP3    H115345   5.994   5.509   3.131
 5113TIP3    H215346   5.985   5.358   3.127
 5114TIP3   OH215347   1.985   2.871   0.122
 5114TIP3    H115348   2.055   2.861   0.058
 5114TIP3    H215349   1.911   2.823   0.084
 5115TIP3   OH215350   1.448   5.839   4.984
 5115TIP3    H115351   1.433   5.919   4.932
 5115TIP3    H215352   1.449   5.769   4.919
 5116TIP3   OH215353   2.802   3.990   4.193
 5116TIP3    H115354   2.793   4.080   4.225
 5116TIP3    H215355   2.875   3.955   4.244
 5117TIP3   OH215356   2.226   4.582   2.485
 5117TIP3    H115357   2.227   4.674   2.457
 5117TIP3    H215358   2.247   4.533   2.406
 5118TIP3   OH215359   2.774   3.620   3.273
 5118TIP3    H115360   2.754   3.595   3.183
 5118TIP3    H215361   2.690   3.614   3.319
 5119TIP3   OH215362   4.460   0.850   2.415
 5119TIP3    H115363   4.431   0.783   2.352
 5119TIP3    H215364   4.549   0.822   2.440
 5120TIP3   OH215365   2.501   0.582   1.427
 5120TIP3    H115366   2.465   0.644   1.363
 5120TIP3    H215367   2.570   0.631   1.472
 5121TIP3   OH215368   1.000   4.275   2.753
 5121TIP3    H115369   0.927   4.228   2.795
 5121TIP3    H215370   0.961   4.320   2.678
 5122TIP3   OH215371   0.335   4.060   1.901
 5122TIP3    H115372   0.368   3.970   1.911
 5122TIP3    H215373   0.247   4.049   1.865
 5123TIP3   OH215374   4.800   4.772   3.049
 5123TIP3    H115375   4.890   4.775   3.080
 5123TIP3    H215376   4.754   4.837   3.103
 5124TIP3   OH215377   4.195   3.201   5.100
 5124TIP3    H115378   4.189   3.269   5.033
 5124TIP3    H215379   4.111   3.155   5.095
 5125TIP3   OH215380   2.578   2.444   4.829
 5125TIP3    H115381   2.552   2.356   4.854
 5125TIP3    H215382   2.626   2.433   4.747
 5126TIP3   OH215383   4.867   4.934   1.530
 5126TIP3    H115384   4.919   4.932   1.450
 5126TIP3    H215385   4.779   4.909   1.501
 5127TIP3   OH215386   5.647   1.689   1.492
 5127TIP3    H115387   5.668   1.710   1.583
 5127TIP3    H215388   5.615   1.771   1.455
 5128TIP3   OH215389   5.768   3.424   4.184
 5128TIP3    H115390   5.742   3.516   4.175
 5128TIP3    H215391   5.685   3.377   4.198
 5129TIP3   OH215392   6.107   1.978   1.022
 5129TIP3    H115393   6.158   2.049   0.984
 5129TIP3    H215394   6.104   1.911   0.954
 5130TIP3   OH215395   6.347   3.203   1.049
 5130TIP3    H115396   6.294   3.150   0.989
 5130TIP3    H215397   6.384   3.272   0.993
 5131TIP3   OH215398   2.207   2.235   1.165
 5131TIP3    H115399   2.119   2.265   1.191
 5131TIP3    H215400   2.192   2.182   1.087
 5132TIP3   OH215401   0.923   5.879   2.685
 5132TIP3    H115402   0.988   5.865   2.616
 5132TIP3    H215403   0.965   5.850   2.765
 5133TIP3   OH215404   6.036   5.167   0.762
 5133TIP3    H115405   6.116   5.204   0.801
 5133TIP3    H215406   5.967   5.189   0.825
 5134TIP3   OH215407   5.909   4.700   0.597
 5134TIP3    H115408   5.860   4.756   0.657
 5134TIP3    H215409   5.857   4.620   0.589
 5135TIP3   OH215410   3.911   4.950   4.403
 5135TIP3    H115411   3.956   4.917   4.481
 5135TIP3    H215412   3.946   4.897   4.332
 5136TIP3   OH215413   3.828   3.484   3.878
 5136TIP3    H115414   3.823   3.431   3.798
 5136TIP3    H215415   3.888   3.436   3.935
 5137TIP3   OH215416   1.251   1.312   4.082
 5137TIP3    H115417   1.205   1.229   4.075
 5137TIP3    H215418   1.328   1.302   4.026
 5138TIP3   OH215419   0.153   5.731   4.366
 5138TIP3    H115420   0.060   5.751   4.360
 5138TIP3    H215421   0.196   5.817   4.362
 5139TIP3   OH215422   1.566   2.492   3.576
 5139TIP3    H115423   1.646   2.541   3.590
 5139TIP3    H215424   1.551   2.447   3.660
 5140TIP3   OH215425   1.377   2.789   0.326
 5140TIP3    H115426   1.335   2.848   0.389
 5140TIP3    H215427   1.446   2.842   0.286
 5141TIP3   OH215428   4.039   4.076   0.501
 5141TIP3    H115429   4.031   3.980   0.496
 5141TIP3    H215430   4.074   4.092   0.589
 5142TIP3   OH215431   2.675   1.966   1.719
 5142TIP3    H115432   2.670   1.928   1.631
 5142TIP3    H215433   2.652   2.058   1.706
 5143TIP3   OH215434   4.227   5.897   3.906
 5143TIP3    H115435   4.146   5.946   3.893
 5143TIP3    H215436   4.244   5.857   3.820
 5144TIP3   OH215437   1.257   0.838   4.223
 5144TIP3    H115438   1.329   0.832   4.160
 5144TIP3    H215439   1.271   0.920   4.269
 5145TIP3   OH215440   1.656   1.237   1.680
 5145TIP3    H115441   1.617   1.256   1.594
 5145TIP3    H215442   1.719   1.167   1.663
 5146TIP3   OH215443   5.477   5.328   3.941
 5146TIP3    H115444   5.572   5.335   3.927
 5146TIP3    H215445   5.439   5.387   3.877
 5147TIP3   OH215446   4.789   2.009   2.629
 5147TIP3    H115447   4.765   1.952   2.702
 5147TIP3    H215448   4.765   1.960   2.551
 5148TIP3   OH215449   2.325   1.003   1.061
 5148TIP3    H115450   2.349   1.080   1.114
 5148TIP3    H215451   2.271   0.950   1.118
 5149TIP3   OH215452   5.345   3.859   2.202
 5149TIP3    H115453   5.423   3.863   2.257
 5149TIP3    H215454   5.327   3.765   2.194
 5150TIP3   OH215455   1.184   2.569   0.127
 5150TIP3    H115456   1.116   2.505   0.108
 5150TIP3    H215457   1.240   2.525   0.191
 5151TIP3   OH215458   4.180   5.184   2.422
 5151TIP3    H115459   4.160   5.231   2.503
 5151TIP3    H215460   4.260   5.225   2.389
 5152TIP3   OH215461   2.901   4.010   2.764
 5152TIP3    H115462   2.872   4.036   2.677
 5152TIP3    H215463   2.971   3.947   2.747
 5153TIP3   OH215464   4.308   2.075   3.579
 5153TIP3    H115465   4.273   2.122   3.655
 5153TIP3    H215466   4.244   2.089   3.510
 5154TIP3   OH215467   0.624   3.818   1.030
 5154TIP3    H115468   0.646   3.767   0.952
 5154TIP3    H215469   0.634   3.909   1.003
 5155TIP3   OH215470   1.037   4.682   3.060
 5155TIP3    H115471   1.051   4.607   3.001
 5155TIP3    H215472   1.124   4.700   3.097
 5156TIP3   OH215473   2.648   0.514   1.806
 5156TIP3    H115474   2.628   0.463   1.727
 5156TIP3    H215475   2.731   0.477   1.837
 5157TIP3   OH215476   2.865   2.968   3.819
 5157TIP3    H115477   2.877   2.993   3.911
 5157TIP3    H215478   2.843   2.875   3.822
 5158TIP3   OH215479   0.736   1.397   1.888
 5158TIP3    H115480   0.658   1.363   1.931
 5158TIP3    H215481   0.793   1.321   1.879
 5159TIP3   OH215482   0.980   0.047   1.896
 5159TIP3    H115483   0.966  -0.006   1.975
 5159TIP3    H215484   0.974   0.137   1.926
 5160TIP3   OH215485   5.656   1.771   4.018
 5160TIP3    H115486   5.618   1.697   4.065
 5160TIP3    H215487   5.622   1.762   3.928
 5161TIP3   OH215488   4.638   5.624   1.803
 5161TIP3    H115489   4.576   5.598   1.736
 5161TIP3    H215490   4.720   5.640   1.756
 5162TIP3   OH215491   1.061   3.472   0.534
 5162TIP3    H115492   1.136   3.420   0.504
 5162TIP3    H215493   1.085   3.498   0.623
 5163TIP3   OH215494   2.739   1.955   0.371
 5163TIP3    H115495   2.726   1.905   0.290
 5163TIP3    H215496   2.735   2.047   0.344
 5164TIP3   OH215497   2.665   5.431   4.155
 5164TIP3    H115498   2.746   5.417   4.106
 5164TIP3    H215499   2.655   5.526   4.158
 5165TIP3   OH215500   2.795   0.889   4.847
 5165TIP3    H115501   2.703   0.907   4.829
 5165TIP3    H215502   2.794   0.813   4.905
 5166TIP3   OH215503   2.813   0.771   0.793
 5166TIP3    H115504   2.847   0.683   0.777
 5166TIP3    H215505   2.885   0.829   0.766
 5167TIP3   OH215506   2.043   5.316   3.610
 5167TIP3    H115507   2.022   5.385   3.673
 5167TIP3    H215508   1.965   5.261   3.608
 5168TIP3   OH215509   3.298   2.813   0.201
 5168TIP3    H115510   3.264   2.861   0.276
 5168TIP3    H215511   3.220   2.782   0.155
 5169TIP3   OH215512   2.371   3.870   0.155
 5169TIP3    H115513   2.459   3.889   0.187
 5169TIP3    H215514   2.380   3.861   0.061
 5170TIP3   OH215515   0.223   1.919   3.080
 5170TIP3    H115516   0.162   1.983   3.117
 5170TIP3    H215517   0.275   1.889   3.156
 5171TIP3   OH215518   3.615   2.380   3.473
 5171TIP3    H115519   3.587   2.358   3.384
 5171TIP3    H215520   3.562   2.456   3.497
 5172TIP3   OH215521   1.997   4.912   3.602
 5172TIP3    H115522   2.052   4.955   3.668
 5172TIP3    H215523   1.923   4.879   3.652
 5173TIP3   OH215524   0.329   1.589   1.337
 5173TIP3    H115525   0.303   1.553   1.252
 5173TIP3    H215526   0.410   1.543   1.359
 5174TIP3   OH215527   2.286   4.402   3.970
 5174TIP3    H115528   2.199   4.430   3.943
 5174TIP3    H215529   2.273   4.366   4.058
 5175TIP3   OH215530   0.778   3.906   3.302
 5175TIP3    H115531   0.868   3.884   3.323
 5175TIP3    H215532   0.733   3.822   3.296
 5176TIP3   OH215533   3.267   5.039   2.779
 5176TIP3    H115534   3.175   5.012   2.783
 5176TIP3    H215535   3.302   5.017   2.866
 5177TIP3   OH215536   6.176   5.200   2.063
 5177TIP3    H115537   6.155   5.230   1.974
 5177TIP3    H215538   6.123   5.122   2.075
 5178TIP3   OH215539   3.613   3.409   2.983
 5178TIP3    H115540   3.646   3.460   2.909
 5178TIP3    H215541   3.578   3.474   3.044
 5179TIP3   OH215542   1.544   0.242   1.659
 5179TIP3    H115543   1.461   0.194   1.668
 5179TIP3    H215544   1.518   0.326   1.621
 5180TIP3   OH215545   2.620   3.059   0.553
 5180TIP3    H115546   2.633   3.007   0.473
 5180TIP3    H215547   2.555   3.125   0.529
 5181TIP3   OH215548   5.577   5.846   4.404
 5181TIP3    H115549   5.638   5.855   4.477
 5181TIP3    H215550   5.551   5.936   4.383
 5182TIP3   OH215551   3.875   2.038   1.884
 5182TIP3    H115552   3.782   2.025   1.866
 5182TIP3    H215553   3.920   1.974   1.829
 5183TIP3   OH215554   3.249   3.074   0.068
 5183TIP3    H115555   3.159   3.103   0.081
 5183TIP3    H215556   3.293   3.091   0.151
 5184TIP3   OH215557   4.813   3.762   3.468
 5184TIP3    H115558   4.757   3.763   3.391
 5184TIP3    H215559   4.893   3.717   3.439
 5185TIP3   OH215560   2.262   5.244   1.043
 5185TIP3    H115561   2.351   5.210   1.043
 5185TIP3    H215562   2.215   5.187   0.981
 5186TIP3   OH215563   3.944   3.416   2.809
 5186TIP3    H115564   3.923   3.509   2.800
 5186TIP3    H215565   3.891   3.373   2.742
 5187TIP3   OH215566   2.533   2.637   3.080
 5187TIP3    H115567   2.578   2.603   3.157
 5187TIP3    H215568   2.575   2.722   3.064
 5188TIP3   OH215569   5.399   0.621   0.867
 5188TIP3    H115570   5.422   0.648   0.778
 5188TIP3    H215571   5.472   0.565   0.894
 5189TIP3   OH215572   6.167   2.688   3.225
 5189TIP3    H115573   6.146   2.764   3.279
 5189TIP3    H215574   6.237   2.643   3.271
 5190TIP3   OH215575   1.731   1.067   0.388
 5190TIP3    H115576   1.682   1.131   0.336
 5190TIP3    H215577   1.674   0.991   0.392
 5191TIP3   OH215578   3.742   3.872   3.981
 5191TIP3    H115579   3.696   3.788   3.988
 5191TIP3    H215580   3.825   3.851   3.938
 5192TIP3   OH215581   2.911   0.793   1.410
 5192TIP3    H115582   2.846   0.769   1.477
 5192TIP3    H215583   2.872   0.764   1.328
 5193TIP3   OH215584   2.643   4.322   0.848
 5193TIP3    H115585   2.664   4.263   0.920
 5193TIP3    H215586   2.724   4.330   0.799
 5194TIP3   OH215587   5.867   3.574   5.012
 5194TIP3    H115588   5.954   3.592   5.048
 5194TIP3    H215589   5.819   3.657   5.021
 5195TIP3   OH215590   2.808   4.713   5.056
 5195TIP3    H115591   2.858   4.639   5.022
 5195TIP3    H215592   2.811   4.703   5.151
 5196TIP3   OH215593   4.880   4.106   4.083
 5196TIP3    H115594   4.943   4.035   4.095
 5196TIP3    H215595   4.795   4.062   4.080
 5197TIP3   OH215596   4.424   3.180   0.735
 5197TIP3    H115597   4.422   3.174   0.830
 5197TIP3    H215598   4.488   3.249   0.716
 5198TIP3   OH215599   5.510   3.976   3.190
 5198TIP3    H115600   5.474   3.953   3.104
 5198TIP3    H215601   5.603   3.991   3.173
 5199TIP3   OH215602   4.303   4.155   1.382
 5199TIP3    H115603   4.333   4.156   1.292
 5199TIP3    H215604   4.374   4.111   1.430
 5200TIP3   OH215605   1.264   2.534   4.032
 5200TIP3    H115606   1.282   2.462   3.972
 5200TIP3    H215607   1.176   2.516   4.065
 5201TIP3   OH215608   2.035   5.750   3.866
 5201TIP3    H115609   2.108   5.783   3.918
 5201TIP3    H215610   1.964   5.811   3.883
 5202TIP3   OH215611   6.254   4.568   1.393
 5202TIP3    H115612   6.166   4.569   1.431
 5202TIP3    H215613   6.312   4.586   1.467
 5203TIP3   OH215614   0.339   4.138   0.401
 5203TIP3    H115615   0.260   4.193   0.405
 5203TIP3    H215616   0.409   4.198   0.376
 5204TIP3   OH215617   5.173   0.093   3.958
 5204TIP3    H115618   5.141   0.174   3.920
 5204TIP3    H215619   5.248   0.069   3.903
 5205TIP3   OH215620   3.563   1.658   1.501
 5205TIP3    H115621   3.628   1.658   1.431
 5205TIP3    H215622   3.613   1.647   1.581
 5206TIP3   OH215623   4.000   5.116   4.087
 5206TIP3    H115624   3.953   5.144   4.166
 5206TIP3    H215625   4.074   5.064   4.121
 5207TIP3   OH215626   1.553   4.607   3.887
 5207TIP3    H115627   1.623   4.542   3.890
 5207TIP3    H215628   1.571   4.665   3.961
 5208TIP3   OH215629   4.934   2.576   0.842
 5208TIP3    H115630   4.889   2.656   0.869
 5208TIP3    H215631   5.024   2.605   0.824
 5209TIP3   OH215632   0.340   1.870   0.334
 5209TIP3    H115633   0.385   1.791   0.365
 5209TIP3    H215634   0.387   1.894   0.254
 5210TIP3   OH215635   3.553   5.137   3.868
 5210TIP3    H115636   3.500   5.089   3.805
 5210TIP3    H215637   3.505   5.130   3.951
 5211TIP3   OH215638   3.646   5.771   1.614
 5211TIP3    H115639   3.739   5.790   1.619
 5211TIP3    H215640   3.604   5.857   1.608
 5212TIP3   OH215641   4.477   4.808   0.026
 5212TIP3    H115642   4.474   4.839  -0.064
 5212TIP3    H215643   4.385   4.799   0.051
 5213TIP3   OH215644   4.552   3.558   4.279
 5213TIP3    H115645   4.540   3.480   4.332
 5213TIP3    H215646   4.630   3.600   4.315
 5214TIP3   OH215647   0.606   1.300   2.243
 5214TIP3    H115648   0.561   1.283   2.326
 5214TIP3    H215649   0.536   1.314   2.180
 5215TIP3   OH215650   5.630   5.020   4.997
 5215TIP3    H115651   5.711   4.982   4.964
 5215TIP3    H215652   5.658   5.086   5.061
 5216TIP3   OH215653   4.900   5.573   0.371
 5216TIP3    H115654   4.845   5.649   0.353
 5216TIP3    H215655   4.890   5.517   0.294
 5217TIP3   OH215656   1.794   0.004   2.573
 5217TIP3    H115657   1.727   0.042   2.517
 5217TIP3    H215658   1.876   0.022   2.527
 5218TIP3   OH215659   4.744   1.335   2.887
 5218TIP3    H115660   4.653   1.339   2.916
 5218TIP3    H215661   4.767   1.425   2.866
 5219TIP3   OH215662   1.097   2.516   4.784
 5219TIP3    H115663   1.170   2.469   4.745
 5219TIP3    H215664   1.020   2.461   4.766
 5220TIP3   OH215665   3.981   2.639   0.417
 5220TIP3    H115666   4.063   2.654   0.369
 5220TIP3    H215667   3.969   2.718   0.470
 5221TIP3   OH215668   1.487   5.638   3.900
 5221TIP3    H115669   1.529   5.553   3.908
 5221TIP3    H215670   1.558   5.699   3.880
 5222TIP3   OH215671   1.791   4.602   2.393
 5222TIP3    H115672   1.840   4.561   2.321
 5222TIP3    H215673   1.702   4.568   2.383
 5223TIP3   OH215674   3.540   4.386   3.780
 5223TIP3    H115675   3.459   4.348   3.747
 5223TIP3    H215676   3.607   4.321   3.760
 5224TIP3   OH215677   0.024   5.554   5.182
 5224TIP3    H115678   0.044   5.589   5.095
 5224TIP3    H215679  -0.048   5.608   5.213
 5225TIP3   OH215680   5.027   2.955   0.994
 5225TIP3    H115681   4.994   3.045   0.991
 5225TIP3    H215682   5.044   2.939   1.087
 5226TIP3   OH215683   3.380   3.287   2.872
 5226TIP3    H115684   3.454   3.310   2.928
 5226TIP3    H215685   3.336   3.215   2.918
 5227TIP3   OH215686   5.592   1.891   1.224
 5227TIP3    H115687   5.644   1.951   1.278
 5227TIP3    H215688   5.509   1.937   1.212
 5228TIP3   OH215689   3.163   5.641   3.478
 5228TIP3    H115690   3.083   5.635   3.427
 5228TIP3    H215691   3.216   5.567   3.448
 5229TIP3   OH215692   0.273   5.804   2.207
 5229TIP3    H115693   0.209   5.865   2.171
 5229TIP3    H215694   0.344   5.804   2.143
 5230TIP3   OH215695   5.701   1.081   5.005
 5230TIP3    H115696   5.618   1.118   4.974
 5230TIP3    H215697   5.754   1.071   4.925
 5231TIP3   OH215698   1.258   5.662   4.108
 5231TIP3    H115699   1.324   5.665   4.039
 5231TIP3    H215700   1.192   5.726   4.080
 5232TIP3   OH215701   4.899   0.516   3.550
 5232TIP3    H115702   4.978   0.478   3.512
 5232TIP3    H215703   4.906   0.499   3.644
 5233TIP3   OH215704   5.923   2.497   4.824
 5233TIP3    H115705   5.836   2.469   4.799
 5233TIP3    H215706   5.944   2.568   4.763
 5234TIP3   OH215707   2.133   4.548   1.343
 5234TIP3    H115708   2.195   4.554   1.270
 5234TIP3    H215709   2.050   4.523   1.302
 5235TIP3   OH215710   4.247   0.961   1.796
 5235TIP3    H115711   4.178   0.946   1.731
 5235TIP3    H215712   4.237   1.053   1.821
 5236TIP3   OH215713   4.615   4.809   2.320
 5236TIP3    H115714   4.684   4.743   2.325
 5236TIP3    H215715   4.573   4.795   2.235
 5237TIP3   OH215716   0.317   1.386   1.132
 5237TIP3    H115717   0.226   1.358   1.139
 5237TIP3    H215718   0.358   1.321   1.075
 5238TIP3   OH215719   6.029   4.539   1.515
 5238TIP3    H115720   5.973   4.614   1.530
 5238TIP3    H215721   6.011   4.480   1.588
 5239TIP3   OH215722   1.440   3.042   0.621
 5239TIP3    H115723   1.446   3.079   0.533
 5239TIP3    H215724   1.509   2.976   0.624
 5240TIP3   OH215725   4.567   2.391   2.400
 5240TIP3    H115726   4.647   2.412   2.350
 5240TIP3    H215727   4.532   2.313   2.356
 5241TIP3   OH215728   5.600   0.046   3.179
 5241TIP3    H115729   5.672   0.052   3.242
 5241TIP3    H215730   5.537  -0.012   3.221
 5242TIP3   OH215731   2.427   5.386   2.515
 5242TIP3    H115732   2.421   5.478   2.488
 5242TIP3    H215733   2.374   5.339   2.451
 5243TIP3   OH215734   4.151   5.454   3.563
 5243TIP3    H115735   4.246   5.449   3.550
 5243TIP3    H215736   4.133   5.391   3.633
 5244TIP3   OH215737   3.347   4.000   0.808
 5244TIP3    H115738   3.394   4.017   0.889
 5244TIP3    H215739   3.403   3.939   0.760
 5245TIP3   OH215740   0.974   4.522   1.050
 5245TIP3    H115741   0.917   4.481   1.115
 5245TIP3    H215742   0.914   4.548   0.979
 5246TIP3   OH215743   1.647   0.826   1.961
 5246TIP3    H115744   1.593   0.749   1.977
 5246TIP3    H215745   1.726   0.811   2.012
 5247TIP3   OH215746   1.516   3.901   2.395
 5247TIP3    H115747   1.554   3.946   2.470
 5247TIP3    H215748   1.586   3.844   2.362
 5248TIP3   OH215749   4.735   0.822   3.190
 5248TIP3    H115750   4.779   0.818   3.275
 5248TIP3    H215751   4.643   0.833   3.212
 5249TIP3   OH215752   3.454   3.815   0.241
 5249TIP3    H115753   3.390   3.858   0.184
 5249TIP3    H215754   3.416   3.820   0.328
 5250TIP3   OH215755   5.231   5.699   4.199
 5250TIP3    H115756   5.282   5.780   4.198
 5250TIP3    H215757   5.188   5.697   4.114
 5251TIP3   OH215758   2.725   4.952   4.659
 5251TIP3    H115759   2.811   4.953   4.700
 5251TIP3    H215760   2.691   5.040   4.672
 5252TIP3   OH215761   2.895   5.986   0.729
 5252TIP3    H115762   2.813   5.957   0.768
 5252TIP3    H215763   2.891   5.956   0.638
 5253TIP3   OH215764   4.310   1.006   4.165
 5253TIP3    H115765   4.273   0.923   4.136
 5253TIP3    H215766   4.400   1.006   4.130
 5254TIP3   OH215767   4.478   4.729   4.352
 5254TIP3    H115768   4.446   4.813   4.384
 5254TIP3    H215769   4.531   4.752   4.275
 5255TIP3   OH215770   1.969   5.273   0.154
 5255TIP3    H115771   1.902   5.217   0.114
 5255TIP3    H215772   2.041   5.271   0.091
 5256TIP3   OH215773   3.619   2.444   0.236
 5256TIP3    H115774   3.566   2.522   0.255
 5256TIP3    H215775   3.631   2.402   0.321
 5257TIP3   OH215776   1.334   0.029   3.382
 5257TIP3    H115777   1.249   0.018   3.424
 5257TIP3    H215778   1.317   0.011   3.289
 5258TIP3   OH215779   3.092   5.216   0.729
 5258TIP3    H115780   3.142   5.141   0.760
 5258TIP3    H215781   3.017   5.222   0.790
 5259TIP3   OH215782   4.142   1.259   4.937
 5259TIP3    H115783   4.190   1.255   4.855
 5259TIP3    H215784   4.053   1.282   4.912
 5260TIP3   OH215785   0.700   4.696   2.752
 5260TIP3    H115786   0.637   4.692   2.679
 5260TIP3    H215787   0.702   4.607   2.787
 5261TIP3   OH215788   3.347   5.010   1.315
 5261TIP3    H115789   3.259   5.040   1.294
 5261TIP3    H215790   3.368   5.051   1.399
 5262TIP3   OH215791   2.288   4.265   1.166
 5262TIP3    H115792   2.381   4.245   1.159
 5262TIP3    H215793   2.244   4.184   1.140
 5263TIP3   OH215794   2.983   0.570   2.576
 5263TIP3    H115795   2.941   0.578   2.661
 5263TIP3    H215796   3.053   0.636   2.577
 5264TIP3   OH215797   1.542   0.374   2.140
 5264TIP3    H115798   1.597   0.310   2.185
 5264TIP3    H215799   1.570   0.458   2.175
 5265TIP3   OH215800   1.144   2.483   3.425
 5265TIP3    H115801   1.140   2.548   3.355
 5265TIP3    H215802   1.182   2.530   3.499
 5266TIP3   OH215803   1.979   4.917   0.193
 5266TIP3    H115804   1.962   4.878   0.108
 5266TIP3    H215805   2.034   4.994   0.174
 5267TIP3   OH215806   1.435   3.496   3.859
 5267TIP3    H115807   1.380   3.488   3.781
 5267TIP3    H215808   1.432   3.410   3.900
 5268TIP3   OH215809   1.443   2.293   4.172
 5268TIP3    H115810   1.425   2.249   4.255
 5268TIP3    H215811   1.372   2.265   4.114
 5269TIP3   OH215812   4.144   3.335   2.603
 5269TIP3    H115813   4.053   3.352   2.624
 5269TIP3    H215814   4.167   3.403   2.540
 5270TIP3   OH215815   2.331   0.582   1.155
 5270TIP3    H115816   2.269   0.601   1.084
 5270TIP3    H215817   2.330   0.486   1.162
 5271TIP3   OH215818   2.633   2.911   5.069
 5271TIP3    H115819   2.715   2.890   5.115
 5271TIP3    H215820   2.615   2.833   5.018
 5272TIP3   OH215821   3.850   2.944   1.323
 5272TIP3    H115822   3.874   2.874   1.262
 5272TIP3    H215823   3.885   3.024   1.284
 5273TIP3   OH215824   1.964   3.845   1.272
 5273TIP3    H115825   1.885   3.893   1.295
 5273TIP3    H215826   2.034   3.891   1.318
 5274TIP3   OH215827   1.906   1.375   4.067
 5274TIP3    H115828   1.865   1.305   4.016
 5274TIP3    H215829   1.843   1.447   4.064
 5275TIP3   OH215830   0.324   4.632   3.233
 5275TIP3    H115831   0.395   4.697   3.233
 5275TIP3    H215832   0.244   4.683   3.240
 5276TIP3   OH215833   1.853   3.981   0.436
 5276TIP3    H115834   1.868   3.923   0.362
 5276TIP3    H215835   1.802   3.929   0.498
 5277TIP3   OH215836   4.221   5.849   0.804
 5277TIP3    H115837   4.266   5.795   0.738
 5277TIP3    H215838   4.184   5.786   0.865
 5278TIP3   OH215839   4.277   1.498   3.167
 5278TIP3    H115840   4.227   1.523   3.089
 5278TIP3    H215841   4.281   1.577   3.220
 5279TIP3   OH215842   0.452   0.785   1.719
 5279TIP3    H115843   0.396   0.854   1.684
 5279TIP3    H215844   0.517   0.769   1.650
 5280TIP3   OH215845   4.948   3.952   0.049
 5280TIP3    H115846   4.865   3.915   0.019
 5280TIP3    H215847   5.009   3.935  -0.023
 5281TIP3   OH215848   4.744   3.755   1.622
 5281TIP3    H115849   4.658   3.716   1.635
 5281TIP3    H215850   4.806   3.685   1.643
 5282TIP3   OH215851   1.785   4.133   3.945
 5282TIP3    H115852   1.827   4.082   4.014
 5282TIP3    H215853   1.826   4.102   3.864
 5283TIP3   OH215854   4.810   5.383   0.215
 5283TIP3    H115855   4.870   5.345   0.152
 5283TIP3    H215856   4.732   5.327   0.212
 5284TIP3   OH215857   4.776   3.660   4.392
 5284TIP3    H115858   4.842   3.591   4.388
 5284TIP3    H215859   4.761   3.673   4.485
 5285TIP3   OH215860   3.845   5.025   0.547
 5285TIP3    H115861   3.906   5.073   0.491
 5285TIP3    H215862   3.828   5.085   0.620
 5286TIP3   OH215863   2.316   4.163   0.477
 5286TIP3    H115864   2.314   4.206   0.563
 5286TIP3    H215865   2.387   4.099   0.483
 5287TIP3   OH215866   1.375   0.815   0.746
 5287TIP3    H115867   1.368   0.910   0.754
 5287TIP3    H215868   1.385   0.799   0.652
 5288TIP3   OH215869   4.319   3.609   4.683
 5288TIP3    H115870   4.252   3.613   4.751
 5288TIP3    H215871   4.297   3.679   4.622
 5289TIP3   OH215872   3.466   5.320   4.837
 5289TIP3    H115873   3.418   5.296   4.916
 5289TIP3    H215874   3.553   5.345   4.868
 5290TIP3   OH215875   1.578   3.075   4.579
 5290TIP3    H115876   1.567   3.093   4.485
 5290TIP3    H215877   1.653   3.015   4.582
 5291TIP3   OH215878   5.413   2.725   2.570
 5291TIP3    H115879   5.472   2.681   2.631
 5291TIP3    H215880   5.436   2.691   2.484
 5292TIP3   OH215881   3.312   1.181   1.540
 5292TIP3    H115882   3.331   1.269   1.573
 5292TIP3    H215883   3.270   1.196   1.456
 5293TIP3   OH215884   3.023   1.412   2.724
 5293TIP3    H115885   2.943   1.440   2.769
 5293TIP3    H215886   2.996   1.401   2.632
 5294TIP3   OH215887   2.623   3.189   2.587
 5294TIP3    H115888   2.678   3.265   2.566
 5294TIP3    H215889   2.571   3.217   2.662
 5295TIP3   OH215890   2.417   4.082   4.189
 5295TIP3    H115891   2.448   4.081   4.279
 5295TIP3    H215892   2.341   4.140   4.190
 5296TIP3   OH215893   0.143   2.016   3.462
 5296TIP3    H115894   0.061   1.971   3.440
 5296TIP3    H215895   0.204   1.946   3.485
 5297TIP3   OH215896   3.552   3.131   4.958
 5297TIP3    H115897   3.639   3.095   4.939
 5297TIP3    H215898   3.566   3.190   5.033
 5298TIP3   OH215899   3.666   4.785   3.265
 5298TIP3    H115900   3.634   4.706   3.307
 5298TIP3    H215901   3.587   4.829   3.233
 5299TIP3   OH215902   5.203   5.217   2.779
 5299TIP3    H115903   5.255   5.150   2.735
 5299TIP3    H215904   5.127   5.169   2.813
 5300TIP3   OH215905   4.646   0.080   0.155
 5300TIP3    H115906   4.683  -0.008   0.145
 5300TIP3    H215907   4.578   0.084   0.088
 5301TIP3   OH215908   0.514   2.224   1.164
 5301TIP3    H115909   0.431   2.271   1.169
 5301TIP3    H215910   0.515   2.185   1.076
 5302TIP3   OH215911   0.229   0.206   1.239
 5302TIP3    H115912   0.224   0.301   1.241
 5302TIP3    H215913   0.261   0.186   1.151
 5303TIP3   OH215914   3.533   3.854   4.140
 5303TIP3    H115915   3.506   3.763   4.130
 5303TIP3    H215916   3.609   3.863   4.082
 5304TIP3   OH215917   4.737   1.591   2.777
 5304TIP3    H115918   4.707   1.594   2.686
 5304TIP3    H215919   4.706   1.673   2.815
 5305TIP3   OH215920   4.651   5.107   2.120
 5305TIP3    H115921   4.621   5.194   2.149
 5305TIP3    H215922   4.702   5.074   2.194
 5306TIP3   OH215923   3.020   2.977   3.465
 5306TIP3    H115924   3.053   3.067   3.462
 5306TIP3    H215925   2.975   2.970   3.549
 5307TIP3   OH215926   1.436   0.512   0.563
 5307TIP3    H115927   1.462   0.468   0.644
 5307TIP3    H215928   1.345   0.537   0.578
 5308TIP3   OH215929   5.653   1.110   3.124
 5308TIP3    H115930   5.727   1.161   3.157
 5308TIP3    H215931   5.634   1.149   3.038
 5309TIP3   OH215932   4.172   5.080   1.875
 5309TIP3    H115933   4.165   5.101   1.782
 5309TIP3    H215934   4.230   5.148   1.910
 5310TIP3   OH215935   5.291   1.701   4.745
 5310TIP3    H115936   5.329   1.615   4.760
 5310TIP3    H215937   5.202   1.683   4.714
 5311TIP3   OH215938   2.396   2.139   1.391
 5311TIP3    H115939   2.431   2.190   1.465
 5311TIP3    H215940   2.308   2.173   1.379
 5312TIP3   OH215941   2.280   5.827   4.021
 5312TIP3    H115942   2.375   5.820   4.018
 5312TIP3    H215943   2.263   5.921   4.027
 5313TIP3   OH215944   0.083   2.643   1.603
 5313TIP3    H115945   0.173   2.670   1.584
 5313TIP3    H215946   0.031   2.683   1.533
 5314TIP3   OH215947   3.927   4.688   1.023
 5314TIP3    H115948   3.915   4.636   0.944
 5314TIP3    H215949   3.987   4.636   1.077
 5315TIP3   OH215950   5.820   0.504   3.149
 5315TIP3    H115951   5.880   0.431   3.161
 5315TIP3    H215952   5.765   0.503   3.228
 5316TIP3   OH215953   2.384   3.104   3.912
 5316TIP3    H115954   2.416   3.188   3.879
 5316TIP3    H215955   2.370   3.119   4.005
 5317TIP3   OH215956   0.110   2.094   4.921
 5317TIP3    H115957   0.020   2.099   4.953
 5317TIP3    H215958   0.114   2.011   4.874
 5318TIP3   OH215959   2.114   1.363   2.687
 5318TIP3    H115960   2.149   1.372   2.598
 5318TIP3    H215961   2.120   1.270   2.706
 5319TIP3   OH215962   4.011   3.850   3.062
 5319TIP3    H115963   4.080   3.817   3.119
 5319TIP3    H215964   3.970   3.771   3.025
 5320TIP3   OH215965   4.010   4.368   3.721
 5320TIP3    H115966   4.091   4.318   3.712
 5320TIP3    H215967   4.020   4.415   3.803
 5321TIP3   OH215968   1.455   4.512   1.137
 5321TIP3    H115969   1.441   4.598   1.097
 5321TIP3    H215970   1.371   4.491   1.179
 5322TIP3   OH215971   1.296   2.228   5.005
 5322TIP3    H115972   1.374   2.274   4.974
 5322TIP3    H215973   1.291   2.150   4.950
 5323TIP3   OH215974   4.713   0.107   4.064
 5323TIP3    H115975   4.678   0.019   4.049
 5323TIP3    H215976   4.741   0.136   3.977
 5324TIP3   OH215977   5.191   4.259   3.763
 5324TIP3    H115978   5.256   4.220   3.822
 5324TIP3    H215979   5.189   4.201   3.687
 5325TIP3   OH215980   3.045   3.589   2.086
 5325TIP3    H115981   3.054   3.684   2.098
 5325TIP3    H215982   3.125   3.552   2.122
 5326TIP3   OH215983   3.646   2.399   3.751
 5326TIP3    H115984   3.663   2.493   3.753
 5326TIP3    H215985   3.656   2.375   3.658
 5327TIP3   OH215986   1.395   1.909   0.912
 5327TIP3    H115987   1.476   1.901   0.962
 5327TIP3    H215988   1.382   1.823   0.872
 5328TIP3   OH215989   3.010   1.831   2.114
 5328TIP3    H115990   3.062   1.831   2.194
 5328TIP3    H215991   2.967   1.917   2.114
 5329TIP3   OH215992   3.661   3.110   2.611
 5329TIP3    H115993   3.689   3.089   2.522
 5329TIP3    H215994   3.603   3.186   2.601
 5330TIP3   OH215995   4.404   1.830   2.975
 5330TIP3    H115996   4.482   1.815   3.027
 5330TIP3    H215997   4.378   1.920   2.995
 5331TIP3   OH215998   2.463   5.814   5.078
 5331TIP3    H115999   2.411   5.780   5.152
 5331TIP3    H216000   2.480   5.736   5.024
 5332TIP3   OH216001   0.375   2.555   1.530
 5332TIP3    H116002   0.411   2.643   1.518
 5332TIP3    H216003   0.445   2.497   1.503
 5333TIP3   OH216004   2.767   0.651   4.318
 5333TIP3    H116005   2.861   0.634   4.306
 5333TIP3    H216006   2.762   0.744   4.339
 5334TIP3   OH216007   3.501   1.771   2.255
 5334TIP3    H116008   3.448   1.807   2.327
 5334TIP3    H216009   3.451   1.696   2.224
 5335TIP3   OH216010   2.049   5.551   1.443
 5335TIP3    H116011   2.124   5.547   1.502
 5335TIP3    H216012   1.976   5.516   1.495
 5336TIP3   OH216013   2.604   5.659   0.744
 5336TIP3    H116014   2.524   5.610   0.763
 5336TIP3    H216015   2.613   5.720   0.817
 5337TIP3   OH216016   2.047   1.535   1.315
 5337TIP3    H116017   1.989   1.458   1.316
 5337TIP3    H216018   2.039   1.572   1.403
 5338TIP3   OH216019   3.793   0.284   3.811
 5338TIP3    H116020   3.847   0.292   3.890
 5338TIP3    H216021   3.706   0.260   3.843
 5339TIP3   OH216022   4.725   4.981   3.723
 5339TIP3    H116023   4.761   5.013   3.640
 5339TIP3    H216024   4.718   4.887   3.711
 5340TIP3   OH216025   2.531   5.627   3.820
 5340TIP3    H116026   2.462   5.564   3.841
 5340TIP3    H216027   2.612   5.576   3.822
 5341TIP3   OH216028   1.063   0.136   3.310
 5341TIP3    H116029   0.993   0.202   3.312
 5341TIP3    H216030   1.107   0.150   3.227
 5342TIP3   OH216031   3.220   4.228   3.937
 5342TIP3    H116032   3.155   4.292   3.907
 5342TIP3    H216033   3.169   4.153   3.967
 5343TIP3   OH216034   6.286   0.784   4.323
 5343TIP3    H116035   6.288   0.758   4.231
 5343TIP3    H216036   6.218   0.730   4.362
 5344TIP3   OH216037   2.605   5.769   0.489
 5344TIP3    H116038   2.622   5.730   0.575
 5344TIP3    H216039   2.683   5.821   0.470
 5345TIP3   OH216040   4.739   4.176   4.712
 5345TIP3    H116041   4.709   4.204   4.626
 5345TIP3    H216042   4.661   4.179   4.768
 5346TIP3   OH216043   0.928   5.659   2.207
 5346TIP3    H116044   0.915   5.735   2.151
 5346TIP3    H216045   0.858   5.599   2.183
 5347TIP3   OH216046   0.540   4.642   4.387
 5347TIP3    H116047   0.523   4.669   4.477
 5347TIP3    H216048   0.629   4.675   4.368
 5348TIP3   OH216049   2.243   4.718   0.103
 5348TIP3    H116050   2.236   4.743   0.196
 5348TIP3    H216051   2.172   4.654   0.090
 5349TIP3   OH216052   1.240   2.041   3.361
 5349TIP3    H116053   1.283   1.956   3.365
 5349TIP3    H216054   1.211   2.050   3.270
 5350TIP3   OH216055   5.288   0.072   0.606
 5350TIP3    H116056   5.345   0.113   0.671
 5350TIP3    H216057   5.201   0.074   0.646
 5351TIP3   OH216058   2.203   2.309   4.695
 5351TIP3    H116059   2.184   2.298   4.788
 5351TIP3    H216060   2.214   2.403   4.683
 5352TIP3   OH216061   4.027   3.595   4.128
 5352TIP3    H116062   4.118   3.623   4.122
 5352TIP3    H216063   3.990   3.619   4.042
 5353TIP3   OH216064   4.854   5.100   3.190
 5353TIP3    H116065   4.835   5.188   3.223
 5353TIP3    H216066   4.792   5.044   3.236
 5354TIP3   OH216067   4.794   1.835   2.396
 5354TIP3    H116068   4.710   1.817   2.353
 5354TIP3    H216069   4.808   1.758   2.452
 5355TIP3   OH216070   1.215   5.920   4.382
 5355TIP3    H116071   1.255   5.929   4.296
 5355TIP3    H216072   1.272   5.857   4.428
 5356TIP3   OH216073   2.778   3.370   3.499
 5356TIP3    H116074   2.853   3.312   3.514
 5356TIP3    H216075   2.805   3.454   3.534
 5357TIP3   OH216076   0.599   5.457   4.835
 5357TIP3    H116077   0.656   5.400   4.783
 5357TIP3    H216078   0.537   5.493   4.772
 5358TIP3   OH216079   2.441   0.892   2.439
 5358TIP3    H116080   2.436   0.815   2.382
 5358TIP3    H216081   2.410   0.861   2.524
 5359TIP3   OH216082   4.695   4.059   1.882
 5359TIP3    H116083   4.600   4.066   1.885
 5359TIP3    H216084   4.726   4.122   1.947
 5360TIP3   OH216085   4.385   2.412   0.200
 5360TIP3    H116086   4.324   2.444   0.134
 5360TIP3    H216087   4.424   2.334   0.160
 5361TIP3   OH216088   1.530   0.156   0.615
 5361TIP3    H116089   1.568   0.087   0.670
 5361TIP3    H216090   1.545   0.127   0.525
 5362TIP3   OH216091   4.691   1.644   1.188
 5362TIP3    H116092   4.746   1.710   1.229
 5362TIP3    H216093   4.746   1.567   1.180
 5363TIP3   OH216094   3.223   4.460   1.612
 5363TIP3    H116095   3.216   4.515   1.689
 5363TIP3    H216096   3.203   4.519   1.539
 5364TIP3   OH216097   4.465   3.841   3.171
 5364TIP3    H116098   4.434   3.795   3.248
 5364TIP3    H216099   4.561   3.838   3.178
 5365TIP3   OH216100   2.252   5.967   2.719
 5365TIP3    H116101   2.170   5.971   2.767
 5365TIP3    H216102   2.319   5.955   2.786
 5366TIP3   OH216103   3.886   0.238   3.542
 5366TIP3    H116104   3.976   0.214   3.520
 5366TIP3    H216105   3.885   0.243   3.638
 5367TIP3   OH216106   1.810   1.791   1.806
 5367TIP3    H116107   1.772   1.793   1.894
 5367TIP3    H216108   1.826   1.698   1.790
 5368TIP3   OH216109   4.235   5.619   0.641
 5368TIP3    H116110   4.175   5.549   0.666
 5368TIP3    H216111   4.243   5.611   0.546
 5369TIP3   OH216112   2.632   0.008   2.808
 5369TIP3    H116113   2.688  -0.063   2.840
 5369TIP3    H216114   2.642   0.077   2.873
 5370TIP3   OH216115   3.425   2.760   4.332
 5370TIP3    H116116   3.429   2.824   4.403
 5370TIP3    H216117   3.333   2.759   4.306
 5371TIP3   OH216118   5.122   5.755   4.451
 5371TIP3    H116119   5.090   5.753   4.361
 5371TIP3    H216120   5.055   5.804   4.498
 5372TIP3   OH216121   1.584   5.805   0.272
 5372TIP3    H116122   1.644   5.880   0.263
 5372TIP3    H216123   1.531   5.827   0.348
 5373TIP3   OH216124   1.617   1.344   4.143
 5373TIP3    H116125   1.614   1.343   4.238
 5373TIP3    H216126   1.665   1.265   4.119
 5374TIP3   OH216127   0.421   3.808   0.677
 5374TIP3    H116128   0.371   3.732   0.647
 5374TIP3    H216129   0.364   3.852   0.740
 5375TIP3   OH216130   2.354   3.316   0.632
 5375TIP3    H116131   2.389   3.308   0.544
 5375TIP3    H216132   2.367   3.229   0.671
 5376TIP3   OH216133   3.403   4.408   4.055
 5376TIP3    H116134   3.351   4.343   4.007
 5376TIP3    H216135   3.468   4.438   3.991
 5377TIP3   OH216136   4.738   3.749   1.072
 5377TIP3    H116137   4.789   3.796   1.138
 5377TIP3    H216138   4.754   3.797   0.991
 5378TIP3   OH216139   5.859   4.885   0.801
 5378TIP3    H116140   5.847   4.926   0.887
 5378TIP3    H216141   5.927   4.937   0.759
 5379TIP3   OH216142   5.459   3.885   1.513
 5379TIP3    H116143   5.497   3.924   1.591
 5379TIP3    H216144   5.474   3.791   1.523
 5380TIP3   OH216145   5.580   5.819   0.355
 5380TIP3    H116146   5.665   5.857   0.377
 5380TIP3    H216147   5.530   5.823   0.437
 5381TIP3   OH216148   4.332   3.109   1.976
 5381TIP3    H116149   4.330   3.147   2.064
 5381TIP3    H216150   4.412   3.057   1.974
 5382TIP3   OH216151   2.645   0.253   1.104
 5382TIP3    H116152   2.583   0.313   1.146
 5382TIP3    H216153   2.592   0.204   1.041
 5383TIP3   OH216154   0.865   1.858   4.277
 5383TIP3    H116155   0.863   1.930   4.341
 5383TIP3    H216156   0.876   1.779   4.330
 5384TIP3   OH216157   4.632   4.837   1.925
 5384TIP3    H116158   4.653   4.907   1.987
 5384TIP3    H216159   4.553   4.796   1.962
 5385TIP3   OH216160   3.655   5.193   2.136
 5385TIP3    H116161   3.740   5.164   2.103
 5385TIP3    H216162   3.638   5.136   2.211
 5386TIP3   OH216163   5.166   1.195   4.824
 5386TIP3    H116164   5.109   1.169   4.896
 5386TIP3    H216165   5.167   1.120   4.765
 5387TIP3   OH216166   6.179   1.013   2.555
 5387TIP3    H116167   6.241   1.014   2.628
 5387TIP3    H216168   6.233   0.995   2.478
 5388TIP3   OH216169   1.575   5.649   1.995
 5388TIP3    H116170   1.490   5.605   1.989
 5388TIP3    H216171   1.590   5.658   2.089
 5389TIP3   OH216172   5.954   3.780   2.531
 5389TIP3    H116173   5.876   3.802   2.481
 5389TIP3    H216174   5.937   3.815   2.618
 5390TIP3   OH216175   0.369   5.659   0.410
 5390TIP3    H116176   0.401   5.588   0.465
 5390TIP3    H216177   0.302   5.620   0.355
 5391TIP3   OH216178   2.796   2.686   3.836
 5391TIP3    H116179   2.761   2.641   3.912
 5391TIP3    H216180   2.730   2.674   3.768
 5392TIP3   OH216181   2.605   1.899   1.966
 5392TIP3    H116182   2.595   1.903   1.871
 5392TIP3    H216183   2.685   1.849   1.980
 5393TIP3   OH216184   2.219   4.836   2.359
 5393TIP3    H116185   2.256   4.820   2.272
 5393TIP3    H216186   2.159   4.909   2.345
 5394TIP3   OH216187   2.020   1.876   3.304
 5394TIP3    H116188   2.069   1.818   3.246
 5394TIP3    H216189   2.071   1.877   3.385
 5395TIP3   OH216190   0.297   3.782   1.902
 5395TIP3    H116191   0.349   3.735   1.836
 5395TIP3    H216192   0.247   3.713   1.945
 5396TIP3   OH216193   2.124   0.313   2.046
 5396TIP3    H116194   2.081   0.392   2.079
 5396TIP3    H216195   2.141   0.332   1.953
 5397TIP3   OH216196   4.351   2.064   1.681
 5397TIP3    H116197   4.440   2.091   1.662
 5397TIP3    H216198   4.319   2.024   1.600
 5398TIP3   OH216199   4.087   3.561   3.291
 5398TIP3    H116200   4.092   3.642   3.342
 5398TIP3    H216201   4.019   3.509   3.335
 5399TIP3   OH216202   1.725   0.420   2.997
 5399TIP3    H116203   1.637   0.423   2.958
 5399TIP3    H216204   1.778   0.372   2.933
 5400TIP3   OH216205   1.502   4.765   1.599
 5400TIP3    H116206   1.536   4.840   1.550
 5400TIP3    H216207   1.543   4.689   1.559
 5401TIP3   OH216208   5.421   2.615   3.992
 5401TIP3    H116209   5.383   2.533   3.963
 5401TIP3    H216210   5.463   2.651   3.914
 5402TIP3   OH216211   2.857   1.699   0.940
 5402TIP3    H116212   2.926   1.663   0.884
 5402TIP3    H216213   2.811   1.622   0.974
 5403TIP3   OH216214   3.463   3.178   3.975
 5403TIP3    H116215   3.378   3.218   3.990
 5403TIP3    H216216   3.472   3.176   3.879
 5404TIP3   OH216217   0.062   0.498   2.404
 5404TIP3    H116218   0.122   0.450   2.460
 5404TIP3    H216219  -0.016   0.443   2.399
 5405TIP3   OH216220   0.038   3.356   0.640
 5405TIP3    H116221   0.087   3.322   0.715
 5405TIP3    H216222  -0.053   3.330   0.657
 5406TIP3   OH216223   1.021   1.675   1.194
 5406TIP3    H116224   0.982   1.753   1.234
 5406TIP3    H216225   1.055   1.707   1.110
 5407TIP3   OH216226   3.972   3.252   4.391
 5407TIP3    H116227   3.959   3.160   4.367
 5407TIP3    H216228   3.910   3.266   4.463
 5408TIP3   OH216229   0.187   5.749   4.640
 5408TIP3    H116230   0.187   5.709   4.553
 5408TIP3    H216231   0.274   5.789   4.648
 5409TIP3   OH216232   2.583   1.738   2.353
 5409TIP3    H116233   2.649   1.721   2.285
 5409TIP3    H216234   2.504   1.761   2.304
 5410TIP3   OH216235   2.594   4.189   3.255
 5410TIP3    H116236   2.568   4.204   3.346
 5410TIP3    H216237   2.680   4.231   3.247
 5411TIP3   OH216238   1.883   4.197   0.223
 5411TIP3    H116239   1.840   4.129   0.274
 5411TIP3    H216240   1.975   4.170   0.220
 5412TIP3   OH216241   3.205   4.439   3.226
 5412TIP3    H116242   3.200   4.425   3.131
 5412TIP3    H216243   3.115   4.433   3.256
 5413TIP3   OH216244   2.213   3.010   4.505
 5413TIP3    H116245   2.209   2.922   4.468
 5413TIP3    H216246   2.287   3.008   4.565
 5414TIP3   OH216247   6.284   5.150   1.261
 5414TIP3    H116248   6.291   5.204   1.182
 5414TIP3    H216249   6.330   5.069   1.239
 5415TIP3   OH216250   1.491   3.911   1.835
 5415TIP3    H116251   1.502   3.868   1.751
 5415TIP3    H216252   1.413   3.870   1.873
 5416TIP3   OH216253   2.413   1.801   2.165
 5416TIP3    H116254   2.334   1.843   2.131
 5416TIP3    H216255   2.471   1.794   2.089
 5417TIP3   OH216256   0.800   1.875   3.486
 5417TIP3    H116257   0.835   1.957   3.521
 5417TIP3    H216258   0.706   1.880   3.504
 5418TIP3   OH216259   4.713   3.820   0.253
 5418TIP3    H116260   4.776   3.748   0.249
 5418TIP3    H216261   4.628   3.779   0.234
 5419TIP3   OH216262   3.955   0.848   4.140
 5419TIP3    H116263   4.027   0.911   4.130
 5419TIP3    H216264   3.971   0.783   4.071
 5420TIP3   OH216265   2.080  -0.022   0.199
 5420TIP3    H116266   2.020  -0.033   0.125
 5420TIP3    H216267   2.077   0.071   0.219
 5421TIP3   OH216268   3.876   3.670   1.193
 5421TIP3    H116269   3.870   3.579   1.223
 5421TIP3    H216270   3.925   3.714   1.262
 5422TIP3   OH216271   3.513   2.822  -0.020
 5422TIP3    H116272   3.597   2.822   0.026
 5422TIP3    H216273   3.451   2.859   0.042
 5423TIP3   OH216274   2.997   4.964   1.416
 5423TIP3    H116275   3.012   5.045   1.367
 5423TIP3    H216276   3.082   4.943   1.454
 5424TIP3   OH216277   0.543   0.171   5.203
 5424TIP3    H116278   0.597   0.199   5.129
 5424TIP3    H216279   0.457   0.210   5.187
 5425TIP3   OH216280   2.957   0.099   4.445
 5425TIP3    H116281   2.890   0.167   4.430
 5425TIP3    H216282   3.013   0.136   4.514
 5426TIP3   OH216283   4.747   3.269   1.551
 5426TIP3    H116284   4.805   3.343   1.534
 5426TIP3    H216285   4.659   3.307   1.550
 5427TIP3   OH216286   1.061   0.910   0.575
 5427TIP3    H116287   1.110   0.869   0.503
 5427TIP3    H216288   1.074   1.004   0.561
 5428TIP3   OH216289   5.500   0.367   3.071
 5428TIP3    H116290   5.537   0.447   3.033
 5428TIP3    H216291   5.532   0.297   3.015
 5429TIP3   OH216292   6.121   2.640   1.047
 5429TIP3    H116293   6.171   2.572   1.092
 5429TIP3    H216294   6.171   2.658   0.967
 5430TIP3   OH216295   0.879   1.192   2.152
 5430TIP3    H116296   0.926   1.140   2.217
 5430TIP3    H216297   0.803   1.227   2.200
 5431TIP3   OH216298   3.298   2.643   1.949
 5431TIP3    H116299   3.294   2.548   1.959
 5431TIP3    H216300   3.234   2.662   1.880
 5432TIP3   OH216301   4.159   2.615   5.041
 5432TIP3    H116302   4.096   2.544   5.033
 5432TIP3    H216303   4.244   2.571   5.045
 5433TIP3   OH216304   3.285   0.638   3.382
 5433TIP3    H116305   3.331   0.690   3.447
 5433TIP3    H216306   3.290   0.548   3.415
 5434TIP3   OH216307   6.209   3.275   1.656
 5434TIP3    H116308   6.171   3.332   1.723
 5434TIP3    H216309   6.163   3.192   1.665
 5435TIP3   OH216310   5.284   5.663   4.690
 5435TIP3    H116311   5.244   5.659   4.603
 5435TIP3    H216312   5.335   5.744   4.690
 5436TIP3   OH216313   0.198   0.731   2.367
 5436TIP3    H116314   0.173   0.639   2.371
 5436TIP3    H216315   0.244   0.740   2.283
 5437TIP3   OH216316   2.447   5.053   2.286
 5437TIP3    H116317   2.465   5.090   2.200
 5437TIP3    H216318   2.485   4.965   2.283
 5438TIP3   OH216319   6.056   5.736   4.540
 5438TIP3    H116320   6.103   5.769   4.617
 5438TIP3    H216321   5.968   5.716   4.573
 5439TIP3   OH216322   3.072   3.815   0.309
 5439TIP3    H116323   3.056   3.807   0.215
 5439TIP3    H216324   3.043   3.732   0.346
 5440TIP3   OH216325   5.516   0.209   4.192
 5440TIP3    H116326   5.575   0.268   4.239
 5440TIP3    H216327   5.565   0.128   4.183
 5441TIP3   OH216328   3.564   2.763   1.987
 5441TIP3    H116329   3.586   2.738   2.077
 5441TIP3    H216330   3.469   2.751   1.982
 5442TIP3   OH216331   4.491   0.803   3.882
 5442TIP3    H116332   4.543   0.870   3.926
 5442TIP3    H216333   4.459   0.846   3.803
 5443TIP3   OH216334   2.720   3.747   3.742
 5443TIP3    H116335   2.627   3.747   3.719
 5443TIP3    H216336   2.738   3.836   3.771
 5444TIP3   OH216337   3.332   4.955   4.870
 5444TIP3    H116338   3.352   4.867   4.901
 5444TIP3    H216339   3.413   4.985   4.829
 5445TIP3   OH216340   0.073   2.887   3.904
 5445TIP3    H116341   0.142   2.905   3.840
 5445TIP3    H216342   0.099   2.934   3.983
 5446TIP3   OH216343   3.733   3.192   0.255
 5446TIP3    H116344   3.723   3.248   0.333
 5446TIP3    H216345   3.825   3.167   0.255
 5447TIP3   OH216346   1.003   5.512   2.474
 5447TIP3    H116347   0.976   5.439   2.417
 5447TIP3    H216348   0.974   5.590   2.428
 5448TIP3   OH216349   2.338   1.802   4.406
 5448TIP3    H116350   2.373   1.856   4.477
 5448TIP3    H216351   2.372   1.843   4.326
 5449TIP3   OH216352   6.004   0.120   2.139
 5449TIP3    H116353   5.957   0.167   2.070
 5449TIP3    H216354   6.073   0.072   2.093
 5450TIP3   OH216355   4.641   3.950   3.592
 5450TIP3    H116356   4.664   4.019   3.654
 5450TIP3    H216357   4.724   3.926   3.551
 5451TIP3   OH216358   1.658   3.327   3.218
 5451TIP3    H116359   1.640   3.391   3.286
 5451TIP3    H216360   1.672   3.380   3.139
 5452TIP3   OH216361   4.986   2.802   3.588
 5452TIP3    H116362   4.988   2.722   3.534
 5452TIP3    H216363   5.034   2.777   3.668
 5453TIP3   OH216364   2.508   1.269   2.078
 5453TIP3    H116365   2.487   1.360   2.059
 5453TIP3    H216366   2.432   1.236   2.127
 5454TIP3   OH216367   4.013   1.550   1.478
 5454TIP3    H116368   4.020   1.589   1.565
 5454TIP3    H216369   3.984   1.460   1.493
 5455TIP3   OH216370   4.760   1.925   0.309
 5455TIP3    H116371   4.798   1.908   0.223
 5455TIP3    H216372   4.832   1.959   0.362
 5456TIP3   OH216373   1.573   1.383   2.314
 5456TIP3    H116374   1.598   1.449   2.249
 5456TIP3    H216375   1.656   1.348   2.346
 5457TIP3   OH216376   3.608   2.940   1.767
 5457TIP3    H116377   3.601   2.893   1.850
 5457TIP3    H216378   3.693   2.984   1.772
 5458TIP3   OH216379   1.839   2.287   0.193
 5458TIP3    H116380   1.806   2.352   0.131
 5458TIP3    H216381   1.838   2.204   0.144
 5459TIP3   OH216382   1.797   5.562   1.587
 5459TIP3    H116383   1.742   5.627   1.543
 5459TIP3    H216384   1.746   5.535   1.663
 5460TIP3   OH216385   4.264   0.413   4.218
 5460TIP3    H116386   4.358   0.406   4.202
 5460TIP3    H216387   4.235   0.323   4.230
 5461TIP3   OH216388   0.438   3.627   1.305
 5461TIP3    H116389   0.531   3.647   1.304
 5461TIP3    H216390   0.425   3.575   1.385
 5462TIP3   OH216391   2.400   1.929   1.193
 5462TIP3    H116392   2.344   1.950   1.118
 5462TIP3    H216393   2.387   2.002   1.254
 5463TIP3   OH216394   2.062   1.733   3.915
 5463TIP3    H116395   1.980   1.697   3.949
 5463TIP3    H216396   2.034   1.791   3.844
 5464TIP3   OH216397   5.331   5.664   0.008
 5464TIP3    H116398   5.383   5.741  -0.015
 5464TIP3    H216399   5.394   5.604   0.048
 5465TIP3   OH216400   3.348   3.914   3.880
 5465TIP3    H116401   3.391   3.983   3.930
 5465TIP3    H216402   3.413   3.886   3.816
 5466TIP3   OH216403   6.138   2.889   3.947
 5466TIP3    H116404   6.113   2.975   3.911
 5466TIP3    H216405   6.234   2.889   3.942
 5467TIP3   OH216406   1.710   0.768   3.822
 5467TIP3    H116407   1.683   0.709   3.893
 5467TIP3    H216408   1.633   0.823   3.806
 5468TIP3   OH216409   4.647   2.148   0.236
 5468TIP3    H116410   4.563   2.120   0.200
 5468TIP3    H216411   4.696   2.066   0.246
 5469TIP3   OH216412   1.489   0.111   4.779
 5469TIP3    H116413   1.469   0.042   4.843
 5469TIP3    H216414   1.532   0.065   4.707
 5470TIP3   OH216415   4.778   4.134   1.009
 5470TIP3    H116416   4.780   4.052   0.960
 5470TIP3    H216417   4.767   4.202   0.943
 5471TIP3   OH216418   5.029   1.931   0.631
 5471TIP3    H116419   5.027   2.007   0.572
 5471TIP3    H216420   4.992   1.963   0.713
 5472TIP3   OH216421   4.281   5.328   1.939
 5472TIP3    H116422   4.363   5.319   1.988
 5472TIP3    H216423   4.222   5.372   2.000
 5473TIP3   OH216424   1.499   1.250   3.884
 5473TIP3    H116425   1.561   1.204   3.941
 5473TIP3    H216426   1.550   1.319   3.843
 5474TIP3   OH216427   3.323   1.293   4.619
 5474TIP3    H116428   3.355   1.317   4.706
 5474TIP3    H216429   3.385   1.228   4.588
 5475TIP3   OH216430   5.926   1.743   3.987
 5475TIP3    H116431   5.835   1.758   4.015
 5475TIP3    H216432   5.921   1.662   3.936
 5476TIP3   OH216433   5.392   2.992   2.723
 5476TIP3    H116434   5.425   2.927   2.662
 5476TIP3    H216435   5.298   2.995   2.706
 5477TIP3   OH216436   5.185   4.854   0.132
 5477TIP3    H116437   5.138   4.805   0.199
 5477TIP3    H216438   5.145   4.941   0.134
 5478TIP3   OH216439   3.784   0.593   1.052
 5478TIP3    H116440   3.804   0.645   0.975
 5478TIP3    H216441   3.869   0.559   1.081
 5479TIP3   OH216442   6.123   3.620   1.174
 5479TIP3    H116443   6.156   3.530   1.172
 5479TIP3    H216444   6.147   3.656   1.088
 5480TIP3   OH216445   4.883   5.403   0.586
 5480TIP3    H116446   4.929   5.439   0.510
 5480TIP3    H216447   4.798   5.374   0.551
 5481TIP3   OH216448   3.251   2.616   4.747
 5481TIP3    H116449   3.312   2.552   4.786
 5481TIP3    H216450   3.245   2.686   4.812
 5482TIP3   OH216451   0.437   4.157   0.008
 5482TIP3    H116452   0.396   4.102   0.075
 5482TIP3    H216453   0.477   4.095  -0.053
 5483TIP3   OH216454   3.092   1.768   4.482
 5483TIP3    H116455   3.057   1.839   4.535
 5483TIP3    H216456   3.016   1.713   4.462
 5484TIP3   OH216457   1.308   4.813   4.127
 5484TIP3    H116458   1.320   4.738   4.069
 5484TIP3    H216459   1.316   4.889   4.071
 5485TIP3   OH216460   0.052   4.597   3.570
 5485TIP3    H116461   0.010   4.630   3.491
 5485TIP3    H216462   0.022   4.655   3.640
 5486TIP3   OH216463   5.400   3.851   4.563
 5486TIP3    H116464   5.306   3.861   4.551
 5486TIP3    H216465   5.417   3.884   4.651
 5487TIP3   OH216466   4.718   4.196   2.314
 5487TIP3    H116467   4.695   4.274   2.365
 5487TIP3    H216468   4.696   4.123   2.372
 5488TIP3   OH216469   3.463   5.605   4.749
 5488TIP3    H116470   3.558   5.602   4.750
 5488TIP3    H216471   3.436   5.514   4.756
 5489TIP3   OH216472   2.950   0.261   2.771
 5489TIP3    H116473   2.997   0.200   2.827
 5489TIP3    H216474   3.018   0.306   2.721
 5490TIP3   OH216475   1.805   0.170   1.290
 5490TIP3    H116476   1.822   0.129   1.374
 5490TIP3    H216477   1.892   0.191   1.255
 5491TIP3   OH216478   3.716   3.900   1.500
 5491TIP3    H116479   3.797   3.850   1.513
 5491TIP3    H216480   3.743   3.991   1.509
 5492TIP3   OH216481   2.581   5.020   3.897
 5492TIP3    H116482   2.520   5.031   3.969
 5492TIP3    H216483   2.534   5.051   3.820
 5493TIP3   OH216484   4.593   4.277   0.808
 5493TIP3    H116485   4.504   4.301   0.782
 5493TIP3    H216486   4.611   4.197   0.759
 5494TIP3   OH216487   4.652   4.612   2.725
 5494TIP3    H116488   4.662   4.555   2.649
 5494TIP3    H216489   4.706   4.572   2.793
 5495TIP3   OH216490   6.104   5.524   2.427
 5495TIP3    H116491   6.044   5.450   2.437
 5495TIP3    H216492   6.081   5.583   2.499
 5496TIP3   OH216493   1.554   0.543   1.547
 5496TIP3    H116494   1.534   0.586   1.464
 5496TIP3    H216495   1.646   0.519   1.540
 5497TIP3   OH216496   6.303   5.478   1.529
 5497TIP3    H116497   6.246   5.406   1.501
 5497TIP3    H216498   6.381   5.435   1.564
 5498TIP3   OH216499   6.178   3.423   3.615
 5498TIP3    H116500   6.105   3.466   3.661
 5498TIP3    H216501   6.240   3.400   3.685
 5499TIP3   OH216502   4.860   4.023   1.679
 5499TIP3    H116503   4.805   4.035   1.757
 5499TIP3    H216504   4.830   3.940   1.641
 5500TIP3   OH216505   2.928   1.918   0.615
 5500TIP3    H116506   2.873   1.948   0.543
 5500TIP3    H216507   2.869   1.915   0.691
 5501TIP3   OH216508   4.330   3.479   2.776
 5501TIP3    H116509   4.253   3.425   2.755
 5501TIP3    H216510   4.295   3.566   2.794
 5502TIP3   OH216511   3.937   3.149   1.155
 5502TIP3    H116512   3.956   3.204   1.079
 5502TIP3    H216513   4.023   3.124   1.189
 5503TIP3   OH216514   2.164   3.791   3.341
 5503TIP3    H116515   2.186   3.704   3.376
 5503TIP3    H216516   2.229   3.849   3.379
 5504TIP3   OH216517   0.144   3.301   4.157
 5504TIP3    H116518   0.165   3.248   4.234
 5504TIP3    H216519   0.098   3.377   4.192
 5505TIP3   OH216520   0.909   2.741   3.387
 5505TIP3    H116521   0.888   2.834   3.377
 5505TIP3    H216522   0.965   2.721   3.311
 5506TIP3   OH216523   5.797   0.960   4.620
 5506TIP3    H116524   5.711   1.002   4.619
 5506TIP3    H216525   5.825   0.961   4.529
 5507TIP3   OH216526   4.177   3.552   3.006
 5507TIP3    H116527   4.145   3.617   2.944
 5507TIP3    H216528   4.142   3.579   3.090
 5508TIP3   OH216529   0.159   3.416   0.938
 5508TIP3    H116530   0.170   3.411   1.033
 5508TIP3    H216531   0.234   3.467   0.908
 5509TIP3   OH216532   6.347   5.271   0.176
 5509TIP3    H116533   6.252   5.261   0.187
 5509TIP3    H216534   6.375   5.318   0.254
 5510TIP3   OH216535   4.427   5.205   0.626
 5510TIP3    H116536   4.480   5.279   0.596
 5510TIP3    H216537   4.478   5.166   0.698
 5511TIP3   OH216538   4.684   5.616   3.253
 5511TIP3    H116539   4.696   5.649   3.342
 5511TIP3    H216540   4.655   5.692   3.203
 5512TIP3   OH216541   0.636   3.691   3.226
 5512TIP3    H116542   0.541   3.691   3.241
 5512TIP3    H216543   0.648   3.637   3.149
 5513TIP3   OH216544   2.061   3.137   3.505
 5513TIP3    H116545   1.966   3.143   3.496
 5513TIP3    H216546   2.082   3.048   3.479
 5514TIP3   OH216547   5.539   5.401   3.646
 5514TIP3    H116548   5.609   5.344   3.613
 5514TIP3    H216549   5.542   5.478   3.590
 5515TIP3   OH216550   1.683   5.314   1.500
 5515TIP3    H116551   1.729   5.398   1.506
 5515TIP3    H216552   1.640   5.316   1.415
 5516TIP3   OH216553   0.170   3.373   3.260
 5516TIP3    H116554   0.091   3.390   3.311
 5516TIP3    H216555   0.239   3.422   3.305
 5517TIP3   OH216556   3.744   0.989   3.842
 5517TIP3    H116557   3.665   1.007   3.792
 5517TIP3    H216558   3.814   1.031   3.792
 5518TIP3   OH216559   0.084   1.417   4.992
 5518TIP3    H116560   0.175   1.445   5.005
 5518TIP3    H216561   0.076   1.336   5.043
 5519TIP3   OH216562   2.421   0.569   0.594
 5519TIP3    H116563   2.454   0.654   0.565
 5519TIP3    H216564   2.330   0.586   0.618
 5520TIP3   OH216565   0.700   0.440   1.611
 5520TIP3    H116566   0.661   0.509   1.556
 5520TIP3    H216567   0.715   0.483   1.695
 5521TIP3   OH216568   4.960   3.077   2.438
 5521TIP3    H116569   5.014   3.008   2.399
 5521TIP3    H216570   4.999   3.090   2.525
 5522TIP3   OH216571   5.755   1.435   0.907
 5522TIP3    H116572   5.748   1.456   1.001
 5522TIP3    H216573   5.841   1.393   0.898
 5523TIP3   OH216574   4.724   1.249   0.571
 5523TIP3    H116575   4.650   1.201   0.534
 5523TIP3    H216576   4.703   1.341   0.556
 5524TIP3   OH216577   0.584   1.691   3.152
 5524TIP3    H116578   0.577   1.604   3.111
 5524TIP3    H216579   0.497   1.708   3.188
 5525TIP3   OH216580   1.373   5.467   1.441
 5525TIP3    H116581   1.404   5.518   1.515
 5525TIP3    H216582   1.351   5.533   1.374
 5526TIP3   OH216583   0.150   0.732   3.849
 5526TIP3    H116584   0.181   0.822   3.843
 5526TIP3    H216585   0.150   0.701   3.758
 5527TIP3   OH216586   1.628   5.048   2.170
 5527TIP3    H116587   1.543   5.006   2.153
 5527TIP3    H216588   1.690   4.975   2.176
 5528TIP3   OH216589   2.770   4.602   1.894
 5528TIP3    H116590   2.853   4.580   1.851
 5528TIP3    H216591   2.713   4.629   1.822
 5529TIP3   OH216592   4.680   3.328   0.702
 5529TIP3    H116593   4.645   3.412   0.730
 5529TIP3    H216594   4.775   3.341   0.700
 5530TIP3   OH216595   3.557   0.127   4.978
 5530TIP3    H116596   3.462   0.118   4.989
 5530TIP3    H216597   3.571   0.221   4.965
 5531TIP3   OH216598   0.167   5.949   0.916
 5531TIP3    H116599   0.245   5.967   0.969
 5531TIP3    H216600   0.187   5.865   0.873
 5532TIP3   OH216601   3.657   5.998   1.090
 5532TIP3    H116602   3.720   6.011   1.019
 5532TIP3    H216603   3.625   5.909   1.078
 5533TIP3   OH216604   2.525   4.484   0.512
 5533TIP3    H116605   2.598   4.424   0.495
 5533TIP3    H216606   2.475   4.485   0.430
 5534TIP3   OH216607   3.215   5.324   2.720
 5534TIP3    H116608   3.153   5.318   2.646
 5534TIP3    H216609   3.242   5.233   2.735
 5535TIP3   OH216610   1.344   4.299   3.132
 5535TIP3    H116611   1.378   4.374   3.181
 5535TIP3    H216612   1.417   4.271   3.077
 5536TIP3   OH216613   2.446   3.308   2.773
 5536TIP3    H116614   2.423   3.401   2.775
 5536TIP3    H216615   2.467   3.287   2.864
 5537TIP3   OH216616   3.078   1.483   3.857
 5537TIP3    H116617   3.042   1.424   3.923
 5537TIP3    H216618   3.055   1.442   3.773
 5538TIP3   OH216619   2.625   2.730   3.535
 5538TIP3    H116620   2.623   2.801   3.600
 5538TIP3    H216621   2.685   2.762   3.467
 5539TIP3   OH216622   0.534   3.132   1.010
 5539TIP3    H116623   0.445   3.139   1.045
 5539TIP3    H216624   0.574   3.218   1.029
 5540TIP3   OH216625   0.415   3.642   2.951
 5540TIP3    H116626   0.326   3.654   2.987
 5540TIP3    H216627   0.427   3.547   2.950
 5541TIP3   OH216628   2.433   4.596   4.087
 5541TIP3    H116629   2.379   4.637   4.153
 5541TIP3    H216630   2.371   4.558   4.024
 5542TIP3   OH216631   2.454   1.922   4.628
 5542TIP3    H116632   2.527   1.977   4.658
 5542TIP3    H216633   2.384   1.938   4.690
 5543TIP3   OH216634   3.677   0.689   1.868
 5543TIP3    H116635   3.606   0.625   1.879
 5543TIP3    H216636   3.745   0.642   1.821
 5544TIP3   OH216637   0.715   5.237   2.594
 5544TIP3    H116638   0.718   5.146   2.565
 5544TIP3    H216639   0.792   5.247   2.650
 5545TIP3   OH216640   3.535   4.611   0.898
 5545TIP3    H116641   3.621   4.571   0.911
 5545TIP3    H216642   3.548   4.671   0.824
 5546TIP3   OH216643   5.420   4.217   3.338
 5546TIP3    H116644   5.510   4.217   3.371
 5546TIP3    H216645   5.420   4.152   3.268
 5547TIP3   OH216646   1.325   4.905   0.459
 5547TIP3    H116647   1.366   4.909   0.373
 5547TIP3    H216648   1.258   4.837   0.451
 5548TIP3   OH216649   0.601   2.317   4.584
 5548TIP3    H116650   0.538   2.370   4.534
 5548TIP3    H216651   0.548   2.247   4.622
 5549TIP3   OH216652   4.925   1.850   0.112
 5549TIP3    H116653   5.019   1.865   0.104
 5549TIP3    H216654   4.900   1.809   0.030
 5550TIP3   OH216655   0.204   4.445   1.430
 5550TIP3    H116656   0.129   4.504   1.444
 5550TIP3    H216657   0.270   4.500   1.389
 5551TIP3   OH216658   3.859   2.241   3.481
 5551TIP3    H116659   3.920   2.314   3.469
 5551TIP3    H216660   3.773   2.282   3.478
 5552TIP3   OH216661   4.911   1.872   4.505
 5552TIP3    H116662   4.953   1.830   4.430
 5552TIP3    H216663   4.981   1.919   4.550
 5553TIP3   OH216664   2.302   3.631   2.083
 5553TIP3    H116665   2.253   3.631   2.001
 5553TIP3    H216666   2.352   3.549   2.082
 5554TIP3   OH216667   5.235   3.059   4.136
 5554TIP3    H116668   5.311   3.020   4.179
 5554TIP3    H216669   5.210   2.996   4.069
 5555TIP3   OH216670   1.666   4.283   1.065
 5555TIP3    H116671   1.607   4.261   1.136
 5555TIP3    H216672   1.675   4.378   1.069
 5556TIP3   OH216673   4.338   3.652   1.040
 5556TIP3    H116674   4.291   3.578   1.079
 5556TIP3    H216675   4.379   3.696   1.114
 5557TIP3   OH216676   3.908   5.234   3.318
 5557TIP3    H116677   3.968   5.183   3.263
 5557TIP3    H216678   3.855   5.169   3.362
 5558TIP3   OH216679   2.412   4.773   2.170
 5558TIP3    H116680   2.424   4.833   2.096
 5558TIP3    H216681   2.496   4.729   2.178
 5559TIP3   OH216682   0.632   0.582   3.958
 5559TIP3    H116683   0.630   0.488   3.939
 5559TIP3    H216684   0.546   0.602   3.993
 5560TIP3   OH216685   5.497   0.346   3.935
 5560TIP3    H116686   5.505   0.315   4.026
 5560TIP3    H216687   5.584   0.379   3.914
 5561TIP3   OH216688   0.832   0.150   4.472
 5561TIP3    H116689   0.852   0.057   4.457
 5561TIP3    H216690   0.776   0.150   4.549
 5562TIP3   OH216691   2.491   1.476   1.430
 5562TIP3    H116692   2.463   1.538   1.363
 5562TIP3    H216693   2.507   1.530   1.507
 5563TIP3   OH216694   3.469   1.474   0.393
 5563TIP3    H116695   3.527   1.405   0.427
 5563TIP3    H216696   3.524   1.552   0.389
 5564TIP3   OH216697   5.818   0.698   4.712
 5564TIP3    H116698   5.812   0.782   4.667
 5564TIP3    H216699   5.733   0.657   4.696
 5565TIP3   OH216700   6.350   1.193   2.371
 5565TIP3    H116701   6.282   1.204   2.305
 5565TIP3    H216702   6.361   1.098   2.378
 5566TIP3   OH216703   3.801   1.413   2.552
 5566TIP3    H116704   3.788   1.501   2.516
 5566TIP3    H216705   3.773   1.354   2.481
 5567TIP3   OH216706   4.329   2.348   3.420
 5567TIP3    H116707   4.345   2.355   3.326
 5567TIP3    H216708   4.398   2.400   3.461
 5568TIP3   OH216709   3.267   1.854   2.867
 5568TIP3    H116710   3.276   1.766   2.905
 5568TIP3    H216711   3.194   1.846   2.806
 5569TIP3   OH216712   1.182   4.894   0.789
 5569TIP3    H116713   1.224   4.978   0.770
 5569TIP3    H216714   1.164   4.856   0.703
 5570TIP3   OH216715   2.903   4.376   1.112
 5570TIP3    H116716   2.891   4.301   1.053
 5570TIP3    H216717   2.971   4.428   1.070
 5571TIP3   OH216718   1.314   4.216   4.850
 5571TIP3    H116719   1.259   4.173   4.785
 5571TIP3    H216720   1.349   4.293   4.805
 5572TIP3   OH216721   1.659   5.516   0.276
 5572TIP3    H116722   1.640   5.544   0.187
 5572TIP3    H216723   1.751   5.491   0.274
 5573TIP3   OH216724   3.515   3.276   2.208
 5573TIP3    H116725   3.582   3.340   2.184
 5573TIP3    H216726   3.467   3.318   2.280
 5574TIP3   OH216727   4.444   5.645   4.444
 5574TIP3    H116728   4.360   5.681   4.473
 5574TIP3    H216729   4.434   5.638   4.349
 5575TIP3   OH216730   2.871   1.224   3.004
 5575TIP3    H116731   2.935   1.293   3.018
 5575TIP3    H216732   2.803   1.241   3.069
 5576TIP3   OH216733   0.880   5.846   3.121
 5576TIP3    H116734   0.857   5.938   3.138
 5576TIP3    H216735   0.857   5.800   3.201
 5577TIP3   OH216736   3.780   0.888   0.416
 5577TIP3    H116737   3.823   0.957   0.366
 5577TIP3    H216738   3.757   0.822   0.350
 5578TIP3   OH216739   1.509   0.380   0.802
 5578TIP3    H116740   1.441   0.363   0.867
 5578TIP3    H216741   1.523   0.295   0.759
 5579TIP3   OH216742   2.770   1.770   3.149
 5579TIP3    H116743   2.774   1.750   3.243
 5579TIP3    H216744   2.860   1.794   3.126
 5580TIP3   OH216745   3.931   1.281   1.518
 5580TIP3    H116746   3.929   1.215   1.449
 5580TIP3    H216747   3.846   1.272   1.562
 5581TIP3   OH216748   4.042   3.501   0.725
 5581TIP3    H116749   4.039   3.487   0.631
 5581TIP3    H216750   4.132   3.527   0.743
 5582TIP3   OH216751   2.744   5.655   2.924
 5582TIP3    H116752   2.735   5.683   2.832
 5582TIP3    H216753   2.655   5.632   2.951
 5583TIP3   OH216754   5.342   4.086   0.471
 5583TIP3    H116755   5.372   4.032   0.398
 5583TIP3    H216756   5.421   4.131   0.501
 5584TIP3   OH216757   2.900   4.909   0.791
 5584TIP3    H116758   2.806   4.925   0.790
 5584TIP3    H216759   2.931   4.942   0.706
 5585TIP3   OH216760   2.972   4.960   1.044
 5585TIP3    H116761   2.956   4.935   0.953
 5585TIP3    H216762   2.960   4.879   1.093
 5586TIP3   OH216763   4.520   5.217   4.309
 5586TIP3    H116764   4.445   5.264   4.272
 5586TIP3    H216765   4.592   5.281   4.305
 5587TIP3   OH216766   5.619   4.568   0.964
 5587TIP3    H116767   5.663   4.485   0.980
 5587TIP3    H216768   5.657   4.628   1.029
 5588TIP3   OH216769   0.115   2.061   1.618
 5588TIP3    H116770   0.201   2.080   1.578
 5588TIP3    H216771   0.128   2.080   1.711
 5589TIP3   OH216772   1.447   1.213   1.455
 5589TIP3    H116773   1.451   1.122   1.424
 5589TIP3    H216774   1.367   1.217   1.508
 5590TIP3   OH216775   0.461   4.726   2.257
 5590TIP3    H116776   0.437   4.816   2.235
 5590TIP3    H216777   0.401   4.672   2.206
 5591TIP3   OH216778   5.921   3.350   1.011
 5591TIP3    H116779   5.991   3.350   1.077
 5591TIP3    H216780   5.879   3.264   1.021
 5592TIP3   OH216781   2.238   5.217   2.364
 5592TIP3    H116782   2.189   5.218   2.282
 5592TIP3    H216783   2.327   5.190   2.338
 5593TIP3   OH216784   2.526   0.673   4.585
 5593TIP3    H116785   2.483   0.588   4.588
 5593TIP3    H216786   2.617   0.653   4.561
 5594TIP3   OH216787   2.596   3.572   3.040
 5594TIP3    H116788   2.662   3.530   2.985
 5594TIP3    H216789   2.514   3.563   2.991
 5595TIP3   OH216790   3.851   3.193   2.397
 5595TIP3    H116791   3.917   3.126   2.381
 5595TIP3    H216792   3.778   3.169   2.341
 5596TIP3   OH216793   4.734   1.511   2.268
 5596TIP3    H116794   4.771   1.585   2.220
 5596TIP3    H216795   4.773   1.518   2.355
 5597TIP3   OH216796   0.059   1.378   1.205
 5597TIP3    H116797   0.025   1.467   1.198
 5597TIP3    H216798  -0.014   1.322   1.180
 5598TIP3   OH216799   1.113   0.957   2.591
 5598TIP3    H116800   1.089   0.877   2.637
 5598TIP3    H216801   1.173   1.002   2.650
 5599TIP3   OH216802   0.011   2.927   4.208
 5599TIP3    H116803   0.093   2.901   4.251
 5599TIP3    H216804  -0.037   2.845   4.196
 5600TIP3   OH216805   3.445   2.745   0.580
 5600TIP3    H116806   3.378   2.689   0.620
 5600TIP3    H216807   3.416   2.834   0.600
 5601TIP3   OH216808   5.117   1.813   2.961
 5601TIP3    H116809   5.101   1.780   2.873
 5601TIP3    H216810   5.163   1.896   2.948
 5602TIP3   OH216811   2.114   4.903   4.375
 5602TIP3    H116812   2.205   4.879   4.356
 5602TIP3    H216813   2.120   4.983   4.427
 5603TIP3   OH216814   0.475   5.296   5.005
 5603TIP3    H116815   0.413   5.262   4.941
 5603TIP3    H216816   0.527   5.360   4.957
 5604TIP3   OH216817   1.763   5.032   3.252
 5604TIP3    H116818   1.675   5.001   3.275
 5604TIP3    H216819   1.822   4.967   3.290
 5605TIP3   OH216820   5.797   1.195   2.872
 5605TIP3    H116821   5.773   1.184   2.780
 5605TIP3    H216822   5.759   1.279   2.897
 5606TIP3   OH216823   2.042   2.240   2.459
 5606TIP3    H116824   2.015   2.155   2.424
 5606TIP3    H216825   2.138   2.233   2.467
 5607TIP3   OH216826   4.830   0.370   0.738
 5607TIP3    H116827   4.921   0.399   0.732
 5607TIP3    H216828   4.779   0.451   0.734
 5608TIP3   OH216829   6.097   0.991   2.890
 5608TIP3    H116830   6.182   1.020   2.856
 5608TIP3    H216831   6.069   1.062   2.948
 5609TIP3   OH216832   3.005   4.719   4.130
 5609TIP3    H116833   3.038   4.744   4.216
 5609TIP3    H216834   2.939   4.785   4.110
 5610TIP3   OH216835   2.370   4.588   5.106
 5610TIP3    H116836   2.388   4.540   5.025
 5610TIP3    H216837   2.325   4.524   5.161
 5611TIP3   OH216838   3.066   2.129   2.921
 5611TIP3    H116839   3.003   2.159   2.855
 5611TIP3    H216840   3.137   2.193   2.916
 5612TIP3   OH216841   4.191   2.290   2.627
 5612TIP3    H116842   4.265   2.230   2.616
 5612TIP3    H216843   4.153   2.299   2.540
 5613TIP3   OH216844   6.068   3.947   3.910
 5613TIP3    H116845   5.986   3.924   3.955
 5613TIP3    H216846   6.099   4.025   3.957
 5614TIP3   OH216847   5.960   0.468   4.819
 5614TIP3    H116848   6.029   0.515   4.866
 5614TIP3    H216849   5.893   0.535   4.803
 5615TIP3   OH216850   1.831   0.020   3.219
 5615TIP3    H116851   1.780   0.101   3.216
 5615TIP3    H216852   1.831  -0.011   3.129
 5616TIP3   OH216853   4.948   1.166   3.239
 5616TIP3    H116854   4.916   1.128   3.321
 5616TIP3    H216855   4.887   1.135   3.172
 5617TIP3   OH216856   6.092   4.435   4.329
 5617TIP3    H116857   6.000   4.409   4.321
 5617TIP3    H216858   6.118   4.459   4.240
 5618TIP3   OH216859   0.494   4.821   4.655
 5618TIP3    H116860   0.404   4.811   4.687
 5618TIP3    H216861   0.533   4.886   4.713
 5619TIP3   OH216862   2.574   4.547   4.689
 5619TIP3    H116863   2.626   4.529   4.612
 5619TIP3    H216864   2.590   4.639   4.709
 5620TIP3   OH216865   2.303   0.212   1.509
 5620TIP3    H116866   2.283   0.143   1.573
 5620TIP3    H216867   2.374   0.262   1.549
 5621TIP3   OH216868   5.518   4.732   4.551
 5621TIP3    H116869   5.508   4.801   4.617
 5621TIP3    H216870   5.555   4.777   4.475
 5622TIP3   OH216871   3.013   1.991   1.370
 5622TIP3    H116872   2.998   1.904   1.408
 5622TIP3    H216873   3.108   1.996   1.359
 5623TIP3   OH216874   1.341   1.130   2.389
 5623TIP3    H116875   1.408   1.166   2.447
 5623TIP3    H216876   1.387   1.066   2.335
 5624TIP3   OH216877   1.535   3.155   2.885
 5624TIP3    H116878   1.491   3.215   2.945
 5624TIP3    H216879   1.602   3.113   2.939
 5625TIP3   OH216880   3.745   3.297   4.563
 5625TIP3    H116881   3.765   3.386   4.593
 5625TIP3    H216882   3.665   3.308   4.511
 5626TIP3   OH216883   1.061   2.230   3.421
 5626TIP3    H116884   1.076   2.325   3.418
 5626TIP3    H216885   1.149   2.192   3.417
 5627TIP3   OH216886   1.744   2.043   0.070
 5627TIP3    H116887   1.828   1.997   0.073
 5627TIP3    H216888   1.694   2.007   0.143
 5628TIP3   OH216889   5.414   4.300   0.102
 5628TIP3    H116890   5.335   4.323   0.150
 5628TIP3    H216891   5.408   4.206   0.087
 5629TIP3   OH216892   5.464   0.387   1.198
 5629TIP3    H116893   5.383   0.393   1.248
 5629TIP3    H216894   5.443   0.332   1.123
 5630TIP3   OH216895   0.401   1.155   4.773
 5630TIP3    H116896   0.334   1.098   4.736
 5630TIP3    H216897   0.429   1.210   4.699
 5631TIP3   OH216898   1.103   0.221   4.698
 5631TIP3    H116899   1.026   0.275   4.683
 5631TIP3    H216900   1.140   0.254   4.780
 5632TIP3   OH216901   3.929   0.080   1.307
 5632TIP3    H116902   3.907  -0.013   1.307
 5632TIP3    H216903   3.997   0.089   1.240
 5633TIP3   OH216904   1.501   5.520   0.565
 5633TIP3    H116905   1.440   5.460   0.521
 5633TIP3    H216906   1.587   5.482   0.551
 5634TIP3   OH216907   2.567   5.103   2.041
 5634TIP3    H116908   2.506   5.104   1.967
 5634TIP3    H216909   2.652   5.086   2.002
 5635TIP3   OH216910   4.341   0.688   2.223
 5635TIP3    H116911   4.406   0.728   2.166
 5635TIP3    H216912   4.262   0.681   2.169
 5636TIP3   OH216913   1.342   5.800   0.849
 5636TIP3    H116914   1.409   5.771   0.910
 5636TIP3    H216915   1.351   5.743   0.773
 5637TIP3   OH216916   6.021   1.051   3.328
 5637TIP3    H116917   5.966   1.120   3.290
 5637TIP3    H216918   6.012   0.977   3.267
 5638TIP3   OH216919   3.271   0.408   2.780
 5638TIP3    H116920   3.294   0.316   2.786
 5638TIP3    H216921   3.354   0.455   2.779
 5639TIP3   OH216922   4.876   3.300   2.681
 5639TIP3    H116923   4.870   3.333   2.592
 5639TIP3    H216924   4.798   3.334   2.725
 5640TIP3   OH216925   1.736   2.177   3.196
 5640TIP3    H116926   1.709   2.217   3.279
 5640TIP3    H216927   1.780   2.096   3.221
 5641TIP3   OH216928   4.861   5.190   2.546
 5641TIP3    H116929   4.779   5.158   2.585
 5641TIP3    H216930   4.842   5.197   2.453
 5642TIP3   OH216931   4.796   4.524   2.945
 5642TIP3    H116932   4.783   4.602   3.000
 5642TIP3    H216933   4.874   4.482   2.981
 5643TIP3   OH216934   5.004   2.662   3.881
 5643TIP3    H116935   5.048   2.696   3.959
 5643TIP3    H216936   5.016   2.567   3.886
 5644TIP3   OH216937   4.736   2.072   4.330
 5644TIP3    H116938   4.786   2.019   4.393
 5644TIP3    H216939   4.734   2.159   4.368
 5645TIP3   OH216940   0.678   4.769   4.037
 5645TIP3    H116941   0.757   4.735   3.996
 5645TIP3    H216942   0.623   4.797   3.963
 5646TIP3   OH216943   2.806   0.164   2.017
 5646TIP3    H116944   2.882   0.188   2.070
 5646TIP3    H216945   2.838   0.166   1.927
 5647TIP3   OH216946   0.493   2.872   4.131
 5647TIP3    H116947   0.482   2.835   4.218
 5647TIP3    H216948   0.443   2.954   4.133
 5648TIP3   OH216949   3.966   2.452   2.765
 5648TIP3    H116950   4.043   2.441   2.709
 5648TIP3    H216951   3.893   2.419   2.712
 5649TIP3   OH216952   0.882   1.793   2.060
 5649TIP3    H116953   0.898   1.819   2.151
 5649TIP3    H216954   0.870   1.698   2.064
 5650TIP3   OH216955   5.990   3.222   3.889
 5650TIP3    H116956   6.036   3.253   3.966
 5650TIP3    H216957   5.917   3.283   3.878
 5651TIP3   OH216958   6.348   1.412   3.669
 5651TIP3    H116959   6.263   1.396   3.629
 5651TIP3    H216960   6.348   1.359   3.749
 5652TIP3   OH216961   2.994   1.234   0.918
 5652TIP3    H116962   3.038   1.167   0.866
 5652TIP3    H216963   3.038   1.230   1.004
 5653TIP3   OH216964   4.293   0.274   2.958
 5653TIP3    H116965   4.368   0.259   2.899
 5653TIP3    H216966   4.217   0.263   2.902
 5654TIP3   OH216967   0.582   2.098   3.233
 5654TIP3    H116968   0.662   2.131   3.273
 5654TIP3    H216969   0.512   2.135   3.287
 5655TIP3   OH216970   0.350   2.178   3.363
 5655TIP3    H116971   0.276   2.118   3.372
 5655TIP3    H216972   0.316   2.262   3.394
 5656TIP3   OH216973   2.378   0.760   4.329
 5656TIP3    H116974   2.401   0.852   4.344
 5656TIP3    H216975   2.436   0.732   4.259
 5657TIP3   OH216976   2.428   4.866   5.093
 5657TIP3    H116977   2.412   4.775   5.117
 5657TIP3    H216978   2.352   4.890   5.039
 5658TIP3   OH216979   1.158   5.118   0.410
 5658TIP3    H116980   1.195   5.031   0.422
 5658TIP3    H216981   1.232   5.177   0.421
 5659TIP3   OH216982   5.732   0.214   3.725
 5659TIP3    H116983   5.731   0.155   3.800
 5659TIP3    H216984   5.661   0.276   3.742
 5660TIP3   OH216985   0.525   2.649   3.036
 5660TIP3    H116986   0.612   2.621   3.006
 5660TIP3    H216987   0.525   2.744   3.028
 5661TIP3   OH216988   3.885   1.053   1.376
 5661TIP3    H116989   3.926   1.061   1.290
 5661TIP3    H216990   3.831   0.975   1.370
 5662TIP3   OH216991   2.707   3.441   0.865
 5662TIP3    H116992   2.775   3.383   0.898
 5662TIP3    H216993   2.635   3.383   0.842
 5663TIP3   OH216994   6.262   5.725   0.823
 5663TIP3    H116995   6.222   5.687   0.901
 5663TIP3    H216996   6.351   5.690   0.822
 5664TIP3   OH216997   5.980   2.242   4.851
 5664TIP3    H116998   5.989   2.337   4.854
 5664TIP3    H216999   5.936   2.225   4.768
 5665TIP3   OH217000   2.118   3.784   1.052
 5665TIP3    H117001   2.139   3.877   1.045
 5665TIP3    H217002   2.065   3.778   1.131
 5666TIP3   OH217003   3.080   2.927   1.492
 5666TIP3    H117004   3.148   2.994   1.478
 5666TIP3    H217005   3.128   2.845   1.497
 5667TIP3   OH217006   4.779   0.583   0.992
 5667TIP3    H117007   4.851   0.635   0.958
 5667TIP3    H217008   4.728   0.559   0.915
 5668TIP3   OH217009   5.638   1.930   4.947
 5668TIP3    H117010   5.636   1.960   4.856
 5668TIP3    H217011   5.546   1.909   4.967
 5669TIP3   OH217012   1.273   5.491   0.081
 5669TIP3    H117013   1.310   5.413   0.038
 5669TIP3    H217014   1.339   5.559   0.066
 5670TIP3   OH217015   6.264   0.468   1.207
 5670TIP3    H117016   6.228   0.501   1.290
 5670TIP3    H217017   6.216   0.387   1.190
 5671TIP3   OH217018   5.053   4.768   3.115
 5671TIP3    H117019   5.089   4.781   3.027
 5671TIP3    H217020   5.110   4.702   3.154
 5672TIP3   OH217021   0.961   4.127   3.051
 5672TIP3    H117022   0.880   4.153   3.093
 5672TIP3    H217023   0.954   4.032   3.041
 5673TIP3   OH217024   1.787   1.177   1.392
 5673TIP3    H117025   1.880   1.154   1.392
 5673TIP3    H217026   1.746   1.110   1.447
 5674TIP3   OH217027   1.032   2.947   0.077
 5674TIP3    H117028   1.084   3.025   0.063
 5674TIP3    H217029   1.047   2.923   0.168
 5675TIP3   OH217030   5.915   2.365   4.348
 5675TIP3    H117031   5.874   2.301   4.290
 5675TIP3    H217032   5.912   2.447   4.300
 5676TIP3   OH217033   1.397   0.292   3.305
 5676TIP3    H117034   1.330   0.293   3.237
 5676TIP3    H217035   1.377   0.214   3.357
 5677TIP3   OH217036   0.586   0.036   3.085
 5677TIP3    H117037   0.628   0.122   3.075
 5677TIP3    H217038   0.501   0.046   3.043
 5678TIP3   OH217039   3.753   5.043   3.400
 5678TIP3    H117040   3.772   4.951   3.383
 5678TIP3    H217041   3.663   5.054   3.369
 5679TIP3   OH217042   3.429   4.328   1.459
 5679TIP3    H117043   3.371   4.373   1.520
 5679TIP3    H217044   3.511   4.316   1.507
 5680TIP3   OH217045   3.893   1.895   0.652
 5680TIP3    H117046   3.808   1.937   0.645
 5680TIP3    H217047   3.953   1.953   0.605
 5681TIP3   OH217048   0.579   2.360   4.246
 5681TIP3    H117049   0.506   2.356   4.308
 5681TIP3    H217050   0.626   2.278   4.260
 5682TIP3   OH217051   1.721   3.627   1.789
 5682TIP3    H117052   1.732   3.548   1.737
 5682TIP3    H217053   1.722   3.698   1.725
 5683TIP3   OH217054   2.073   3.469   3.322
 5683TIP3    H117055   2.126   3.493   3.398
 5683TIP3    H217056   2.060   3.374   3.331
 5684TIP3   OH217057   1.549   4.118   3.814
 5684TIP3    H117058   1.572   4.174   3.740
 5684TIP3    H217059   1.629   4.112   3.866
 5685TIP3   OH217060   3.895   1.096   3.501
 5685TIP3    H117061   3.979   1.140   3.488
 5685TIP3    H217062   3.870   1.118   3.591
 5686TIP3   OH217063   2.600   1.908   2.949
 5686TIP3    H117064   2.650   1.861   3.016
 5686TIP3    H217065   2.644   1.993   2.942
 5687TIP3   OH217066   5.730   0.371   0.660
 5687TIP3    H117067   5.789   0.315   0.709
 5687TIP3    H217068   5.691   0.429   0.725
 5688TIP3   OH217069   3.581   5.012   0.510
 5688TIP3    H117070   3.562   5.062   0.430
 5688TIP3    H217071   3.677   5.013   0.516
 5689TIP3   OH217072   2.808   3.678   4.836
 5689TIP3    H117073   2.876   3.699   4.899
 5689TIP3    H217074   2.771   3.764   4.812
 5690TIP3   OH217075   1.277   2.350   1.385
 5690TIP3    H117076   1.214   2.318   1.450
 5690TIP3    H217077   1.223   2.385   1.314
 5691TIP3   OH217078   0.411   4.660   0.046
 5691TIP3    H117079   0.464   4.594   0.089
 5691TIP3    H217080   0.325   4.653   0.088
 5692TIP3   OH217081   5.618   2.235   4.945
 5692TIP3    H117082   5.704   2.194   4.943
 5692TIP3    H217083   5.610   2.270   5.034
 5693TIP3   OH217084   0.168   1.798   1.019
 5693TIP3    H117085   0.211   1.724   0.977
 5693TIP3    H217086   0.204   1.875   0.975
 5694TIP3   OH217087   0.340   0.767   0.031
 5694TIP3    H117088   0.320   0.728  -0.054
 5694TIP3    H217089   0.307   0.703   0.094
 5695TIP3   OH217090   0.714   1.769   0.300
 5695TIP3    H117091   0.631   1.745   0.257
 5695TIP3    H217092   0.696   1.854   0.341
 5696TIP3   OH217093   1.891   2.633   4.814
 5696TIP3    H117094   1.916   2.604   4.727
 5696TIP3    H217095   1.859   2.722   4.802
 5697TIP3   OH217096   4.872   0.529   1.528
 5697TIP3    H117097   4.867   0.461   1.596
 5697TIP3    H217098   4.963   0.526   1.499
 5698TIP3   OH217099   3.304   2.398   0.162
 5698TIP3    H117100   3.386   2.403   0.114
 5698TIP3    H217101   3.320   2.331   0.229
 5699TIP3   OH217102   5.480   3.755   0.451
 5699TIP3    H117103   5.448   3.728   0.364
 5699TIP3    H217104   5.570   3.722   0.454
 5700TIP3   OH217105   2.647   5.510   4.615
 5700TIP3    H117106   2.679   5.515   4.705
 5700TIP3    H217107   2.638   5.601   4.587
 5701TIP3   OH217108   5.496   5.862   0.623
 5701TIP3    H117109   5.491   5.786   0.681
 5701TIP3    H217110   5.563   5.918   0.661
 5702TIP3   OH217111   2.082   3.514   4.820
 5702TIP3    H117112   2.074   3.481   4.731
 5702TIP3    H217113   2.020   3.587   4.825
 5703TIP3   OH217114   5.793   5.791   1.098
 5703TIP3    H117115   5.718   5.803   1.040
 5703TIP3    H217116   5.822   5.880   1.119
 5704TIP3   OH217117   5.966   1.766   0.258
 5704TIP3    H117118   5.978   1.671   0.250
 5704TIP3    H217119   6.030   1.803   0.198
 5705TIP3   OH217120   5.342   4.704   2.693
 5705TIP3    H117121   5.431   4.709   2.728
 5705TIP3    H217122   5.355   4.677   2.602
 5706TIP3   OH217123   1.333   5.724   3.004
 5706TIP3    H117124   1.408   5.771   2.969
 5706TIP3    H217125   1.346   5.725   3.099
 5707TIP3   OH217126   1.857   0.125   0.381
 5707TIP3    H117127   1.895   0.199   0.333
 5707TIP3    H217128   1.921   0.106   0.450
 5708TIP3   OH217129   3.930   5.224   4.372
 5708TIP3    H117130   3.927   5.131   4.393
 5708TIP3    H217131   3.852   5.239   4.318
 5709TIP3   OH217132   1.563   2.496   1.716
 5709TIP3    H117133   1.579   2.553   1.641
 5709TIP3    H217134   1.543   2.411   1.677
 5710TIP3   OH217135   1.056   2.935   3.882
 5710TIP3    H117136   1.025   2.914   3.970
 5710TIP3    H217137   0.977   2.931   3.827
 5711TIP3   OH217138   3.131   2.814   4.583
 5711TIP3    H117139   3.199   2.774   4.639
 5711TIP3    H217140   3.052   2.809   4.636
 5712TIP3   OH217141   1.994   1.489   3.458
 5712TIP3    H117142   1.992   1.394   3.473
 5712TIP3    H217143   2.047   1.523   3.530
 5713TIP3   OH217144   1.094   5.538   2.727
 5713TIP3    H117145   1.081   5.521   2.633
 5713TIP3    H217146   1.008   5.568   2.757
 5714TIP3   OH217147   4.426   0.214   2.545
 5714TIP3    H117148   4.389   0.145   2.600
 5714TIP3    H217149   4.350   0.259   2.508
 5715TIP3   OH217150   3.291   0.244   3.243
 5715TIP3    H117151   3.320   0.190   3.317
 5715TIP3    H217152   3.369   0.252   3.188
 5716TIP3   OH217153   1.602   4.122   2.257
 5716TIP3    H117154   1.567   4.098   2.343
 5716TIP3    H217155   1.674   4.061   2.242
 5717TIP3   OH217156   0.621   1.006   0.511
 5717TIP3    H117157   0.654   0.938   0.569
 5717TIP3    H217158   0.576   0.958   0.441
 5718TIP3   OH217159   5.559   2.894   0.046
 5718TIP3    H117160   5.587   2.910  -0.044
 5718TIP3    H217161   5.538   2.980   0.081
 5719TIP3   OH217162   0.644   4.710   5.034
 5719TIP3    H117163   0.622   4.650   4.962
 5719TIP3    H217164   0.645   4.796   4.993
 5720TIP3   OH217165   4.243   4.248   3.027
 5720TIP3    H117166   4.313   4.192   3.061
 5720TIP3    H217167   4.164   4.216   3.071
 5721TIP3   OH217168   2.550   0.336   1.575
 5721TIP3    H117169   2.608   0.275   1.528
 5721TIP3    H217170   2.541   0.410   1.516
 5722TIP3   OH217171   3.879   1.233   2.974
 5722TIP3    H117172   3.905   1.246   2.883
 5722TIP3    H217173   3.912   1.310   3.021
 5723TIP3   OH217174   2.249   4.997   0.090
 5723TIP3    H117175   2.225   5.026   0.178
 5723TIP3    H217176   2.247   4.901   0.095
 5724TIP3   OH217177   3.829   5.138   4.718
 5724TIP3    H117178   3.847   5.229   4.742
 5724TIP3    H217179   3.909   5.109   4.674
 5725TIP3   OH217180   0.150   3.873   2.877
 5725TIP3    H117181   0.103   3.911   2.951
 5725TIP3    H217182   0.165   3.947   2.818
 5726TIP3   OH217183   4.294   3.862   4.553
 5726TIP3    H117184   4.375   3.911   4.543
 5726TIP3    H217185   4.252   3.901   4.630
 5727TIP3   OH217186   5.037   0.598   2.866
 5727TIP3    H117187   5.108   0.642   2.820
 5727TIP3    H217188   4.964   0.597   2.803
 5728TIP3   OH217189   2.594   4.193   0.106
 5728TIP3    H117190   2.577   4.123   0.168
 5728TIP3    H217191   2.573   4.155   0.020
 5729TIP3   OH217192   5.414   3.196   3.183
 5729TIP3    H117193   5.416   3.172   3.275
 5729TIP3    H217194   5.413   3.113   3.136
 5730TIP3   OH217195   5.893   5.734   1.951
 5730TIP3    H117196   5.892   5.639   1.958
 5730TIP3    H217197   5.971   5.754   1.899
 5731TIP3   OH217198   0.676   4.013   4.394
 5731TIP3    H117199   0.602   4.058   4.354
 5731TIP3    H217200   0.660   3.920   4.377
 5732TIP3   OH217201   2.115   4.631   0.913
 5732TIP3    H117202   2.159   4.606   0.995
 5732TIP3    H217203   2.155   4.574   0.847
 5733TIP3   OH217204   0.301   3.580   2.225
 5733TIP3    H117205   0.368   3.534   2.275
 5733TIP3    H217206   0.339   3.665   2.206
 5734TIP3   OH217207   0.975   0.412   2.988
 5734TIP3    H117208   0.935   0.479   2.932
 5734TIP3    H217209   0.900   0.362   3.021
 5735TIP3   OH217210   3.635   0.711   0.592
 5735TIP3    H117211   3.691   0.753   0.527
 5735TIP3    H217212   3.546   0.738   0.569
 5736TIP3   OH217213   4.044   2.446   3.535
 5736TIP3    H117214   4.119   2.438   3.475
 5736TIP3    H217215   4.051   2.535   3.570
 5737TIP3   OH217216   0.769   5.215  -0.026
 5737TIP3    H117217   0.799   5.170   0.053
 5737TIP3    H217218   0.715   5.287   0.007
 5738TIP3   OH217219   3.555   1.769   3.281
 5738TIP3    H117220   3.602   1.841   3.238
 5738TIP3    H217221   3.503   1.812   3.349
 5739TIP3   OH217222   4.383   4.891   3.780
 5739TIP3    H117223   4.376   4.821   3.845
 5739TIP3    H217224   4.295   4.928   3.775
 5740TIP3   OH217225   2.556   4.212   1.142
 5740TIP3    H117226   2.632   4.162   1.112
 5740TIP3    H217227   2.591   4.298   1.166
 5741TIP3   OH217228   4.157   0.804   0.554
 5741TIP3    H117229   4.158   0.887   0.602
 5741TIP3    H217230   4.214   0.820   0.478
 5742TIP3   OH217231   2.261   0.365   3.741
 5742TIP3    H117232   2.333   0.385   3.801
 5742TIP3    H217233   2.200   0.438   3.751
 5743TIP3   OH217234   0.097   5.986   4.830
 5743TIP3    H117235   0.174   6.034   4.800
 5743TIP3    H217236   0.130   5.901   4.859
 5744TIP3   OH217237   2.375   3.214   4.159
 5744TIP3    H117238   2.303   3.220   4.222
 5744TIP3    H217239   2.428   3.292   4.176
 5745TIP3   OH217240   5.652   4.009   0.410
 5745TIP3    H117241   5.684   3.920   0.427
 5745TIP3    H217242   5.726   4.054   0.370
 5746TIP3   OH217243   1.363   2.679   3.478
 5746TIP3    H117244   1.431   2.638   3.530
 5746TIP3    H217245   1.399   2.683   3.389
 5747TIP3   OH217246   4.610   4.611   0.976
 5747TIP3    H117247   4.681   4.670   1.001
 5747TIP3    H217248   4.541   4.668   0.942
 5748TIP3   OH217249   3.819   0.718   3.465
 5748TIP3    H117250   3.759   0.773   3.515
 5748TIP3    H217251   3.819   0.634   3.512
 5749TIP3   OH217252   0.697   5.903   4.670
 5749TIP3    H117253   0.743   5.940   4.745
 5749TIP3    H217254   0.766   5.859   4.619
 5750TIP3   OH217255   4.138   3.865   3.315
 5750TIP3    H117256   4.229   3.890   3.326
 5750TIP3    H217257   4.088   3.937   3.352
 5751TIP3   OH217258   0.611   3.143   3.872
 5751TIP3    H117259   0.654   3.136   3.787
 5751TIP3    H217260   0.518   3.150   3.850
 5752TIP3   OH217261   3.134   3.222   4.425
 5752TIP3    H117262   3.062   3.263   4.473
 5752TIP3    H217263   3.172   3.160   4.487
 5753TIP3   OH217264   6.292   4.547   4.170
 5753TIP3    H117265   6.361   4.581   4.227
 5753TIP3    H217266   6.249   4.625   4.135
 5754TIP3   OH217267   3.962   4.055   0.065
 5754TIP3    H117268   3.988   4.102   0.144
 5754TIP3    H217269   3.866   4.050   0.070
 5755TIP3   OH217270   4.829   5.942   0.282
 5755TIP3    H117271   4.733   5.943   0.284
 5755TIP3    H217272   4.855   5.917   0.370
 5756TIP3   OH217273   3.991   4.104   3.105
 5756TIP3    H117274   3.988   4.016   3.067
 5756TIP3    H217275   3.912   4.147   3.071
 5757TIP3   OH217276   3.010   3.072   1.714
 5757TIP3    H117277   3.005   3.032   1.801
 5757TIP3    H217278   2.976   3.004   1.655
 5758TIP3   OH217279   0.239   1.183   4.383
 5758TIP3    H117280   0.144   1.195   4.371
 5758TIP3    H217281   0.246   1.120   4.454
 5759TIP3   OH217282   5.606   4.761   1.776
 5759TIP3    H117283   5.555   4.841   1.764
 5759TIP3    H217284   5.664   4.781   1.849
 5760TIP3   OH217285   2.481   4.821   1.883
 5760TIP3    H117286   2.466   4.733   1.848
 5760TIP3    H217287   2.535   4.808   1.961
 5761TIP3   OH217288   4.145   5.431   2.973
 5761TIP3    H117289   4.166   5.361   2.911
 5761TIP3    H217290   4.049   5.436   2.972
 5762TIP3   OH217291   4.649   1.732   3.041
 5762TIP3    H117292   4.592   1.677   3.095
 5762TIP3    H217293   4.729   1.740   3.093
 5763TIP3   OH217294   0.196   0.656   4.719
 5763TIP3    H117295   0.130   0.653   4.649
 5763TIP3    H217296   0.278   0.633   4.675
 5764TIP3   OH217297   5.803   2.918   3.207
 5764TIP3    H117298   5.721   2.894   3.165
 5764TIP3    H217299   5.780   2.988   3.268
 5765TIP3   OH217300   0.737   3.248   1.795
 5765TIP3    H117301   0.738   3.165   1.843
 5765TIP3    H217302   0.792   3.306   1.848
 5766TIP3   OH217303   1.424   2.876   2.944
 5766TIP3    H117304   1.470   2.955   2.914
 5766TIP3    H217305   1.432   2.814   2.871
 5767TIP3   OH217306   4.277   2.745   2.227
 5767TIP3    H117307   4.265   2.651   2.237
 5767TIP3    H217308   4.268   2.760   2.133
 5768TIP3   OH217309   1.789   4.194   0.597
 5768TIP3    H117310   1.839   4.149   0.529
 5768TIP3    H217311   1.734   4.126   0.635
 5769TIP3   OH217312   6.318   0.119   2.535
 5769TIP3    H117313   6.267   0.194   2.566
 5769TIP3    H217314   6.253   0.055   2.507
 5770TIP3   OH217315   3.868   5.159   1.698
 5770TIP3    H117316   3.907   5.243   1.675
 5770TIP3    H217317   3.907   5.097   1.636
 5771TIP3   OH217318   3.971   2.791   4.125
 5771TIP3    H117319   4.021   2.714   4.097
 5771TIP3    H217320   3.947   2.835   4.044
 5772TIP3   OH217321   5.783   1.093   0.362
 5772TIP3    H117322   5.792   1.069   0.270
 5772TIP3    H217323   5.873   1.104   0.393
 5773TIP3   OH217324   6.028   4.723   1.023
 5773TIP3    H117325   6.059   4.785   0.957
 5773TIP3    H217326   5.954   4.679   0.981
 5774TIP3   OH217327   4.513   3.174   2.787
 5774TIP3    H117328   4.419   3.160   2.801
 5774TIP3    H217329   4.522   3.269   2.783
 5775TIP3   OH217330   6.068   2.851   3.631
 5775TIP3    H117331   6.100   2.940   3.647
 5775TIP3    H217332   6.056   2.847   3.536
 5776TIP3   OH217333   3.100   1.108   4.724
 5776TIP3    H117334   3.016   1.119   4.768
 5776TIP3    H217335   3.163   1.153   4.782
 5777TIP3   OH217336   0.795   5.014   2.220
 5777TIP3    H117337   0.740   5.069   2.164
 5777TIP3    H217338   0.798   4.929   2.177
 5778TIP3   OH217339   3.631   5.452   1.381
 5778TIP3    H117340   3.625   5.450   1.286
 5778TIP3    H217341   3.653   5.362   1.406
 5779TIP3   OH217342   1.029   4.889   1.710
 5779TIP3    H117343   1.098   4.845   1.660
 5779TIP3    H217344   1.025   4.977   1.672
 5780TIP3   OH217345   0.668   4.505   1.863
 5780TIP3    H117346   0.717   4.561   1.802
 5780TIP3    H217347   0.708   4.419   1.853
 5781TIP3   OH217348   5.848   5.053   0.131
 5781TIP3    H117349   5.896   4.981   0.172
 5781TIP3    H217350   5.786   5.010   0.071
 5782TIP3   OH217351   2.869   3.184   0.390
 5782TIP3    H117352   2.827   3.117   0.336
 5782TIP3    H217353   2.921   3.134   0.453
 5783TIP3   OH217354   1.660   1.557   0.706
 5783TIP3    H117355   1.650   1.469   0.669
 5783TIP3    H217356   1.700   1.608   0.635
 5784TIP3   OH217357   2.910   5.823   4.944
 5784TIP3    H117358   2.993   5.870   4.937
 5784TIP3    H217359   2.876   5.846   5.030
 5785TIP3   OH217360   5.187   0.299   2.109
 5785TIP3    H117361   5.192   0.386   2.147
 5785TIP3    H217362   5.276   0.263   2.119
 5786TIP3   OH217363   0.340   2.434   5.156
 5786TIP3    H117364   0.355   2.409   5.065
 5786TIP3    H217365   0.301   2.357   5.197
 5787TIP3   OH217366   4.377   2.759   0.783
 5787TIP3    H117367   4.359   2.675   0.826
 5787TIP3    H217368   4.406   2.816   0.854
 5788TIP3   OH217369   5.443   0.665   3.866
 5788TIP3    H117370   5.492   0.747   3.875
 5788TIP3    H217371   5.424   0.637   3.955
 5789TIP3   OH217372   3.807   1.499   2.108
 5789TIP3    H117373   3.894   1.462   2.127
 5789TIP3    H217374   3.789   1.557   2.182
 5790TIP3   OH217375   2.414   0.173   1.852
 5790TIP3    H117376   2.414   0.235   1.925
 5790TIP3    H217377   2.328   0.184   1.811
 5791TIP3   OH217378   4.792   3.410   2.954
 5791TIP3    H117379   4.849   3.487   2.954
 5791TIP3    H217380   4.704   3.445   2.963
 5792TIP3   OH217381   5.048   3.099   2.689
 5792TIP3    H117382   4.994   3.177   2.676
 5792TIP3    H217383   5.017   3.062   2.772
 5793TIP3   OH217384   1.378   3.082   1.443
 5793TIP3    H117385   1.371   3.055   1.535
 5793TIP3    H217386   1.330   3.165   1.439
 5794TIP3   OH217387   4.326   2.464   3.799
 5794TIP3    H117388   4.283   2.483   3.715
 5794TIP3    H217389   4.285   2.382   3.828
 5795TIP3   OH217390   5.042   2.627   1.474
 5795TIP3    H117391   5.014   2.620   1.565
 5795TIP3    H217392   5.137   2.623   1.477
 5796TIP3   OH217393   3.357   2.195   0.342
 5796TIP3    H117394   3.418   2.123   0.332
 5796TIP3    H217395   3.291   2.162   0.403
 5797TIP3   OH217396   5.102   1.667   2.721
 5797TIP3    H117397   5.082   1.573   2.721
 5797TIP3    H217398   5.143   1.683   2.636
 5798TIP3   OH217399   2.179   0.318   1.783
 5798TIP3    H117400   2.101   0.289   1.735
 5798TIP3    H217401   2.203   0.401   1.742
 5799TIP3   OH217402   3.784   5.923   1.879
 5799TIP3    H117403   3.743   5.946   1.796
 5799TIP3    H217404   3.874   5.955   1.872
 5800TIP3   OH217405   4.459   3.130   3.496
 5800TIP3    H117406   4.495   3.118   3.584
 5800TIP3    H217407   4.499   3.211   3.465
 5801TIP3   OH217408   2.417   5.823   2.066
 5801TIP3    H117409   2.480   5.895   2.068
 5801TIP3    H217410   2.471   5.745   2.050
 5802TIP3   OH217411   3.621   1.671   2.805
 5802TIP3    H117412   3.708   1.636   2.825
 5802TIP3    H217413   3.598   1.632   2.720
 5803TIP3   OH217414   3.465   1.341   4.889
 5803TIP3    H117415   3.495   1.428   4.864
 5803TIP3    H217416   3.381   1.356   4.933
 5804TIP3   OH217417   2.259   4.541   2.210
 5804TIP3    H117418   2.230   4.476   2.147
 5804TIP3    H217419   2.310   4.604   2.158
 5805TIP3   OH217420   5.927   0.475   1.432
 5805TIP3    H117421   5.868   0.538   1.473
 5805TIP3    H217422   5.871   0.401   1.410
 5806TIP3   OH217423   5.689   2.036   1.976
 5806TIP3    H117424   5.784   2.033   1.964
 5806TIP3    H217425   5.663   2.119   1.934
 5807TIP3   OH217426   1.828   3.774   2.465
 5807TIP3    H117427   1.790   3.780   2.553
 5807TIP3    H217428   1.920   3.753   2.480
 5808TIP3   OH217429   4.011   1.539   3.374
 5808TIP3    H117430   3.995   1.503   3.287
 5808TIP3    H217431   3.962   1.621   3.375
 5809TIP3   OH217432   1.877   5.556   4.015
 5809TIP3    H117433   1.814   5.490   3.984
 5809TIP3    H217434   1.920   5.587   3.936
 5810TIP3   OH217435   0.236   0.445   3.731
 5810TIP3    H117436   0.174   0.461   3.660
 5810TIP3    H217437   0.197   0.374   3.782
 5811TIP3   OH217438   1.129   0.697   2.754
 5811TIP3    H117439   1.156   0.634   2.820
 5811TIP3    H217440   1.034   0.682   2.745
 5812TIP3   OH217441   3.953   4.550   1.577
 5812TIP3    H117442   3.977   4.600   1.655
 5812TIP3    H217443   3.922   4.617   1.515
 5813TIP3   OH217444   5.668   5.020   0.395
 5813TIP3    H117445   5.658   5.102   0.444
 5813TIP3    H217446   5.732   5.041   0.327
 5814TIP3   OH217447   3.221   0.861   4.708
 5814TIP3    H117448   3.146   0.801   4.711
 5814TIP3    H217449   3.181   0.948   4.701
 5815TIP3   OH217450   1.932   0.758   2.598
 5815TIP3    H117451   1.983   0.677   2.599
 5815TIP3    H217452   1.850   0.734   2.554
 5816TIP3   OH217453   6.236   1.813   2.695
 5816TIP3    H117454   6.166   1.831   2.632
 5816TIP3    H217455   6.282   1.897   2.704
 5817TIP3   OH217456   5.846   1.863   4.344
 5817TIP3    H117457   5.849   1.769   4.325
 5817TIP3    H217458   5.753   1.881   4.358
 5818TIP3   OH217459   2.287   5.914   2.322
 5818TIP3    H117460   2.259   5.995   2.278
 5818TIP3    H217461   2.321   5.859   2.251
 5819TIP3   OH217462   1.398   1.159   4.837
 5819TIP3    H117463   1.389   1.254   4.839
 5819TIP3    H217464   1.425   1.139   4.747
 5820TIP3   OH217465   2.903   5.467   0.282
 5820TIP3    H117466   2.964   5.422   0.224
 5820TIP3    H217467   2.942   5.460   0.369
 5821TIP3   OH217468   1.826   1.851   0.768
 5821TIP3    H117469   1.854   1.823   0.855
 5821TIP3    H217470   1.833   1.946   0.770
 5822TIP3   OH217471   3.837  -0.026   2.203
 5822TIP3    H117472   3.741  -0.026   2.205
 5822TIP3    H217473   3.861   0.065   2.188
 5823TIP3   OH217474   0.713   2.099   1.819
 5823TIP3    H117475   0.673   2.164   1.877
 5823TIP3    H217476   0.642   2.071   1.761
 5824TIP3   OH217477   2.079   2.318   5.010
 5824TIP3    H117478   2.071   2.333   5.105
 5824TIP3    H217479   2.004   2.365   4.973
 5825TIP3   OH217480   4.204   1.260   1.161
 5825TIP3    H117481   4.127   1.203   1.151
 5825TIP3    H217482   4.276   1.210   1.122
 5826TIP3   OH217483   5.098   2.290   4.190
 5826TIP3    H117484   5.178   2.294   4.139
 5826TIP3    H217485   5.061   2.378   4.183
 5827TIP3   OH217486   1.108   4.454   2.204
 5827TIP3    H117487   1.111   4.502   2.287
 5827TIP3    H217488   1.074   4.518   2.141
 5828TIP3   OH217489   1.042   2.854   4.197
 5828TIP3    H117490   1.033   2.852   4.292
 5828TIP3    H217491   0.953   2.840   4.164
 5829TIP3   OH217492   3.328   3.417   1.365
 5829TIP3    H117493   3.254   3.387   1.418
 5829TIP3    H217494   3.363   3.492   1.414
 5830TIP3   OH217495   2.557   5.826   4.001
 5830TIP3    H117496   2.589   5.759   4.061
 5830TIP3    H217497   2.571   5.790   3.914
 5831TIP3   OH217498   6.064   2.340   4.009
 5831TIP3    H117499   6.032   2.254   4.037
 5831TIP3    H217500   5.997   2.401   4.038
 5832TIP3   OH217501   2.188   4.511   0.635
 5832TIP3    H117502   2.207   4.421   0.664
 5832TIP3    H217503   2.131   4.500   0.559
 5833TIP3   OH217504   5.365   5.097   4.984
 5833TIP3    H117505   5.456   5.068   4.980
 5833TIP3    H217506   5.369   5.189   4.958
 5834TIP3   OH217507   5.063   2.821   4.730
 5834TIP3    H117508   4.981   2.787   4.695
 5834TIP3    H217509   5.041   2.850   4.818
 5835TIP3   OH217510   3.667   3.982   0.174
 5835TIP3    H117511   3.595   3.933   0.215
 5835TIP3    H217512   3.641   3.988   0.082
 5836TIP3   OH217513   0.670   5.316   3.605
 5836TIP3    H117514   0.739   5.268   3.652
 5836TIP3    H217515   0.704   5.323   3.516
 5837TIP3   OH217516   0.885   1.302   0.584
 5837TIP3    H117517   0.884   1.397   0.586
 5837TIP3    H217518   0.807   1.278   0.533
 5838TIP3   OH217519   5.545   2.902   1.138
 5838TIP3    H117520   5.480   2.904   1.067
 5838TIP3    H217521   5.626   2.874   1.095
 5839TIP3   OH217522   6.291   0.581   1.865
 5839TIP3    H117523   6.331   0.620   1.942
 5839TIP3    H217524   6.290   0.652   1.800
 5840TIP3   OH217525   0.312   4.967   1.940
 5840TIP3    H117526   0.226   4.926   1.948
 5840TIP3    H217527   0.368   4.898   1.904
 5841TIP3   OH217528   2.741   3.600   4.426
 5841TIP3    H117529   2.808   3.587   4.359
 5841TIP3    H217530   2.696   3.680   4.398
 5842TIP3   OH217531   3.314   5.727   1.059
 5842TIP3    H117532   3.279   5.640   1.039
 5842TIP3    H217533   3.251   5.788   1.021
 5843TIP3   OH217534   3.239   2.834   4.902
 5843TIP3    H117535   3.179   2.881   4.961
 5843TIP3    H217536   3.325   2.844   4.943
 5844TIP3   OH217537   5.737   1.919   3.441
 5844TIP3    H117538   5.781   1.893   3.522
 5844TIP3    H217539   5.675   1.848   3.424
 5845TIP3   OH217540   1.925   5.712   2.850
 5845TIP3    H117541   1.912   5.650   2.778
 5845TIP3    H217542   1.891   5.795   2.817
 5846TIP3   OH217543   2.581   2.351   2.452
 5846TIP3    H117544   2.671   2.318   2.450
 5846TIP3    H217545   2.564   2.377   2.361
 5847TIP3   OH217546   2.326   5.159   4.801
 5847TIP3    H117547   2.326   5.149   4.705
 5847TIP3    H217548   2.418   5.157   4.825
 5848TIP3   OH217549   4.534   3.883   0.496
 5848TIP3    H117550   4.592   3.957   0.511
 5848TIP3    H217551   4.559   3.850   0.410
 5849TIP3   OH217552   2.518   3.308   3.609
 5849TIP3    H117553   2.613   3.305   3.600
 5849TIP3    H217554   2.490   3.218   3.593
 5850TIP3   OH217555   6.103   5.347   3.313
 5850TIP3    H117556   6.053   5.351   3.395
 5850TIP3    H217557   6.194   5.339   3.340
 5851TIP3   OH217558   1.459   1.261   3.069
 5851TIP3    H117559   1.427   1.297   2.986
 5851TIP3    H217560   1.544   1.221   3.047
 5852TIP3   OH217561   4.637   5.241   1.624
 5852TIP3    H117562   4.649   5.251   1.529
 5852TIP3    H217563   4.554   5.284   1.642
 5853TIP3   OH217564   2.345   2.881   2.812
 5853TIP3    H117565   2.418   2.848   2.759
 5853TIP3    H217566   2.277   2.815   2.802
 5854TIP3   OH217567   5.606   3.009   1.880
 5854TIP3    H117568   5.515   3.033   1.897
 5854TIP3    H217569   5.609   2.915   1.895
 5855TIP3   OH217570   1.905   4.147   3.353
 5855TIP3    H117571   1.842   4.145   3.280
 5855TIP3    H217572   1.908   4.056   3.383
 5856TIP3   OH217573   1.643   4.581   4.388
 5856TIP3    H117574   1.647   4.524   4.311
 5856TIP3    H217575   1.696   4.536   4.453
 5857TIP3   OH217576   6.254   1.018   3.199
 5857TIP3    H117577   6.174   1.039   3.247
 5857TIP3    H217578   6.287   1.103   3.169
 5858TIP3   OH217579   5.418   5.372   2.117
 5858TIP3    H117580   5.400   5.289   2.162
 5858TIP3    H217581   5.341   5.386   2.063
 5859TIP3   OH217582   6.037   1.575   1.614
 5859TIP3    H117583   6.072   1.660   1.643
 5859TIP3    H217584   6.005   1.592   1.526
 5860TIP3   OH217585   1.577   4.550   0.813
 5860TIP3    H117586   1.671   4.537   0.802
 5860TIP3    H217587   1.544   4.557   0.723
 5861TIP3   OH217588   5.457   4.266   2.284
 5861TIP3    H117589   5.406   4.334   2.329
 5861TIP3    H217590   5.425   4.184   2.320
 5862TIP3   OH217591   6.150   0.138   2.962
 5862TIP3    H117592   6.133   0.064   2.903
 5862TIP3    H217593   6.205   0.197   2.911
 5863TIP3   OH217594   2.681   1.269   3.190
 5863TIP3    H117595   2.633   1.352   3.200
 5863TIP3    H217596   2.619   1.202   3.218
 5864TIP3   OH217597   0.733   0.183   0.548
 5864TIP3    H117598   0.711   0.152   0.635
 5864TIP3    H217599   0.804   0.127   0.519
 5865TIP3   OH217600   1.735   3.724   3.491
 5865TIP3    H117601   1.657   3.691   3.536
 5865TIP3    H217602   1.751   3.661   3.421
 5866TIP3   OH217603   0.097   2.976   1.600
 5866TIP3    H117604   0.085   2.925   1.680
 5866TIP3    H217605   0.145   2.917   1.542
 5867TIP3   OH217606   3.772   4.956   3.987
 5867TIP3    H117607   3.694   4.902   3.998
 5867TIP3    H217608   3.739   5.042   3.962
 5868TIP3   OH217609   1.083   2.083   1.164
 5868TIP3    H117610   1.090   2.019   1.235
 5868TIP3    H217611   1.007   2.136   1.187
 5869TIP3   OH217612   5.858   1.424   2.217
 5869TIP3    H117613   5.901   1.385   2.141
 5869TIP3    H217614   5.917   1.493   2.246
 5870TIP3   OH217615   2.290   0.073   0.656
 5870TIP3    H117616   2.245  -0.008   0.634
 5870TIP3    H217617   2.299   0.070   0.752
 5871TIP3   OH217618   5.321   0.739   1.212
 5871TIP3    H117619   5.303   0.832   1.224
 5871TIP3    H217620   5.243   0.694   1.245
 5872TIP3   OH217621   3.615   2.946   3.353
 5872TIP3    H117622   3.549   2.879   3.367
 5872TIP3    H217623   3.574   3.028   3.382
 5873TIP3   OH217624   6.338   0.749   5.063
 5873TIP3    H117625   6.257   0.698   5.055
 5873TIP3    H217626   6.310   0.839   5.048
 5874TIP3   OH217627   5.512   5.604   3.461
 5874TIP3    H117628   5.586   5.662   3.480
 5874TIP3    H217629   5.502   5.607   3.366
 5875TIP3   OH217630   1.628   2.237   3.952
 5875TIP3    H117631   1.569   2.220   3.878
 5875TIP3    H217632   1.574   2.287   4.013
 5876TIP3   OH217633   5.363   4.925   3.533
 5876TIP3    H117634   5.433   4.968   3.582
 5876TIP3    H217635   5.335   4.853   3.590
 5877TIP3   OH217636   0.722   1.642   1.741
 5877TIP3    H117637   0.628   1.660   1.751
 5877TIP3    H217638   0.738   1.567   1.798
 5878TIP3   OH217639   1.163   0.817   1.811
 5878TIP3    H117640   1.136   0.884   1.747
 5878TIP3    H217641   1.238   0.856   1.857
 5879TIP3   OH217642   5.571   2.877   5.069
 5879TIP3    H117643   5.481   2.908   5.081
 5879TIP3    H217644   5.609   2.939   5.006
 5880TIP3   OH217645   2.490   4.964   0.989
 5880TIP3    H117646   2.555   4.979   0.920
 5880TIP3    H217647   2.410   5.007   0.956
 5881TIP3   OH217648   6.148   3.349   1.169
 5881TIP3    H117649   6.199   3.297   1.108
 5881TIP3    H217650   6.191   3.336   1.254
 5882TIP3   OH217651   1.809   5.400   1.000
 5882TIP3    H117652   1.855   5.479   0.972
 5882TIP3    H217653   1.835   5.388   1.092
 5883TIP3   OH217654   4.941   0.184   2.096
 5883TIP3    H117655   5.005   0.117   2.071
 5883TIP3    H217656   4.994   0.263   2.111
 5884TIP3   OH217657   0.500   3.078   0.758
 5884TIP3    H117658   0.504   3.083   0.853
 5884TIP3    H217659   0.457   2.995   0.740
 5885TIP3   OH217660   0.391   2.505   3.676
 5885TIP3    H117661   0.340   2.437   3.720
 5885TIP3    H217662   0.391   2.579   3.738
 5886TIP3   OH217663   5.087   3.545   2.438
 5886TIP3    H117664   5.171   3.501   2.445
 5886TIP3    H217665   5.099   3.611   2.370
 5887TIP3   OH217666   4.626   4.636   1.659
 5887TIP3    H117667   4.684   4.561   1.645
 5887TIP3    H217668   4.599   4.628   1.750
 5888TIP3   OH217669   2.118   2.850   3.444
 5888TIP3    H117670   2.105   2.794   3.520
 5888TIP3    H217671   2.187   2.808   3.394
 5889TIP3   OH217672   1.822   4.462   0.533
 5889TIP3    H117673   1.753   4.485   0.470
 5889TIP3    H217674   1.803   4.371   0.558
 5890TIP3   OH217675   2.131   5.672   4.593
 5890TIP3    H117676   2.077   5.638   4.522
 5890TIP3    H217677   2.208   5.615   4.594
 5891TIP3   OH217678   3.098   3.335   4.727
 5891TIP3    H117679   3.028   3.296   4.779
 5891TIP3    H217680   3.174   3.277   4.742
 5892TIP3   OH217681   4.764   4.377   0.280
 5892TIP3    H117682   4.788   4.292   0.317
 5892TIP3    H217683   4.673   4.391   0.307
 5893TIP3   OH217684   1.118   5.077   3.977
 5893TIP3    H117685   1.079   4.998   3.939
 5893TIP3    H217686   1.054   5.106   4.042
 5894TIP3   OH217687   1.196   4.238   3.806
 5894TIP3    H117688   1.146   4.320   3.801
 5894TIP3    H217689   1.286   4.263   3.785
 5895TIP3   OH217690   2.324   1.921   2.677
 5895TIP3    H117691   2.234   1.952   2.668
 5895TIP3    H217692   2.368   1.949   2.597
 5896TIP3   OH217693   4.899   0.064   2.555
 5896TIP3    H117694   4.830   0.061   2.489
 5896TIP3    H217695   4.976   0.096   2.507
 5897TIP3   OH217696   0.251   2.307   1.190
 5897TIP3    H117697   0.228   2.234   1.248
 5897TIP3    H217698   0.166   2.341   1.160
 5898TIP3   OH217699   2.090   3.271   1.218
 5898TIP3    H117700   2.121   3.193   1.173
 5898TIP3    H217701   2.071   3.334   1.148
 5899TIP3   OH217702   1.266   2.604   4.386
 5899TIP3    H117703   1.344   2.593   4.331
 5899TIP3    H217704   1.198   2.633   4.326
 5900TIP3   OH217705   1.191   1.482   0.555
 5900TIP3    H117706   1.148   1.512   0.475
 5900TIP3    H217707   1.156   1.541   0.623
 5901TIP3   OH217708   0.682   1.447   0.799
 5901TIP3    H117709   0.666   1.352   0.795
 5901TIP3    H217710   0.752   1.456   0.864
 5902TIP3   OH217711   0.578   3.400   1.009
 5902TIP3    H117712   0.601   3.441   1.093
 5902TIP3    H217713   0.523   3.465   0.965
 5903TIP3   OH217714   3.062   1.198   3.420
 5903TIP3    H117715   2.978   1.237   3.443
 5903TIP3    H217716   3.044   1.104   3.415
 5904TIP3   OH217717   4.756   1.080   2.232
 5904TIP3    H117718   4.760   1.078   2.328
 5904TIP3    H217719   4.798   0.998   2.205
 5905TIP3   OH217720   1.062   4.074   0.451
 5905TIP3    H117721   1.056   4.167   0.431
 5905TIP3    H217722   0.985   4.057   0.506
 5906TIP3   OH217723   2.196   5.308   1.983
 5906TIP3    H117724   2.161   5.260   1.908
 5906TIP3    H217725   2.281   5.341   1.953
 5907TIP3   OH217726   5.789   5.984   1.957
 5907TIP3    H117727   5.778   5.985   2.052
 5907TIP3    H217728   5.831   5.900   1.938
 5908TIP3   OH217729   4.624   0.248   0.381
 5908TIP3    H117730   4.680   0.218   0.452
 5908TIP3    H217731   4.609   0.170   0.327
 5909TIP3   OH217732   1.458   4.511   3.280
 5909TIP3    H117733   1.390   4.577   3.288
 5909TIP3    H217734   1.534   4.549   3.325
 5910TIP3   OH217735   4.549   3.514   0.865
 5910TIP3    H117736   4.510   3.474   0.942
 5910TIP3    H217737   4.535   3.608   0.876
 5911TIP3   OH217738   1.911   1.327   4.571
 5911TIP3    H117739   1.924   1.414   4.608
 5911TIP3    H217740   1.942   1.334   4.481
 5912TIP3   OH217741   1.114   3.603   4.322
 5912TIP3    H117742   1.093   3.606   4.415
 5912TIP3    H217743   1.187   3.541   4.315
 5913TIP3   OH217744   0.357   2.392   4.400
 5913TIP3    H117745   0.328   2.435   4.319
 5913TIP3    H217746   0.283   2.338   4.426
 5914TIP3   OH217747   1.489   0.098   4.082
 5914TIP3    H117748   1.400   0.133   4.090
 5914TIP3    H217749   1.523   0.098   4.171
 5915TIP3   OH217750   4.402   0.778   2.865
 5915TIP3    H117751   4.320   0.737   2.894
 5915TIP3    H217752   4.376   0.831   2.789
 5916TIP3   OH217753   0.249   0.411   0.810
 5916TIP3    H117754   0.321   0.407   0.748
 5916TIP3    H217755   0.207   0.325   0.803
 5917TIP3   OH217756   0.694   5.191   3.930
 5917TIP3    H117757   0.761   5.260   3.937
 5917TIP3    H217758   0.718   5.144   3.850
 5918TIP3   OH217759   2.224   1.869   3.519
 5918TIP3    H117760   2.278   1.857   3.597
 5918TIP3    H217761   2.282   1.910   3.455
 5919TIP3   OH217762   0.277   3.957   5.043
 5919TIP3    H117763   0.357   3.991   5.003
 5919TIP3    H217764   0.297   3.865   5.063
 5920TIP3   OH217765   2.559   1.630   4.128
 5920TIP3    H117766   2.548   1.655   4.036
 5920TIP3    H217767   2.594   1.709   4.170
 5921TIP3   OH217768   3.615   0.408   4.027
 5921TIP3    H117769   3.667   0.480   4.062
 5921TIP3    H217770   3.539   0.402   4.085
 5922TIP3   OH217771   4.844   2.383   3.553
 5922TIP3    H117772   4.920   2.344   3.509
 5922TIP3    H217773   4.775   2.317   3.546
 5923TIP3   OH217774   3.493   5.065   5.147
 5923TIP3    H117775   3.435   4.990   5.138
 5923TIP3    H217776   3.558   5.054   5.078
 5924TIP3   OH217777   2.460   5.061   2.770
 5924TIP3    H117778   2.500   5.137   2.812
 5924TIP3    H217779   2.366   5.076   2.778
 5925TIP3   OH217780   2.255   5.008   0.868
 5925TIP3    H117781   2.169   4.978   0.839
 5925TIP3    H217782   2.316   4.945   0.831
 5926TIP3   OH217783   4.708   0.642   1.292
 5926TIP3    H117784   4.764   0.592   1.351
 5926TIP3    H217785   4.724   0.604   1.205
 5927TIP3   OH217786   0.481   0.646   4.676
 5927TIP3    H117787   0.446   0.639   4.765
 5927TIP3    H217788   0.499   0.740   4.665
 5928TIP3   OH217789   6.070   4.351   3.459
 5928TIP3    H117790   6.128   4.282   3.428
 5928TIP3    H217791   6.069   4.415   3.388
 5929TIP3   OH217792   1.258   2.883   4.946
 5929TIP3    H117793   1.318   2.832   4.892
 5929TIP3    H217794   1.238   2.961   4.893
 5930TIP3   OH217795   0.721   4.132   1.255
 5930TIP3    H117796   0.693   4.062   1.315
 5930TIP3    H217797   0.815   4.118   1.244
 5931TIP3   OH217798   3.684   4.735   2.515
 5931TIP3    H117799   3.743   4.805   2.544
 5931TIP3    H217800   3.686   4.740   2.420
 5932TIP3   OH217801   5.049   3.889   4.017
 5932TIP3    H117802   5.023   3.941   3.942
 5932TIP3    H217803   4.999   3.808   4.009
 5933TIP3   OH217804   2.505   2.837   2.014
 5933TIP3    H117805   2.443   2.790   1.959
 5933TIP3    H217806   2.508   2.788   2.096
 5934TIP3   OH217807   3.372   0.753   2.899
 5934TIP3    H117808   3.379   0.699   2.977
 5934TIP3    H217809   3.370   0.843   2.932
 5935TIP3   OH217810   4.879   0.773   1.643
 5935TIP3    H117811   4.891   0.682   1.618
 5935TIP3    H217812   4.804   0.772   1.703
 5936TIP3   OH217813   5.690   4.246   3.337
 5936TIP3    H117814   5.698   4.272   3.246
 5936TIP3    H217815   5.743   4.310   3.385
 5937TIP3   OH217816   3.634   5.499   2.024
 5937TIP3    H117817   3.584   5.571   2.062
 5937TIP3    H217818   3.714   5.540   1.990
 5938TIP3   OH217819   4.604   1.327   3.803
 5938TIP3    H117820   4.558   1.401   3.843
 5938TIP3    H217821   4.659   1.292   3.874
 5939TIP3   OH217822   4.465   5.348   2.140
 5939TIP3    H117823   4.524   5.418   2.113
 5939TIP3    H217824   4.456   5.358   2.234
 5940TIP3   OH217825   4.773   4.661   0.252
 5940TIP3    H117826   4.769   4.569   0.276
 5940TIP3    H217827   4.858   4.672   0.209
 5941TIP3   OH217828   1.991   4.890   0.839
 5941TIP3    H117829   2.014   4.802   0.869
 5941TIP3    H217830   1.895   4.893   0.844
 5942TIP3   OH217831   3.489   1.240   4.208
 5942TIP3    H117832   3.415   1.241   4.269
 5942TIP3    H217833   3.521   1.150   4.212
 5943TIP3   OH217834   0.090   3.185   1.773
 5943TIP3    H117835   0.099   3.104   1.724
 5943TIP3    H217836   0.010   3.224   1.740
 5944TIP3   OH217837   4.413   1.086   0.112
 5944TIP3    H117838   4.391   1.154   0.048
 5944TIP3    H217839   4.466   1.024   0.064
 5945TIP3   OH217840   3.890   3.842   0.305
 5945TIP3    H117841   3.896   3.797   0.221
 5945TIP3    H217842   3.850   3.927   0.284
 5946TIP3   OH217843   3.284   3.155   4.861
 5946TIP3    H117844   3.247   3.106   4.934
 5946TIP3    H217845   3.376   3.169   4.885
 5947TIP3   OH217846   2.851   5.894   3.036
 5947TIP3    H117847   2.817   5.808   3.014
 5947TIP3    H217848   2.820   5.912   3.124
 5948TIP3   OH217849   3.669   4.435   2.965
 5948TIP3    H117850   3.616   4.495   2.911
 5948TIP3    H217851   3.611   4.410   3.037
 5949TIP3   OH217852   6.070   1.890   5.145
 5949TIP3    H117853   5.991   1.943   5.133
 5949TIP3    H217854   6.059   1.818   5.084
 5950TIP3   OH217855   1.316   1.062   0.873
 5950TIP3    H117856   1.334   1.030   0.961
 5950TIP3    H217857   1.370   1.141   0.865
 5951TIP3   OH217858   5.543   4.494   1.805
 5951TIP3    H117859   5.547   4.587   1.780
 5951TIP3    H217860   5.541   4.447   1.722
 5952TIP3   OH217861   1.403   3.679   1.314
 5952TIP3    H117862   1.332   3.671   1.250
 5952TIP3    H217863   1.430   3.588   1.332
 5953TIP3   OH217864   4.420   0.303   3.209
 5953TIP3    H117865   4.381   0.299   3.122
 5953TIP3    H217866   4.492   0.240   3.206
 5954TIP3   OH217867   4.652   0.510   0.137
 5954TIP3    H117868   4.690   0.423   0.148
 5954TIP3    H217869   4.666   0.553   0.222
 5955TIP3   OH217870   2.733   3.283   1.227
 5955TIP3    H117871   2.650   3.275   1.275
 5955TIP3    H217872   2.800   3.255   1.289
 5956TIP3   OH217873   2.822   0.553   3.520
 5956TIP3    H117874   2.818   0.563   3.425
 5956TIP3    H217875   2.882   0.622   3.549
 5957TIP3   OH217876   1.977   0.461   4.490
 5957TIP3    H117877   2.010   0.397   4.554
 5957TIP3    H217878   2.054   0.485   4.439
 5958TIP3   OH217879   5.990   4.360   4.699
 5958TIP3    H117880   5.991   4.328   4.789
 5958TIP3    H217881   5.899   4.385   4.683
 5959TIP3   OH217882   2.943   2.637   1.382
 5959TIP3    H117883   2.945   2.729   1.407
 5959TIP3    H217884   3.021   2.599   1.423
 5960TIP3   OH217885   5.060   4.274   2.225
 5960TIP3    H117886   5.104   4.359   2.226
 5960TIP3    H217887   5.052   4.250   2.317
 5961TIP3   OH217888   3.027   3.465   3.156
 5961TIP3    H117889   3.033   3.555   3.189
 5961TIP3    H217890   2.970   3.472   3.079
 5962TIP3   OH217891   0.781   3.442   3.060
 5962TIP3    H117892   0.810   3.388   2.987
 5962TIP3    H217893   0.774   3.530   3.023
 5963TIP3   OH217894   1.861   1.367   2.344
 5963TIP3    H117895   1.942   1.336   2.304
 5963TIP3    H217896   1.845   1.453   2.305
 5964TIP3   OH217897   4.600   2.100   1.534
 5964TIP3    H117898   4.694   2.115   1.523
 5964TIP3    H217899   4.569   2.077   1.447
 5965TIP3   OH217900   0.174   2.189   2.947
 5965TIP3    H117901   0.122   2.165   3.024
 5965TIP3    H217902   0.264   2.193   2.979
 5966TIP3   OH217903   2.897   2.655   2.792
 5966TIP3    H117904   2.890   2.671   2.886
 5966TIP3    H217905   2.843   2.577   2.777
 5967TIP3   OH217906   1.990   1.378   0.602
 5967TIP3    H117907   2.077   1.342   0.583
 5967TIP3    H217908   1.958   1.410   0.518
 5968TIP3   OH217909   4.067   1.744   4.163
 5968TIP3    H117910   3.993   1.794   4.129
 5968TIP3    H217911   4.066   1.761   4.257
 5969TIP3   OH217912   1.524   2.174   0.650
 5969TIP3    H117913   1.460   2.235   0.687
 5969TIP3    H217914   1.604   2.226   0.641
 5970TIP3   OH217915   5.144   1.279   1.334
 5970TIP3    H117916   5.226   1.296   1.380
 5970TIP3    H217917   5.138   1.184   1.330
 5971TIP3   OH217918   1.178   5.839   2.010
 5971TIP3    H117919   1.202   5.931   2.024
 5971TIP3    H217920   1.104   5.843   1.949
 5972TIP3   OH217921   3.466   0.448   1.461
 5972TIP3    H117922   3.480   0.420   1.371
 5972TIP3    H217923   3.536   0.511   1.478
 5973TIP3   OH217924   1.790   0.451   1.500
 5973TIP3    H117925   1.816   0.361   1.522
 5973TIP3    H217926   1.868   0.489   1.460
 5974TIP3   OH217927   3.000   1.136   1.842
 5974TIP3    H117928   3.061   1.103   1.775
 5974TIP3    H217929   3.032   1.224   1.862
 5975TIP3   OH217930   1.964   3.798   3.176
 5975TIP3    H117931   1.906   3.745   3.232
 5975TIP3    H217932   2.044   3.808   3.227
 5976TIP3   OH217933   4.921   0.460   1.202
 5976TIP3    H117934   4.982   0.525   1.238
 5976TIP3    H217935   4.890   0.500   1.121
 5977TIP3   OH217936   2.608   1.270   0.295
 5977TIP3    H117937   2.545   1.282   0.367
 5977TIP3    H217938   2.661   1.349   0.297
 5978TIP3   OH217939   0.576   6.004   4.416
 5978TIP3    H117940   0.585   6.014   4.511
 5978TIP3    H217941   0.598   5.912   4.399
 5979TIP3   OH217942   5.981   2.882   1.981
 5979TIP3    H117943   5.939   2.844   1.904
 5979TIP3    H217944   5.937   2.838   2.055
 5980TIP3   OH217945   0.197   4.675   4.961
 5980TIP3    H117946   0.128   4.665   5.027
 5980TIP3    H217947   0.238   4.588   4.957
 5981TIP3   OH217948   5.701   4.092   0.082
 5981TIP3    H117949   5.718   4.148   0.006
 5981TIP3    H217950   5.609   4.068   0.074
 5982TIP3   OH217951   0.191   5.711   4.006
 5982TIP3    H117952   0.190   5.680   4.096
 5982TIP3    H217953   0.102   5.696   3.974
 5983TIP3   OH217954   5.790   3.547   1.149
 5983TIP3    H117955   5.832   3.486   1.089
 5983TIP3    H217956   5.820   3.521   1.236
 5984TIP3   OH217957   5.507   3.381   1.303
 5984TIP3    H117958   5.505   3.376   1.398
 5984TIP3    H217959   5.554   3.302   1.275
 5985TIP3   OH217960   4.822   0.477   3.813
 5985TIP3    H117961   4.839   0.559   3.858
 5985TIP3    H217962   4.736   0.489   3.773
 5986TIP3   OH217963   1.623   1.447   4.672
 5986TIP3    H117964   1.691   1.501   4.632
 5986TIP3    H217965   1.658   1.425   4.758
 5987TIP3   OH217966   0.848   0.880   3.829
 5987TIP3    H117967   0.931   0.872   3.875
 5987TIP3    H217968   0.862   0.950   3.765
 5988TIP3   OH217969   3.252   1.850   4.853
 5988TIP3    H117970   3.333   1.833   4.901
 5988TIP3    H217971   3.236   1.944   4.863
 5989TIP3   OH217972   3.201   2.706   1.184
 5989TIP3    H117973   3.119   2.728   1.140
 5989TIP3    H217974   3.242   2.790   1.202
 5990TIP3   OH217975   2.604   0.645   3.709
 5990TIP3    H117976   2.661   0.624   3.635
 5990TIP3    H217977   2.665   0.662   3.781
 5991TIP3   OH217978   5.890   4.543   2.265
 5991TIP3    H117979   5.830   4.469   2.275
 5991TIP3    H217980   5.868   4.602   2.337
 5992TIP3   OH217981   5.543   1.514   3.752
 5992TIP3    H117982   5.505   1.446   3.696
 5992TIP3    H217983   5.517   1.489   3.841
 5993TIP3   OH217984   0.522   3.816   3.577
 5993TIP3    H117985   0.426   3.825   3.581
 5993TIP3    H217986   0.553   3.904   3.556
 5994TIP3   OH217987   1.115   3.825   2.596
 5994TIP3    H117988   1.202   3.820   2.637
 5994TIP3    H217989   1.115   3.909   2.550
 5995TIP3   OH217990   4.550   3.846   2.679
 5995TIP3    H117991   4.569   3.854   2.773
 5995TIP3    H217992   4.501   3.925   2.658
 5996TIP3   OH217993   3.574   5.711   1.099
 5996TIP3    H117994   3.574   5.616   1.095
 5996TIP3    H217995   3.481   5.735   1.101
 5997TIP3   OH217996   4.273   3.996   4.130
 5997TIP3    H117997   4.225   3.951   4.199
 5997TIP3    H217998   4.205   4.035   4.075
 5998TIP3   OH217999   1.541   0.472   5.072
 5998TIP3    H118000   1.623   0.517   5.050
 5998TIP3    H218001   1.508   0.520   5.148
 5999TIP3   OH218002   6.054   3.713   3.097
 5999TIP3    H118003   6.042   3.753   3.011
 5999TIP3    H218004   5.976   3.660   3.110
 6000TIP3   OH218005   6.293   3.163   0.146
 6000TIP3    H118006   6.311   3.245   0.192
 6000TIP3    H218007   6.200   3.146   0.162
 6001TIP3   OH218008   3.024   2.449   1.930
 6001TIP3    H118009   2.952   2.403   1.887
 6001TIP3    H218010   3.053   2.513   1.866
 6002TIP3   OH218011   0.445   2.244   3.010
 6002TIP3    H118012   0.470   2.176   3.073
 6002TIP3    H218013   0.528   2.271   2.971
 6003TIP3   OH218014   3.647   1.797   4.305
 6003TIP3    H118015   3.593   1.734   4.258
 6003TIP3    H218016   3.721   1.747   4.337
 6004TIP3   OH218017   1.418   4.473   0.278
 6004TIP3    H118018   1.357   4.539   0.245
 6004TIP3    H218019   1.480   4.460   0.206
 6005TIP3   OH218020   3.924  -0.017   0.288
 6005TIP3    H118021   3.976   0.006   0.211
 6005TIP3    H218022   3.864   0.056   0.301
 6006TIP3   OH218023   1.387   1.287   0.610
 6006TIP3    H118024   1.381   1.305   0.704
 6006TIP3    H218025   1.314   1.338   0.572
 6007TIP3   OH218026   1.612   4.614   2.056
 6007TIP3    H118027   1.548   4.678   2.086
 6007TIP3    H218028   1.572   4.529   2.074
 6008TIP3   OH218029   6.345   0.999   2.104
 6008TIP3    H118030   6.256   1.027   2.086
 6008TIP3    H218031   6.363   1.030   2.192
 6009TIP3   OH218032   2.882   1.814   1.758
 6009TIP3    H118033   2.955   1.842   1.703
 6009TIP3    H218034   2.810   1.873   1.735
 6010TIP3   OH218035   1.337   4.043   2.183
 6010TIP3    H118036   1.327   3.949   2.173
 6010TIP3    H218037   1.414   4.053   2.240
 6011TIP3   OH218038   0.238   0.417   4.478
 6011TIP3    H118039   0.233   0.492   4.419
 6011TIP3    H218040   0.332   0.398   4.485
 6012TIP3   OH218041   0.083   4.731   2.843
 6012TIP3    H118042   0.075   4.637   2.861
 6012TIP3    H218043   0.003   4.752   2.795
 6013TIP3   OH218044   2.273   2.112   3.920
 6013TIP3    H118045   2.232   2.026   3.917
 6013TIP3    H218046   2.199   2.174   3.925
 6014TIP3   OH218047   5.764   1.458   2.939
 6014TIP3    H118048   5.709   1.516   2.885
 6014TIP3    H218049   5.830   1.516   2.977
 6015TIP3   OH218050   0.536   2.441   0.511
 6015TIP3    H118051   0.543   2.361   0.458
 6015TIP3    H218052   0.616   2.490   0.489
 6016TIP3   OH218053   5.931   2.927   2.954
 6016TIP3    H118054   5.887   2.918   3.038
 6016TIP3    H218055   5.885   2.867   2.896
 6017TIP3   OH218056   6.011   5.314   3.604
 6017TIP3    H118057   5.955   5.237   3.591
 6017TIP3    H218058   5.950   5.387   3.608
 6018TIP3   OH218059   1.287   3.910   0.076
 6018TIP3    H118060   1.326   3.996   0.093
 6018TIP3    H218061   1.220   3.926   0.009
 6019TIP3   OH218062   4.249   1.887   4.949
 6019TIP3    H118063   4.174   1.943   4.929
 6019TIP3    H218064   4.280   1.857   4.863
 6020TIP3   OH218065   4.983   4.569   2.590
 6020TIP3    H118066   4.904   4.561   2.537
 6020TIP3    H218067   5.032   4.641   2.550
 6021TIP3   OH218068   2.045   3.601   1.335
 6021TIP3    H118069   1.997   3.534   1.285
 6021TIP3    H218070   2.016   3.684   1.298
 6022TIP3   OH218071   1.511   4.362   2.120
 6022TIP3    H118072   1.568   4.292   2.151
 6022TIP3    H218073   1.427   4.319   2.103
 6023TIP3   OH218074   5.213   0.048   4.979
 6023TIP3    H118075   5.252   0.101   5.049
 6023TIP3    H218076   5.159   0.109   4.930
 6024TIP3   OH218077   5.551   3.406   5.050
 6024TIP3    H118078   5.480   3.393   4.987
 6024TIP3    H218079   5.629   3.373   5.006
 6025TIP3   OH218080   2.366   3.576   4.169
 6025TIP3    H118081   2.425   3.503   4.184
 6025TIP3    H218082   2.357   3.618   4.255
 6026TIP3   OH218083   4.864   0.935   4.628
 6026TIP3    H118084   4.953   0.948   4.660
 6026TIP3    H218085   4.861   0.843   4.602
 6027TIP3   OH218086   1.924   2.891   3.038
 6027TIP3    H118087   1.928   2.838   3.118
 6027TIP3    H218088   1.845   2.943   3.047
 6028TIP3   OH218089   1.844   2.710   1.802
 6028TIP3    H118090   1.751   2.724   1.788
 6028TIP3    H218091   1.886   2.748   1.725
 6029TIP3   OH218092   5.939   2.819   4.140
 6029TIP3    H118093   5.947   2.862   4.225
 6029TIP3    H218094   6.019   2.844   4.094
 6030TIP3   OH218095   4.208   3.537   0.462
 6030TIP3    H118096   4.289   3.567   0.505
 6030TIP3    H218097   4.235   3.460   0.412
 6031TIP3   OH218098   5.443   3.883   2.913
 6031TIP3    H118099   5.420   3.808   2.969
 6031TIP3    H218100   5.523   3.856   2.869
 6032TIP3   OH218101   0.086   5.920   5.128
 6032TIP3    H118102   0.096   5.864   5.205
 6032TIP3    H218103   0.084   5.859   5.054
 6033TIP3   OH218104   0.460   5.151   3.693
 6033TIP3    H118105   0.512   5.227   3.666
 6033TIP3    H218106   0.391   5.144   3.627
 6034TIP3   OH218107   5.820   5.639   2.729
 6034TIP3    H118108   5.781   5.596   2.805
 6034TIP3    H218109   5.752   5.700   2.699
 6035TIP3   OH218110   2.130   0.253   0.515
 6035TIP3    H118111   2.148   0.239   0.422
 6035TIP3    H218112   2.200   0.207   0.561
 6036TIP3   OH218113   0.501   1.150   5.017
 6036TIP3    H118114   0.473   1.146   4.925
 6036TIP3    H218115   0.596   1.159   5.012
 6037TIP3   OH218116   2.024   0.018   2.437
 6037TIP3    H118117   2.052   0.100   2.396
 6037TIP3    H218118   2.059  -0.050   2.380
 6038TIP3   OH218119   2.852   1.489   0.097
 6038TIP3    H118120   2.872   1.417   0.037
 6038TIP3    H218121   2.858   1.567   0.042
 6039TIP3   OH218122   2.097   5.423   2.446
 6039TIP3    H118123   2.158   5.358   2.411
 6039TIP3    H218124   2.081   5.483   2.373
 6040TIP3   OH218125   3.706   5.885   3.869
 6040TIP3    H118126   3.681   5.824   3.800
 6040TIP3    H218127   3.624   5.926   3.896
 6041TIP3   OH218128   5.723   1.346   0.330
 6041TIP3    H118129   5.744   1.255   0.349
 6041TIP3    H218130   5.746   1.393   0.410
 6042TIP3   OH218131   4.020   4.656   0.661
 6042TIP3    H118132   4.082   4.625   0.728
 6042TIP3    H218133   3.945   4.596   0.669
 6043TIP3   OH218134   5.058   2.364   1.399
 6043TIP3    H118135   5.126   2.430   1.387
 6043TIP3    H218136   4.985   2.393   1.344
 6044TIP3   OH218137   1.240   0.933   3.550
 6044TIP3    H118138   1.149   0.960   3.562
 6044TIP3    H218139   1.241   0.888   3.466
 6045TIP3   OH218140   3.588   0.872   4.758
 6045TIP3    H118141   3.683   0.882   4.754
 6045TIP3    H218142   3.574   0.782   4.785
 6046TIP3   OH218143   6.118   3.930   4.354
 6046TIP3    H118144   6.124   3.998   4.421
 6046TIP3    H218145   6.197   3.877   4.367
 6047TIP3   OH218146   2.374   2.271   3.339
 6047TIP3    H118147   2.453   2.306   3.380
 6047TIP3    H218148   2.302   2.322   3.377
 6048TIP3   OH218149   5.253   0.612   1.778
 6048TIP3    H118150   5.306   0.547   1.825
 6048TIP3    H218151   5.306   0.637   1.703
 6049TIP3   OH218152   1.085   3.269   1.434
 6049TIP3    H118153   1.069   3.176   1.448
 6049TIP3    H218154   1.053   3.311   1.514
 6050TIP3   OH218155   4.652   4.283   4.452
 6050TIP3    H118156   4.604   4.317   4.377
 6050TIP3    H218157   4.724   4.233   4.414
 6051TIP3   OH218158   2.478   1.067   3.257
 6051TIP3    H118159   2.524   0.994   3.298
 6051TIP3    H218160   2.391   1.066   3.297
 6052TIP3   OH218161   1.085   5.858   2.944
 6052TIP3    H118162   1.178   5.843   2.961
 6052TIP3    H218163   1.042   5.841   3.027
 6053TIP3   OH218164   0.998   3.420   2.224
 6053TIP3    H118165   0.936   3.410   2.295
 6053TIP3    H218166   1.051   3.340   2.226
 6054TIP3   OH218167   5.584   2.436   4.423
 6054TIP3    H118168   5.516   2.488   4.380
 6054TIP3    H218169   5.635   2.399   4.351
 6055TIP3   OH218170   0.034   4.842   4.127
 6055TIP3    H118171   0.054   4.892   4.048
 6055TIP3    H218172  -0.059   4.821   4.119
 6056TIP3   OH218173   1.638   2.806   2.050
 6056TIP3    H118174   1.608   2.717   2.031
 6056TIP3    H218175   1.655   2.845   1.964
 6057TIP3   OH218176   4.019   4.101   3.364
 6057TIP3    H118177   4.090   4.151   3.405
 6057TIP3    H218178   4.023   4.126   3.272
 6058TIP3   OH218179   5.760   3.147   0.589
 6058TIP3    H118180   5.745   3.140   0.495
 6058TIP3    H218181   5.829   3.214   0.597
 6059TIP3   OH218182   0.544   1.726   3.833
 6059TIP3    H118183   0.498   1.761   3.909
 6059TIP3    H218184   0.538   1.631   3.843
 6060TIP3   OH218185   5.758   3.638   0.687
 6060TIP3    H118186   5.795   3.685   0.761
 6060TIP3    H218187   5.809   3.667   0.612
 6061TIP3   OH218188   5.777   0.024   0.559
 6061TIP3    H118189   5.741  -0.062   0.536
 6061TIP3    H218190   5.700   0.079   0.573
 6062TIP3   OH218191   1.943   5.055   1.956
 6062TIP3    H118192   2.017   4.999   1.933
 6062TIP3    H218193   1.866   5.007   1.926
 6063TIP3   OH218194   6.152   1.252   1.146
 6063TIP3    H118195   6.090   1.283   1.080
 6063TIP3    H218196   6.192   1.175   1.107
 6064TIP3   OH218197   5.041   2.627   0.370
 6064TIP3    H118198   4.959   2.606   0.325
 6064TIP3    H218199   5.045   2.566   0.443
 6065TIP3   OH218200   1.585   0.031   0.007
 6065TIP3    H118201   1.680   0.028   0.003
 6065TIP3    H218202   1.565   0.018   0.100
 6066TIP3   OH218203   0.341   1.079   1.655
 6066TIP3    H118204   0.334   1.057   1.748
 6066TIP3    H218205   0.349   1.174   1.654
 6067TIP3   OH218206   3.084   3.479   2.333
 6067TIP3    H118207   3.103   3.571   2.320
 6067TIP3    H218208   3.004   3.478   2.386
 6068TIP3   OH218209   5.519   0.044   1.779
 6068TIP3    H118210   5.477   0.130   1.788
 6068TIP3    H218211   5.596   0.060   1.725
 6069TIP3   OH218212   2.770   3.685   0.717
 6069TIP3    H118213   2.686   3.724   0.695
 6069TIP3    H218214   2.750   3.622   0.786
 6070TIP3   OH218215   4.499   5.547   0.696
 6070TIP3    H118216   4.506   5.532   0.790
 6070TIP3    H218217   4.409   5.577   0.682
 6071TIP3   OH218218   1.258   1.687   1.468
 6071TIP3    H118219   1.234   1.765   1.418
 6071TIP3    H218220   1.334   1.714   1.519
 6072TIP3   OH218221   3.310   4.743   0.161
 6072TIP3    H118222   3.394   4.772   0.127
 6072TIP3    H218223   3.308   4.775   0.251
 6073TIP3   OH218224   3.348   5.398   3.978
 6073TIP3    H118225   3.291   5.324   3.996
 6073TIP3    H218226   3.288   5.469   3.953
 6074TIP3   OH218227   0.390   4.093   3.828
 6074TIP3    H118228   0.305   4.050   3.817
 6074TIP3    H218229   0.368   4.182   3.856
 6075TIP3   OH218230   3.074   2.410   3.088
 6075TIP3    H118231   3.006   2.343   3.092
 6075TIP3    H218232   3.099   2.425   3.179
 6076TIP3   OH218233   5.207   2.651   1.957
 6076TIP3    H118234   5.191   2.599   2.036
 6076TIP3    H218235   5.123   2.692   1.937
 6077TIP3   OH218236   1.846   1.132   4.799
 6077TIP3    H118237   1.842   1.193   4.725
 6077TIP3    H218238   1.842   1.187   4.877
 6078TIP3   OH218239   1.673   3.822   1.344
 6078TIP3    H118240   1.595   3.766   1.339
 6078TIP3    H218241   1.735   3.772   1.397
 6079TIP3   OH218242   3.421   5.760   3.049
 6079TIP3    H118243   3.327   5.764   3.067
 6079TIP3    H218244   3.462   5.759   3.135
 6080TIP3   OH218245   5.501   0.770   4.706
 6080TIP3    H118246   5.492   0.865   4.706
 6080TIP3    H218247   5.430   0.739   4.762
 6081TIP3   OH218248   2.352   3.988   3.478
 6081TIP3    H118249   2.439   4.025   3.485
 6081TIP3    H218250   2.299   4.058   3.440
 6082TIP3   OH218251   2.468   0.293   0.576
 6082TIP3    H118252   2.444   0.386   0.570
 6082TIP3    H218253   2.387   0.246   0.555
 6083TIP3   OH218254   2.279   0.680   2.903
 6083TIP3    H118255   2.199   0.714   2.945
 6083TIP3    H218256   2.286   0.590   2.934
 6084TIP3   OH218257   1.313   2.441   4.622
 6084TIP3    H118258   1.387   2.494   4.650
 6084TIP3    H218259   1.292   2.473   4.535
 6085TIP3   OH218260   1.358   5.297   5.121
 6085TIP3    H118261   1.449   5.292   5.152
 6085TIP3    H218262   1.365   5.335   5.033
 6086TIP3   OH218263   4.885   4.186   4.359
 6086TIP3    H118264   4.896   4.169   4.265
 6086TIP3    H218265   4.974   4.184   4.394
 6087TIP3   OH218266   2.525   4.271   3.519
 6087TIP3    H118267   2.611   4.269   3.560
 6087TIP3    H218268   2.471   4.324   3.579
 6088TIP3   OH218269   5.572   3.509   2.326
 6088TIP3    H118270   5.618   3.583   2.288
 6088TIP3    H218271   5.617   3.432   2.291
 6089TIP3   OH218272   4.947   5.021   2.906
 6089TIP3    H118273   4.907   4.998   2.990
 6089TIP3    H218274   4.991   4.941   2.877
 6090TIP3   OH218275   3.341   4.380   4.628
 6090TIP3    H118276   3.293   4.433   4.564
 6090TIP3    H218277   3.284   4.378   4.705
 6091TIP3   OH218278   1.457   2.549   0.671
 6091TIP3    H118279   1.420   2.589   0.750
 6091TIP3    H218280   1.422   2.460   0.671
 6092TIP3   OH218281   3.307   2.995   1.208
 6092TIP3    H118282   3.402   2.989   1.197
 6092TIP3    H218283   3.296   3.059   1.279
 6093TIP3   OH218284   5.920   5.174   1.410
 6093TIP3    H118285   5.874   5.246   1.452
 6093TIP3    H218286   5.982   5.144   1.476
 6094TIP3   OH218287   4.654   3.130   5.162
 6094TIP3    H118288   4.692   3.049   5.197
 6094TIP3    H218289   4.562   3.108   5.145
 6095TIP3   OH218290   1.548   0.005   4.539
 6095TIP3    H118291   1.587   0.060   4.471
 6095TIP3    H218292   1.617  -0.059   4.561
 6096TIP3   OH218293   6.189   5.436   4.051
 6096TIP3    H118294   6.172   5.344   4.031
 6096TIP3    H218295   6.245   5.434   4.129
 6097TIP3   OH218296   4.569   0.212   4.336
 6097TIP3    H118297   4.661   0.185   4.338
 6097TIP3    H218298   4.571   0.298   4.293
 6098TIP3   OH218299   3.032   3.985   1.637
 6098TIP3    H118300   2.964   3.952   1.579
 6098TIP3    H218301   3.114   3.969   1.590
 6099TIP3   OH218302   0.087   2.577   2.358
 6099TIP3    H118303   0.142   2.612   2.287
 6099TIP3    H218304   0.132   2.604   2.438
 6100TIP3   OH218305   4.157   1.777   2.811
 6100TIP3    H118306   4.231   1.759   2.869
 6100TIP3    H218307   4.105   1.842   2.857
 6101TIP3   OH218308   3.229   2.123   4.620
 6101TIP3    H118309   3.161   2.055   4.621
 6101TIP3    H218310   3.271   2.114   4.534
 6102TIP3   OH218311   2.500   4.607   1.394
 6102TIP3    H118312   2.581   4.630   1.350
 6102TIP3    H218313   2.432   4.621   1.329
 6103TIP3   OH218314   1.150   1.685   3.591
 6103TIP3    H118315   1.215   1.736   3.543
 6103TIP3    H218316   1.184   1.682   3.681
 6104TIP3   OH218317   0.158   3.684   2.512
 6104TIP3    H118318   0.227   3.652   2.453
 6104TIP3    H218319   0.205   3.706   2.593
 6105TIP3   OH218320   2.557   3.560   3.464
 6105TIP3    H118321   2.531   3.587   3.552
 6105TIP3    H218322   2.605   3.479   3.477
 6106TIP3   OH218323   5.019   4.719   1.618
 6106TIP3    H118324   4.962   4.726   1.695
 6106TIP3    H218325   4.981   4.779   1.555
 6107TIP3   OH218326   6.086   1.491   3.270
 6107TIP3    H118327   6.054   1.578   3.292
 6107TIP3    H218328   6.063   1.437   3.346
 6108TIP3   OH218329   5.637   4.792   0.517
 6108TIP3    H118330   5.669   4.862   0.460
 6108TIP3    H218331   5.604   4.725   0.457
 6109TIP3   OH218332   2.353   0.878   1.677
 6109TIP3    H118333   2.437   0.900   1.635
 6109TIP3    H218334   2.288   0.930   1.629
 6110TIP3   OH218335   0.628   5.512   1.868
 6110TIP3    H118336   0.664   5.588   1.913
 6110TIP3    H218337   0.703   5.472   1.823
 6111TIP3   OH218338   3.992   1.471   3.853
 6111TIP3    H118339   3.994   1.567   3.850
 6111TIP3    H218340   4.053   1.443   3.785
 6112TIP3   OH218341   5.183   0.611   0.510
 6112TIP3    H118342   5.112   0.658   0.554
 6112TIP3    H218343   5.144   0.578   0.430
 6113TIP3   OH218344   3.481   2.748   1.397
 6113TIP3    H118345   3.555   2.688   1.410
 6113TIP3    H218346   3.481   2.766   1.303
 6114TIP3   OH218347   1.091   0.313   1.672
 6114TIP3    H118348   1.163   0.351   1.621
 6114TIP3    H218349   1.129   0.297   1.758
 6115TIP3   OH218350   2.654   0.888   2.720
 6115TIP3    H118351   2.734   0.916   2.764
 6115TIP3    H218352   2.588   0.953   2.745
 6116TIP3   OH218353   4.476   2.550   3.490
 6116TIP3    H118354   4.425   2.628   3.511
 6116TIP3    H218355   4.564   2.584   3.469
 6117TIP3   OH218356   1.903   0.758   1.989
 6117TIP3    H118357   1.997   0.744   2.000
 6117TIP3    H218358   1.866   0.670   1.989
 6118TIP3   OH218359   3.344   2.085   1.953
 6118TIP3    H118360   3.341   2.093   2.048
 6118TIP3    H218361   3.255   2.059   1.928
 6119TIP3   OH218362   6.035   1.116   0.496
 6119TIP3    H118363   6.110   1.072   0.537
 6119TIP3    H218364   6.045   1.208   0.521
 6120TIP3   OH218365   2.846   2.281   2.821
 6120TIP3    H118366   2.788   2.352   2.792
 6120TIP3    H218367   2.798   2.241   2.894
 6121TIP3   OH218368   1.160   1.582   0.829
 6121TIP3    H118369   1.229   1.644   0.851
 6121TIP3    H218370   1.165   1.515   0.897
 6122TIP3   OH218371   2.610   0.865   5.104
 6122TIP3    H118372   2.599   0.801   5.033
 6122TIP3    H218373   2.521   0.891   5.127
 6123TIP3   OH218374   1.136   1.181   0.506
 6123TIP3    H118375   1.228   1.175   0.530
 6123TIP3    H218376   1.098   1.241   0.570
 6124TIP3   OH218377   0.501   2.912   3.077
 6124TIP3    H118378   0.534   2.981   3.020
 6124TIP3    H218379   0.407   2.907   3.058
 6125TIP3   OH218380   2.744   1.299   2.755
 6125TIP3    H118381   2.788   1.260   2.831
 6125TIP3    H218382   2.675   1.354   2.792
 6126TIP3   OH218383   2.913   5.450   2.894
 6126TIP3    H118384   2.850   5.383   2.922
 6126TIP3    H218385   2.867   5.533   2.904
 6127TIP3   OH218386   1.058   4.838   3.840
 6127TIP3    H118387   1.088   4.828   3.749
 6127TIP3    H218388   1.011   4.756   3.858
 6128TIP3   OH218389   1.855   4.462   2.671
 6128TIP3    H118390   1.921   4.528   2.649
 6128TIP3    H218391   1.811   4.497   2.749
 6129TIP3   OH218392   2.581   3.677   1.569
 6129TIP3    H118393   2.652   3.636   1.619
 6129TIP3    H218394   2.623   3.709   1.489
 6130TIP3   OH218395   6.211   5.556   0.179
 6130TIP3    H118396   6.301   5.563   0.147
 6130TIP3    H218397   6.200   5.632   0.237
 6131TIP3   OH218398   3.414   2.257   3.704
 6131TIP3    H118399   3.449   2.342   3.678
 6131TIP3    H218400   3.392   2.268   3.797
 6132TIP3   OH218401   2.763   1.010   1.926
 6132TIP3    H118402   2.752   0.993   2.019
 6132TIP3    H218403   2.854   1.039   1.917
 6133TIP3   OH218404   3.208   3.473   2.717
 6133TIP3    H118405   3.144   3.410   2.683
 6133TIP3    H218406   3.242   3.432   2.796
 6134TIP3   OH218407   5.296   0.450   3.778
 6134TIP3    H118408   5.306   0.541   3.807
 6134TIP3    H218409   5.370   0.404   3.818
 6135TIP3   OH218410   4.159   2.550   1.638
 6135TIP3    H118411   4.150   2.499   1.558
 6135TIP3    H218412   4.187   2.487   1.704
 6136TIP3   OH218413   5.052   3.968   2.053
 6136TIP3    H118414   5.105   3.910   2.108
 6136TIP3    H218415   5.097   3.969   1.969
 6137TIP3   OH218416   4.312   1.242   0.333
 6137TIP3    H118417   4.371   1.219   0.261
 6137TIP3    H218418   4.370   1.255   0.408
 6138TIP3   OH218419   3.926   3.588   3.518
 6138TIP3    H118420   3.902   3.631   3.436
 6138TIP3    H218421   3.891   3.645   3.586
 6139TIP3   OH218422  -0.021   1.852   1.501
 6139TIP3    H118423  -0.005   1.834   1.408
 6139TIP3    H218424   0.044   1.918   1.524
 6140TIP3   OH218425   0.654   1.076   3.423
 6140TIP3    H118426   0.716   1.142   3.391
 6140TIP3    H218427   0.676   0.997   3.372
 6141TIP3   OH218428   5.463   4.364   4.835
 6141TIP3    H118429   5.423   4.287   4.795
 6141TIP3    H218430   5.415   4.438   4.797
 6142TIP3   OH218431   4.495   3.680   1.483
 6142TIP3    H118432   4.495   3.592   1.444
 6142TIP3    H218433   4.516   3.739   1.411
 6143TIP3   OH218434   2.266   0.915   4.551
 6143TIP3    H118435   2.318   0.840   4.521
 6143TIP3    H218436   2.322   0.991   4.538
 6144TIP3   OH218437   0.385   1.132   0.355
 6144TIP3    H118438   0.454   1.071   0.329
 6144TIP3    H218439   0.375   1.191   0.280
 6145TIP3   OH218440   2.171   2.798   4.346
 6145TIP3    H118441   2.247   2.783   4.290
 6145TIP3    H218442   2.100   2.819   4.285
 6146TIP3   OH218443   0.870   0.018   1.079
 6146TIP3    H118444   0.960   0.019   1.113
 6146TIP3    H218445   0.817   0.045   1.154
 6147TIP3   OH218446   3.697   3.952   4.942
 6147TIP3    H118447   3.625   3.970   4.881
 6147TIP3    H218448   3.654   3.917   5.020
 6148TIP3   OH218449   3.770   5.744   0.141
 6148TIP3    H118450   3.705   5.740   0.071
 6148TIP3    H218451   3.763   5.834   0.175
 6149TIP3   OH218452   0.784   3.329   4.920
 6149TIP3    H118453   0.820   3.304   4.835
 6149TIP3    H218454   0.799   3.423   4.926
 6150TIP3   OH218455   4.145   1.455   0.331
 6150TIP3    H118456   4.108   1.468   0.419
 6150TIP3    H218457   4.222   1.400   0.346
 6151TIP3   OH218458   5.381   4.092   3.853
 6151TIP3    H118459   5.450   4.073   3.916
 6151TIP3    H218460   5.418   4.068   3.768
 6152TIP3   OH218461   4.900   2.603   1.706
 6152TIP3    H118462   4.810   2.635   1.704
 6152TIP3    H218463   4.929   2.620   1.795
 6153TIP3   OH218464   6.195   4.409   0.929
 6153TIP3    H118465   6.243   4.488   0.955
 6153TIP3    H218466   6.214   4.400   0.836
 6154TIP3   OH218467   3.116   2.028   1.735
 6154TIP3    H118468   3.039   2.033   1.791
 6154TIP3    H218469   3.122   2.115   1.694
 6155TIP3   OH218470   0.809   4.615   1.659
 6155TIP3    H118471   0.895   4.641   1.627
 6155TIP3    H218472   0.795   4.528   1.623
 6156TIP3   OH218473   0.304   3.256   1.632
 6156TIP3    H118474   0.261   3.211   1.560
 6156TIP3    H218475   0.236   3.266   1.698
 6157TIP3   OH218476   0.375   2.239   4.069
 6157TIP3    H118477   0.444   2.284   4.118
 6157TIP3    H218478   0.415   2.215   3.986
 6158TIP3   OH218479   4.784   4.514   1.402
 6158TIP3    H118480   4.840   4.503   1.325
 6158TIP3    H218481   4.845   4.514   1.475
 6159TIP3   OH218482   1.697   5.186   3.492
 6159TIP3    H118483   1.729   5.135   3.567
 6159TIP3    H218484   1.737   5.146   3.416
 6160TIP3   OH218485   5.647   5.991   1.486
 6160TIP3    H118486   5.649   5.900   1.456
 6160TIP3    H218487   5.559   6.022   1.464
 6161TIP3   OH218488   4.823   1.095   3.006
 6161TIP3    H118489   4.751   1.048   3.048
 6161TIP3    H218490   4.781   1.170   2.964
 6162TIP3   OH218491   6.349   1.575   4.375
 6162TIP3    H118492   6.327   1.537   4.460
 6162TIP3    H218493   6.279   1.638   4.358
 6163TIP3   OH218494   3.736   1.893   0.146
 6163TIP3    H118495   3.710   1.977   0.183
 6163TIP3    H218496   3.803   1.860   0.205
 6164TIP3   OH218497   1.833   0.245   4.012
 6164TIP3    H118498   1.867   0.155   4.006
 6164TIP3    H218499   1.779   0.254   3.933
 6165TIP3   OH218500   0.083   3.917   1.202
 6165TIP3    H118501   0.081   4.012   1.195
 6165TIP3    H218502   0.175   3.893   1.188
 6166TIP3   OH218503   1.348   4.965   1.226
 6166TIP3    H118504   1.430   4.929   1.191
 6166TIP3    H218505   1.369   4.988   1.317
 6167TIP3   OH218506   3.762   5.941   0.833
 6167TIP3    H118507   3.778   5.848   0.851
 6167TIP3    H218508   3.692   5.941   0.768
 6168TIP3   OH218509   0.339   4.504   4.263
 6168TIP3    H118510   0.406   4.556   4.308
 6168TIP3    H218511   0.256   4.543   4.292
 6169TIP3   OH218512   3.855   3.615   2.336
 6169TIP3    H118513   3.825   3.543   2.281
 6169TIP3    H218514   3.928   3.654   2.288
 6170TIP3   OH218515   1.759   0.596   4.978
 6170TIP3    H118516   1.787   0.608   4.887
 6170TIP3    H218517   1.819   0.531   5.013
 6171TIP3   OH218518   2.840   3.979   1.414
 6171TIP3    H118519   2.777   3.908   1.403
 6171TIP3    H218520   2.894   3.975   1.335
 6172TIP3   OH218521   3.206   0.419   4.398
 6172TIP3    H118522   3.176   0.492   4.452
 6172TIP3    H218523   3.237   0.354   4.461
 6173TIP3   OH218524   1.076   1.452   2.049
 6173TIP3    H118525   1.085   1.451   1.954
 6173TIP3    H218526   1.156   1.411   2.082
 6174TIP3   OH218527   1.245   4.495   0.668
 6174TIP3    H118528   1.239   4.461   0.757
 6174TIP3    H218529   1.334   4.530   0.662
 6175TIP3   OH218530   1.729   4.562   1.053
 6175TIP3    H118531   1.773   4.583   0.970
 6175TIP3    H218532   1.636   4.553   1.029
 6176TIP3   OH218533   4.640   2.215   3.243
 6176TIP3    H118534   4.608   2.272   3.313
 6176TIP3    H218535   4.723   2.255   3.216
 6177TIP3   OH218536   4.919   4.119   2.973
 6177TIP3    H118537   4.874   4.113   2.888
 6177TIP3    H218538   5.012   4.114   2.951
 6178TIP3   OH218539   4.293   0.610   3.702
 6178TIP3    H118540   4.245   0.684   3.666
 6178TIP3    H218541   4.312   0.555   3.626
 6179TIP3   OH218542   4.366   2.843   3.316
 6179TIP3    H118543   4.393   2.852   3.408
 6179TIP3    H218544   4.383   2.929   3.278
 6180TIP3   OH218545   5.040   0.688   4.617
 6180TIP3    H118546   5.087   0.630   4.558
 6180TIP3    H218547   4.973   0.632   4.657
 6181TIP3   OH218548   1.242   0.729   5.093
 6181TIP3    H118549   1.237   0.699   5.002
 6181TIP3    H218550   1.332   0.760   5.102
 6182TIP3   OH218551   3.691   4.291   0.899
 6182TIP3    H118552   3.673   4.307   0.992
 6182TIP3    H218553   3.708   4.197   0.894
 6183TIP3   OH218554   5.593   5.691   4.076
 6183TIP3    H118555   5.544   5.771   4.092
 6183TIP3    H218556   5.546   5.649   4.003
 6184TIP3   OH218557   0.614   4.030   4.016
 6184TIP3    H118558   0.537   4.053   3.963
 6184TIP3    H218559   0.648   3.950   3.975
 6185TIP3   OH218560   2.863   2.201   3.246
 6185TIP3    H118561   2.879   2.245   3.329
 6185TIP3    H218562   2.893   2.112   3.260
 6186TIP3   OH218563   1.120   0.345   1.201
 6186TIP3    H118564   1.110   0.304   1.287
 6186TIP3    H218565   1.210   0.325   1.175
 6187TIP3   OH218566   2.777   4.253   3.586
 6187TIP3    H118567   2.862   4.222   3.555
 6187TIP3    H218568   2.780   4.240   3.681
 6188TIP3   OH218569   0.974   0.527   0.338
 6188TIP3    H118570   0.951   0.436   0.358
 6188TIP3    H218571   0.898   0.578   0.366
 6189TIP3   OH218572   2.169   3.197   4.330
 6189TIP3    H118573   2.175   3.127   4.395
 6189TIP3    H218574   2.076   3.220   4.328
 6190TIP3   OH218575   0.102   0.981   1.227
 6190TIP3    H118576   0.195   0.960   1.219
 6190TIP3    H218577   0.088   0.998   1.320
 6191TIP3   OH218578   0.971   1.073   0.100
 6191TIP3    H118579   0.927   1.118   0.172
 6191TIP3    H218580   0.955   0.980   0.117
 6192TIP3   OH218581   1.645   2.039   5.008
 6192TIP3    H118582   1.672   2.110   4.950
 6192TIP3    H218583   1.690   1.962   4.973
 6193TIP3   OH218584   6.209   1.602   1.184
 6193TIP3    H118585   6.160   1.547   1.245
 6193TIP3    H218586   6.142   1.641   1.128
 6194TIP3   OH218587   4.567   4.654   4.093
 6194TIP3    H118588   4.482   4.644   4.052
 6194TIP3    H218589   4.612   4.720   4.039
 6195TIP3   OH218590   1.640   0.137   4.307
 6195TIP3    H118591   1.695   0.212   4.327
 6195TIP3    H218592   1.701   0.068   4.281
 6196TIP3   OH218593   4.932   0.533   4.376
 6196TIP3    H118594   4.988   0.495   4.308
 6196TIP3    H218595   4.880   0.459   4.408
 6197TIP3   OH218596   6.106   4.121   4.534
 6197TIP3    H118597   6.064   4.207   4.538
 6197TIP3    H218598   6.179   4.127   4.595
 6198TIP3   OH218599   3.305   1.422   1.165
 6198TIP3    H118600   3.285   1.340   1.211
 6198TIP3    H218601   3.338   1.394   1.079
 6199TIP3   OH218602   3.348   0.107   3.472
 6199TIP3    H118603   3.358   0.119   3.566
 6199TIP3    H218604   3.265   0.060   3.462
 6200TIP3   OH218605   5.696   2.524   3.128
 6200TIP3    H118606   5.678   2.430   3.132
 6200TIP3    H218607   5.666   2.557   3.212
 6201TIP3   OH218608   0.819   1.518   2.143
 6201TIP3    H118609   0.777   1.475   2.069
 6201TIP3    H218610   0.907   1.479   2.146
 6202TIP3   OH218611   5.651   5.067   0.668
 6202TIP3    H118612   5.655   5.008   0.592
 6202TIP3    H218613   5.715   5.031   0.730
 6203TIP3   OH218614   5.862   4.857   4.573
 6203TIP3    H118615   5.939   4.882   4.523
 6203TIP3    H218616   5.791   4.910   4.537
 6204TIP3   OH218617   2.217   2.535   0.864
 6204TIP3    H118618   2.203   2.566   0.953
 6204TIP3    H218619   2.129   2.522   0.829
 6205TIP3   OH218620   1.798   5.468   3.015
 6205TIP3    H118621   1.792   5.459   2.920
 6205TIP3    H218622   1.742   5.543   3.036
 6206TIP3   OH218623   3.227   5.737   4.083
 6206TIP3    H118624   3.190   5.818   4.119
 6206TIP3    H218625   3.154   5.694   4.039
 6207TIP3   OH218626   3.885   5.376   2.956
 6207TIP3    H118627   3.849   5.409   3.038
 6207TIP3    H218628   3.886   5.281   2.966
 6208TIP3   OH218629   3.143   3.034   2.319
 6208TIP3    H118630   3.212   3.069   2.374
 6208TIP3    H218631   3.188   3.008   2.238
 6209TIP3   OH218632   3.732   2.606   1.445
 6209TIP3    H118633   3.692   2.524   1.417
 6209TIP3    H218634   3.811   2.614   1.390
 6210TIP3   OH218635   0.752   0.126   4.123
 6210TIP3    H118636   0.731   0.045   4.170
 6210TIP3    H218637   0.698   0.193   4.165
 6211TIP3   OH218638   1.186   3.602   5.135
 6211TIP3    H118639   1.115   3.553   5.176
 6211TIP3    H218640   1.264   3.549   5.150
 6212TIP3   OH218641   4.966   4.545   1.170
 6212TIP3    H118642   5.025   4.470   1.161
 6212TIP3    H218643   4.969   4.588   1.084
 6213TIP3   OH218644   2.094   5.309   3.926
 6213TIP3    H118645   2.157   5.363   3.878
 6213TIP3    H218646   2.068   5.363   4.000
 6214TIP3   OH218647   6.039   5.938   4.207
 6214TIP3    H118648   6.080   5.934   4.121
 6214TIP3    H218649   5.963   5.880   4.200
 6215TIP3   OH218650   0.093   3.183   3.628
 6215TIP3    H118651   0.164   3.125   3.654
 6215TIP3    H218652   0.099   3.187   3.532
 6216TIP3   OH218653   5.508   2.004   3.043
 6216TIP3    H118654   5.415   2.009   3.067
 6216TIP3    H218655   5.527   2.088   3.003
 6217TIP3   OH218656   6.150   4.662   0.520
 6217TIP3    H118657   6.070   4.681   0.570
 6217TIP3    H218658   6.221   4.686   0.579
 6218TIP3   OH218659   3.359   5.869   3.347
 6218TIP3    H118660   3.378   5.912   3.431
 6218TIP3    H218661   3.309   5.791   3.371
 6219TIP3   OH218662   4.609   0.198   1.009
 6219TIP3    H118663   4.698   0.233   1.014
 6219TIP3    H218664   4.604   0.156   0.923
 6220TIP3   OH218665   1.825   2.402   4.914
 6220TIP3    H118666   1.833   2.490   4.877
 6220TIP3    H218667   1.771   2.354   4.850
 6221TIP3   OH218668   0.019   2.147   0.394
 6221TIP3    H118669   0.029   2.120   0.302
 6221TIP3    H218670  -0.019   2.071   0.437
 6222TIP3   OH218671   1.730   3.982   4.615
 6222TIP3    H118672   1.648   4.003   4.570
 6222TIP3    H218673   1.706   3.978   4.708
 6223TIP3   OH218674   0.307   1.986   2.550
 6223TIP3    H118675   0.263   1.902   2.536
 6223TIP3    H218676   0.335   1.984   2.641
 6224TIP3   OH218677   3.795   0.402   3.154
 6224TIP3    H118678   3.825   0.406   3.063
 6224TIP3    H218679   3.876   0.405   3.206
 6225TIP3   OH218680   5.797   0.337   2.749
 6225TIP3    H118681   5.853   0.261   2.733
 6225TIP3    H218682   5.754   0.319   2.832
 6226TIP3   OH218683   3.944   2.654   4.822
 6226TIP3    H118684   3.895   2.650   4.904
 6226TIP3    H218685   3.876   2.655   4.754
 6227TIP3   OH218686   2.305   4.197   4.643
 6227TIP3    H118687   2.263   4.126   4.692
 6227TIP3    H218688   2.372   4.231   4.703
 6228TIP3   OH218689   4.046   1.370   2.062
 6228TIP3    H118690   4.086   1.418   1.989
 6228TIP3    H218691   4.108   1.300   2.081
 6229TIP3   OH218692   5.045   1.061   5.049
 6229TIP3    H118693   4.963   1.048   5.001
 6229TIP3    H218694   5.035   1.007   5.128
 6230TIP3   OH218695   4.082   0.820   0.147
 6230TIP3    H118696   4.121   0.734   0.162
 6230TIP3    H218697   4.138   0.861   0.081
 6231TIP3   OH218698   2.079   1.816   5.193
 6231TIP3    H118699   2.094   1.815   5.098
 6231TIP3    H218700   1.987   1.839   5.202
 6232TIP3   OH218701   0.718   3.556   2.232
 6232TIP3    H118702   0.756   3.599   2.308
 6232TIP3    H218703   0.648   3.501   2.267
 6233TIP3   OH218704   2.466   1.020   4.412
 6233TIP3    H118705   2.451   1.103   4.366
 6233TIP3    H218706   2.555   0.996   4.389
 6234TIP3   OH218707   5.995   3.582   3.719
 6234TIP3    H118708   5.960   3.665   3.685
 6234TIP3    H218709   5.973   3.584   3.812
 6235TIP3   OH218710   3.498   2.374   2.291
 6235TIP3    H118711   3.569   2.428   2.256
 6235TIP3    H218712   3.496   2.395   2.384
 6236TIP3   OH218713   0.994   1.524   5.020
 6236TIP3    H118714   0.978   1.438   4.981
 6236TIP3    H218715   1.085   1.520   5.050
 6237TIP3   OH218716   5.047   2.279   3.409
 6237TIP3    H118717   5.127   2.236   3.378
 6237TIP3    H218718   5.005   2.311   3.329
 6238TIP3   OH218719   5.148   1.960   4.628
 6238TIP3    H118720   5.206   2.025   4.667
 6238TIP3    H218721   5.201   1.881   4.620
 6239TIP3   OH218722   3.286   0.987   1.852
 6239TIP3    H118723   3.253   0.965   1.939
 6239TIP3    H218724   3.345   1.061   1.866
 6240TIP3   OH218725   4.549   5.577   0.361
 6240TIP3    H118726   4.591   5.600   0.444
 6240TIP3    H218727   4.594   5.630   0.296
 6241TIP3   OH218728   0.617   3.054   1.960
 6241TIP3    H118729   0.645   3.024   2.046
 6241TIP3    H218730   0.570   3.136   1.978
 6242TIP3   OH218731   1.652   2.671   3.394
 6242TIP3    H118732   1.644   2.586   3.352
 6242TIP3    H218733   1.603   2.731   3.338
 6243TIP3   OH218734   5.168   0.102   3.430
 6243TIP3    H118735   5.253   0.070   3.459
 6243TIP3    H218736   5.173   0.103   3.335
 6244TIP3   OH218737   0.334   4.677   0.731
 6244TIP3    H118738   0.365   4.740   0.666
 6244TIP3    H218739   0.298   4.730   0.802
 6245TIP3   OH218740   4.700   4.857   2.626
 6245TIP3    H118741   4.698   4.836   2.533
 6245TIP3    H218742   4.679   4.775   2.670
 6246TIP3   OH218743   4.496   4.059   4.574
 6246TIP3    H118744   4.528   4.128   4.516
 6246TIP3    H218745   4.456   4.106   4.647
 6247TIP3   OH218746   2.206   5.638   4.202
 6247TIP3    H118747   2.234   5.709   4.144
 6247TIP3    H218748   2.237   5.558   4.159
 6248TIP3   OH218749   1.506   4.455   1.804
 6248TIP3    H118750   1.413   4.476   1.815
 6248TIP3    H218751   1.513   4.363   1.832
 6249TIP3   OH218752   2.447   3.751   3.651
 6249TIP3    H118753   2.424   3.834   3.609
 6249TIP3    H218754   2.429   3.765   3.744
 6250TIP3   OH218755   4.886   2.278   3.168
 6250TIP3    H118756   4.884   2.183   3.154
 6250TIP3    H218757   4.909   2.314   3.083
 6251TIP3   OH218758   5.969   4.599   3.377
 6251TIP3    H118759   5.876   4.580   3.393
 6251TIP3    H218760   6.008   4.599   3.465
 6252TIP3   OH218761   1.462   5.828   1.536
 6252TIP3    H118762   1.557   5.831   1.529
 6252TIP3    H218763   1.444   5.853   1.627
 6253TIP3   OH218764   0.326   5.940   4.340
 6253TIP3    H118765   0.310   5.962   4.248
 6253TIP3    H218766   0.419   5.961   4.354
 6254TIP3   OH218767   4.128   0.255   2.417
 6254TIP3    H118768   4.164   0.201   2.347
 6254TIP3    H218769   4.160   0.343   2.399
 6255TIP3   OH218770   2.458   3.818   1.042
 6255TIP3    H118771   2.550   3.845   1.040
 6255TIP3    H218772   2.416   3.873   0.976
 6256TIP3   OH218773   4.328   1.840   2.579
 6256TIP3    H118774   4.313   1.929   2.612
 6256TIP3    H218775   4.254   1.789   2.612
 6257TIP3   OH218776   5.243   3.446   0.322
 6257TIP3    H118777   5.271   3.519   0.267
 6257TIP3    H218778   5.323   3.417   0.366
 6258TIP3   OH218779   6.194   4.375   0.412
 6258TIP3    H118780   6.129   4.444   0.427
 6258TIP3    H218781   6.228   4.355   0.499
 6259TIP3   OH218782   3.776   4.185   2.977
 6259TIP3    H118783   3.758   4.149   2.890
 6259TIP3    H218784   3.767   4.279   2.966
 6260TIP3   OH218785   3.042   0.291   0.950
 6260TIP3    H118786   3.080   0.203   0.951
 6260TIP3    H218787   3.106   0.344   0.903
 6261TIP3   OH218788   4.526   2.691   2.531
 6261TIP3    H118789   4.454   2.638   2.564
 6261TIP3    H218790   4.513   2.693   2.436
 6262TIP3   OH218791   2.166   2.249   1.477
 6262TIP3    H118792   2.100   2.183   1.497
 6262TIP3    H218793   2.135   2.328   1.520
 6263TIP3   OH218794   5.364   5.344   3.025
 6263TIP3    H118795   5.325   5.384   2.948
 6263TIP3    H218796   5.292   5.295   3.065
 6264TIP3   OH218797   0.814   3.390   0.363
 6264TIP3    H118798   0.877   3.431   0.423
 6264TIP3    H218799   0.753   3.460   0.340
 6265TIP3   OH218800   5.431   3.399   3.802
 6265TIP3    H118801   5.488   3.359   3.736
 6265TIP3    H218802   5.358   3.337   3.811
 6266TIP3   OH218803   4.247   2.600   2.602
 6266TIP3    H118804   4.181   2.659   2.637
 6266TIP3    H218805   4.223   2.514   2.636
 6267TIP3   OH218806   5.021   3.378   1.217
 6267TIP3    H118807   4.936   3.418   1.198
 6267TIP3    H218808   5.003   3.316   1.287
 6268TIP3   OH218809   1.668   0.258   3.233
 6268TIP3    H118810   1.575   0.271   3.249
 6268TIP3    H218811   1.689   0.320   3.163
 6269TIP3   OH218812   3.199   2.368   2.846
 6269TIP3    H118813   3.153   2.373   2.930
 6269TIP3    H218814   3.198   2.458   2.812
 6270TIP3   OH218815   0.851   3.254   5.182
 6270TIP3    H118816   0.939   3.292   5.179
 6270TIP3    H218817   0.817   3.265   5.093
 6271TIP3   OH218818   2.429   5.184   1.387
 6271TIP3    H118819   2.518   5.206   1.415
 6271TIP3    H218820   2.428   5.088   1.386
 6272TIP3   OH218821   5.563   3.390   3.044
 6272TIP3    H118822   5.518   3.316   3.085
 6272TIP3    H218823   5.648   3.354   3.017
 6273TIP3   OH218824   0.081   1.062   1.490
 6273TIP3    H118825   0.071   1.058   1.585
 6273TIP3    H218826   0.148   1.129   1.475
 6274TIP3   OH218827   4.457   3.636   0.557
 6274TIP3    H118828   4.500   3.625   0.642
 6274TIP3    H218829   4.482   3.724   0.529
 6275TIP3   OH218830   2.384   4.559   1.820
 6275TIP3    H118831   2.394   4.487   1.758
 6275TIP3    H218832   2.324   4.526   1.887
 6276TIP3   OH218833   4.838   4.226   0.010
 6276TIP3    H118834   4.865   4.240   0.101
 6276TIP3    H218835   4.753   4.183   0.016
 6277TIP3   OH218836   1.545   2.864   3.182
 6277TIP3    H118837   1.534   2.825   3.096
 6277TIP3    H218838   1.457   2.895   3.206
 6278TIP3   OH218839   4.937   3.235   1.815
 6278TIP3    H118840   4.845   3.243   1.790
 6278TIP3    H218841   4.973   3.323   1.802
 6279TIP3   OH218842   0.459   5.213   1.144
 6279TIP3    H118843   0.398   5.285   1.162
 6279TIP3    H218844   0.441   5.189   1.053
 6280TIP3   OH218845   1.011   2.303   0.049
 6280TIP3    H118846   1.084   2.288  -0.012
 6280TIP3    H218847   1.018   2.232   0.113
 6281TIP3   OH218848   5.321   4.475   3.509
 6281TIP3    H118849   5.389   4.419   3.546
 6281TIP3    H218850   5.368   4.534   3.450
 6282TIP3   OH218851   4.720   2.925   0.479
 6282TIP3    H118852   4.805   2.945   0.518
 6282TIP3    H218853   4.735   2.843   0.431
 6283TIP3   OH218854   0.346   5.168   2.409
 6283TIP3    H118855   0.256   5.195   2.425
 6283TIP3    H218856   0.343   5.120   2.327
 6284TIP3   OH218857   4.562   5.662   1.298
 6284TIP3    H118858   4.513   5.604   1.240
 6284TIP3    H218859   4.518   5.654   1.382
 6285TIP3   OH218860   4.060   3.477   1.986
 6285TIP3    H118861   4.040   3.401   2.041
 6285TIP3    H218862   4.019   3.457   1.902
 6286TIP3   OH218863   4.942   5.030   1.784
 6286TIP3    H118864   4.928   5.015   1.691
 6286TIP3    H218865   4.917   4.947   1.826
 6287TIP3   OH218866   5.403   4.953   0.238
 6287TIP3    H118867   5.333   4.893   0.215
 6287TIP3    H218868   5.481   4.917   0.196
 6288TIP3   OH218869   2.439   3.450   0.202
 6288TIP3    H118870   2.432   3.400   0.121
 6288TIP3    H218871   2.446   3.384   0.271
 6289TIP3   OH218872   2.780   4.399   0.033
 6289TIP3    H118873   2.750   4.426  -0.054
 6289TIP3    H218874   2.712   4.340   0.065
 6290TIP3   OH218875   3.482   4.887   2.136
 6290TIP3    H118876   3.423   4.926   2.071
 6290TIP3    H218877   3.568   4.891   2.096
 6291TIP3   OH218878   0.146   3.047   2.321
 6291TIP3    H118879   0.085   3.063   2.394
 6291TIP3    H218880   0.220   3.002   2.361
 6292TIP3   OH218881   1.152   4.363   4.598
 6292TIP3    H118882   1.208   4.408   4.535
 6292TIP3    H218883   1.169   4.270   4.583
 6293TIP3   OH218884   1.603   5.473   4.166
 6293TIP3    H118885   1.631   5.562   4.145
 6293TIP3    H218886   1.641   5.419   4.097
 6294TIP3   OH218887   5.209   4.269   2.816
 6294TIP3    H118888   5.290   4.250   2.769
 6294TIP3    H218889   5.212   4.212   2.893
 6295TIP3   OH218890   3.584   3.561   2.699
 6295TIP3    H118891   3.625   3.595   2.620
 6295TIP3    H218892   3.600   3.629   2.765
 6296TIP3   OH218893   4.304   1.183   5.134
 6296TIP3    H118894   4.244   1.210   5.065
 6296TIP3    H218895   4.312   1.261   5.190
 6297TIP3   OH218896   4.873   2.749   1.297
 6297TIP3    H118897   4.936   2.818   1.277
 6297TIP3    H218898   4.918   2.696   1.363
 6298TIP3   OH218899   2.307   4.238   2.404
 6298TIP3    H118900   2.337   4.243   2.313
 6298TIP3    H218901   2.381   4.201   2.452
 6299TIP3   OH218902   3.050   2.359   2.419
 6299TIP3    H118903   2.974   2.301   2.429
 6299TIP3    H218904   3.117   2.321   2.474
 6300TIP3   OH218905   0.278   1.238   2.135
 6300TIP3    H118906   0.252   1.214   2.224
 6300TIP3    H218907   0.218   1.309   2.111
 6301TIP3   OH218908   2.841   0.719   3.088
 6301TIP3    H118909   2.900   0.717   3.014
 6301TIP3    H218910   2.898   0.717   3.165
 6302TIP3   OH218911   2.905   3.119   2.189
 6302TIP3    H118912   2.965   3.099   2.261
 6302TIP3    H218913   2.831   3.059   2.203
 6303TIP3   OH218914   2.847   1.404   2.080
 6303TIP3    H118915   2.824   1.380   1.990
 6303TIP3    H218916   2.823   1.328   2.132
 6304TIP3   OH218917   5.814   5.057   3.067
 6304TIP3    H118918   5.901   5.085   3.096
 6304TIP3    H218919   5.788   4.990   3.131
 6305TIP3   OH218920   5.412   2.686   4.894
 6305TIP3    H118921   5.421   2.591   4.903
 6305TIP3    H218922   5.466   2.722   4.965
 6306TIP3   OH218923   5.290   4.865   0.486
 6306TIP3    H118924   5.346   4.825   0.553
 6306TIP3    H218925   5.351   4.907   0.426
 6307TIP3   OH218926   0.359   2.779   1.749
 6307TIP3    H118927   0.405   2.776   1.832
 6307TIP3    H218928   0.428   2.792   1.683
 6308TIP3   OH218929   1.894   5.369   5.147
 6308TIP3    H118930   1.946   5.436   5.103
 6308TIP3    H218931   1.808   5.409   5.158
 6309TIP3   OH218932   1.451   5.814   2.548
 6309TIP3    H118933   1.518   5.804   2.615
 6309TIP3    H218934   1.424   5.725   2.527
 6310TIP3   OH218935   2.318   3.527   1.388
 6310TIP3    H118936   2.224   3.534   1.368
 6310TIP3    H218937   2.344   3.445   1.348
 6311TIP3   OH218938   0.802   5.715   1.974
 6311TIP3    H118939   0.873   5.697   1.912
 6311TIP3    H218940   0.783   5.808   1.962
 6312TIP3   OH218941   6.255   1.375   4.535
 6312TIP3    H118942   6.327   1.341   4.589
 6312TIP3    H218943   6.179   1.324   4.562
 6313TIP3   OH218944   3.063   0.797   5.108
 6313TIP3    H118945   3.115   0.766   5.183
 6313TIP3    H218946   3.127   0.833   5.047
 6314TIP3   OH218947   5.683   4.202   3.802
 6314TIP3    H118948   5.748   4.224   3.735
 6314TIP3    H218949   5.675   4.106   3.797
 6315TIP3   OH218950   5.383   2.712   2.937
 6315TIP3    H118951   5.318   2.678   2.875
 6315TIP3    H218952   5.453   2.647   2.936
 6316TIP3   OH218953   0.048   1.761   1.266
 6316TIP3    H118954   0.083   1.771   1.178
 6316TIP3    H218955  -0.031   1.708   1.253
 6317TIP3   OH218956   4.641   0.740   1.818
 6317TIP3    H118957   4.602   0.771   1.900
 6317TIP3    H218958   4.630   0.645   1.820
 6318TIP3   OH218959   0.487   5.248   3.122
 6318TIP3    H118960   0.464   5.316   3.058
 6318TIP3    H218961   0.579   5.230   3.106
 6319TIP3   OH218962   3.187   4.931   3.501
 6319TIP3    H118963   3.258   4.869   3.483
 6319TIP3    H218964   3.113   4.896   3.451
 6320TIP3   OH218965   4.514   0.888   0.607
 6320TIP3    H118966   4.420   0.871   0.605
 6320TIP3    H218967   4.530   0.941   0.528
 6321TIP3   OH218968   4.023   1.470   5.108
 6321TIP3    H118969   4.078   1.426   5.043
 6321TIP3    H218970   3.969   1.530   5.056
 6322TIP3   OH218971   1.189   4.496   1.214
 6322TIP3    H118972   1.194   4.587   1.242
 6322TIP3    H218973   1.117   4.494   1.151
 6323TIP3   OH218974   2.059   4.876   1.307
 6323TIP3    H118975   1.997   4.831   1.364
 6323TIP3    H218976   2.036   4.968   1.315
 6324TIP3   OH218977   3.125   4.639   1.839
 6324TIP3    H118978   3.122   4.588   1.920
 6324TIP3    H218979   3.133   4.730   1.869
 6325TIP3   OH218980   2.366   2.172   4.521
 6325TIP3    H118981   2.322   2.236   4.577
 6325TIP3    H218982   2.327   2.088   4.546
 6326TIP3   OH218983   1.820   0.774   1.424
 6326TIP3    H118984   1.844   0.816   1.506
 6326TIP3    H218985   1.734   0.736   1.440
 6327TIP3   OH218986   3.927   1.346   0.191
 6327TIP3    H118987   3.981   1.399   0.250
 6327TIP3    H218988   3.988   1.285   0.150
 6328TIP3   OH218989   4.278   4.253   4.959
 6328TIP3    H118990   4.188   4.237   4.989
 6328TIP3    H218991   4.315   4.312   5.025
 6329TIP3   OH218992   1.532   0.709   3.454
 6329TIP3    H118993   1.496   0.796   3.439
 6329TIP3    H218994   1.562   0.680   3.368
 6330TIP3   OH218995   5.930   5.190   4.241
 6330TIP3    H118996   5.928   5.281   4.212
 6330TIP3    H218997   5.931   5.195   4.337
 6331TIP3   OH218998   1.519   1.000   3.476
 6331TIP3    H118999   1.437   0.996   3.427
 6331TIP3    H219000   1.493   0.999   3.568
 6332TIP3   OH219001   3.719   0.505   3.627
 6332TIP3    H119002   3.754   0.471   3.709
 6332TIP3    H219003   3.716   0.429   3.569
 6333TIP3   OH219004   3.650   1.978   4.519
 6333TIP3    H119005   3.646   1.917   4.445
 6333TIP3    H219006   3.634   2.064   4.481
 6334TIP3   OH219007   2.881   5.785   2.615
 6334TIP3    H119008   2.877   5.873   2.577
 6334TIP3    H219009   2.791   5.766   2.640
 6335TIP3   OH219010   5.551   4.511   4.254
 6335TIP3    H119011   5.532   4.520   4.347
 6335TIP3    H219012   5.478   4.460   4.219
 6336TIP3   OH219013   4.242   1.728   3.320
 6336TIP3    H119014   4.162   1.712   3.371
 6336TIP3    H219015   4.216   1.794   3.256
 6337TIP3   OH219016   1.712   2.367   0.613
 6337TIP3    H119017   1.720   2.395   0.704
 6337TIP3    H219018   1.705   2.448   0.563
 6338TIP3   OH219019   5.582   3.557   0.993
 6338TIP3    H119020   5.648   3.599   1.049
 6338TIP3    H219021   5.611   3.466   0.987
 6339TIP3   OH219022   6.097   2.210   0.597
 6339TIP3    H119023   6.071   2.229   0.507
 6339TIP3    H219024   6.155   2.282   0.621
 6340TIP3   OH219025   4.865   3.542   1.476
 6340TIP3    H119026   4.784   3.592   1.467
 6340TIP3    H219027   4.933   3.602   1.446
 6341TIP3   OH219028   4.612   3.561   2.296
 6341TIP3    H119029   4.631   3.554   2.389
 6341TIP3    H219030   4.521   3.535   2.287
 6342TIP3   OH219031   4.548   1.430   2.088
 6342TIP3    H119032   4.635   1.440   2.128
 6342TIP3    H219033   4.567   1.410   1.996
 6343TIP3   OH219034   1.513   1.528   3.548
 6343TIP3    H119035   1.519   1.532   3.453
 6343TIP3    H219036   1.423   1.502   3.566
 6344TIP3   OH219037   3.893   3.212   3.155
 6344TIP3    H119038   3.917   3.134   3.204
 6344TIP3    H219039   3.974   3.238   3.111
 6345TIP3   OH219040   1.790   1.946   4.356
 6345TIP3    H119041   1.805   1.975   4.266
 6345TIP3    H219042   1.751   2.022   4.400
 6346TIP3   OH219043   5.307   1.373   0.688
 6346TIP3    H119044   5.327   1.451   0.636
 6346TIP3    H219045   5.341   1.301   0.636
 6347TIP3   OH219046   4.234   1.420   2.314
 6347TIP3    H119047   4.167   1.480   2.281
 6347TIP3    H219048   4.214   1.410   2.407
 6348TIP3   OH219049   1.700   3.495   2.990
 6348TIP3    H119050   1.785   3.527   2.959
 6348TIP3    H219051   1.637   3.537   2.931
 6349TIP3   OH219052   4.313   2.692   1.331
 6349TIP3    H119053   4.407   2.679   1.319
 6349TIP3    H219054   4.276   2.686   1.243
 6350TIP3   OH219055   4.163   5.137   3.134
 6350TIP3    H119056   4.094   5.111   3.073
 6350TIP3    H219057   4.155   5.075   3.207
 6351TIP3   OH219058   2.017   0.539   0.271
 6351TIP3    H119059   2.097   0.592   0.273
 6351TIP3    H219060   1.958   0.582   0.333
 6352TIP3   OH219061   3.030   1.312   4.108
 6352TIP3    H119062   2.944   1.347   4.132
 6352TIP3    H219063   3.077   1.305   4.192
 6353TIP3   OH219064   4.993   5.495   4.089
 6353TIP3    H119065   5.036   5.558   4.031
 6353TIP3    H219066   4.903   5.489   4.055
 6354TIP3   OH219067   4.685   0.549   5.135
 6354TIP3    H119068   4.647   0.466   5.108
 6354TIP3    H219069   4.768   0.524   5.177
 6355TIP3   OH219070   5.497   1.624   1.145
 6355TIP3    H119071   5.447   1.654   1.069
 6355TIP3    H219072   5.553   1.699   1.168
 6356TIP3   OH219073   5.750   5.465   2.940
 6356TIP3    H119074   5.845   5.471   2.946
 6356TIP3    H219075   5.724   5.421   3.021
 6357TIP3   OH219076   5.602   5.782   1.308
 6357TIP3    H119077   5.516   5.765   1.269
 6357TIP3    H219078   5.664   5.764   1.237
 6358TIP3   OH219079   5.047   4.740   4.510
 6358TIP3    H119080   4.991   4.667   4.540
 6358TIP3    H219081   5.113   4.698   4.456
 6359TIP3   OH219082   0.188   0.850   4.895
 6359TIP3    H119083   0.203   0.780   4.831
 6359TIP3    H219084   0.123   0.813   4.955
 6360TIP3   OH219085   0.815   4.372   1.204
 6360TIP3    H119086   0.753   4.300   1.217
 6360TIP3    H219087   0.815   4.420   1.287
 6361TIP3   OH219088   1.003   3.193   0.770
 6361TIP3    H119089   0.935   3.258   0.749
 6361TIP3    H219090   1.085   3.242   0.763
 6362TIP3   OH219091   1.402   3.894   3.754
 6362TIP3    H119092   1.450   3.976   3.762
 6362TIP3    H219093   1.461   3.828   3.790
 6363TIP3   OH219094   1.352   5.971   1.796
 6363TIP3    H119095   1.344   6.032   1.870
 6363TIP3    H219096   1.294   5.898   1.819
 6364TIP3   OH219097   0.553   2.452   1.759
 6364TIP3    H119098   0.485   2.475   1.695
 6364TIP3    H219099   0.619   2.520   1.749
 6365TIP3   OH219100   3.722   5.009   4.983
 6365TIP3    H119101   3.779   5.069   4.934
 6365TIP3    H219102   3.745   5.025   5.075
 6366TIP3   OH219103   2.557   4.430   3.016
 6366TIP3    H119104   2.644   4.419   2.978
 6366TIP3    H219105   2.499   4.379   2.958
 6367TIP3   OH219106   4.109   4.663   3.672
 6367TIP3    H119107   4.193   4.630   3.704
 6367TIP3    H219108   4.110   4.642   3.578
 6368TIP3   OH219109   1.694   4.614   5.097
 6368TIP3    H119110   1.718   4.551   5.165
 6368TIP3    H219111   1.598   4.614   5.097
 6369TIP3   OH219112   4.725   2.316   4.460
 6369TIP3    H119113   4.646   2.369   4.450
 6369TIP3    H219114   4.786   2.372   4.508
 6370TIP3   OH219115   5.513   3.327   4.153
 6370TIP3    H119116   5.464   3.297   4.229
 6370TIP3    H219117   5.460   3.298   4.078
 6371TIP3   OH219118   4.333   4.258   0.671
 6371TIP3    H119119   4.300   4.335   0.626
 6371TIP3    H219120   4.268   4.239   0.738
 6372TIP3   OH219121   6.220   4.876   2.680
 6372TIP3    H119122   6.184   4.817   2.614
 6372TIP3    H219123   6.179   4.960   2.663
 6373TIP3   OH219124   4.208   1.525   0.735
 6373TIP3    H119125   4.301   1.508   0.749
 6373TIP3    H219126   4.177   1.559   0.819
 6374TIP3   OH219127   6.103   0.489   3.003
 6374TIP3    H119128   6.167   0.472   3.072
 6374TIP3    H219129   6.020   0.502   3.049
 6375TIP3   OH219130   5.404   5.344   4.627
 6375TIP3    H119131   5.418   5.265   4.575
 6375TIP3    H219132   5.335   5.391   4.580
 6376TIP3   OH219133   2.211   1.219   4.471
 6376TIP3    H119134   2.165   1.144   4.432
 6376TIP3    H219135   2.170   1.296   4.430
 6377TIP3   OH219136   4.106   2.622   3.942
 6377TIP3    H119137   4.083   2.709   3.911
 6377TIP3    H219138   4.194   2.607   3.908
 6378TIP3   OH219139   2.433   5.919   3.597
 6378TIP3    H119140   2.366   5.853   3.618
 6378TIP3    H219141   2.512   5.868   3.582
 6379TIP3   OH219142   4.604   0.573   3.701
 6379TIP3    H119143   4.626   0.618   3.620
 6379TIP3    H219144   4.529   0.622   3.736
 6380TIP3   OH219145   6.224   5.371   2.923
 6380TIP3    H119146   6.227   5.436   2.853
 6380TIP3    H219147   6.152   5.399   2.979
 6381TIP3   OH219148   2.027   5.836   0.796
 6381TIP3    H119149   1.993   5.778   0.864
 6381TIP3    H219150   2.080   5.900   0.843
 6382TIP3   OH219151   1.834   5.331   3.240
 6382TIP3    H119152   1.843   5.373   3.154
 6382TIP3    H219153   1.828   5.238   3.219
 6383TIP3   OH219154   6.321   3.080   2.539
 6383TIP3    H119155   6.316   3.155   2.598
 6383TIP3    H219156   6.288   3.007   2.590
 6384TIP3   OH219157   3.676   2.826   4.223
 6384TIP3    H119158   3.587   2.793   4.233
 6384TIP3    H219159   3.723   2.795   4.301
 6385TIP3   OH219160   4.557   2.133   4.955
 6385TIP3    H119161   4.580   2.192   4.883
 6385TIP3    H219162   4.573   2.185   5.034
 6386TIP3   OH219163   4.383   2.697   3.925
 6386TIP3    H119164   4.455   2.750   3.891
 6386TIP3    H219165   4.386   2.616   3.874
 6387TIP3   OH219166   4.273   2.628   3.018
 6387TIP3    H119167   4.226   2.689   3.075
 6387TIP3    H219168   4.303   2.682   2.945
 6388TIP3   OH219169   2.260   5.589   3.315
 6388TIP3    H119170   2.168   5.613   3.312
 6388TIP3    H219171   2.296   5.619   3.232
 6389TIP3   OH219172   4.438   4.111   3.174
 6389TIP3    H119173   4.448   4.016   3.177
 6389TIP3    H219174   4.515   4.145   3.220
 6390TIP3   OH219175   5.928   4.890   0.400
 6390TIP3    H119176   5.981   4.958   0.441
 6390TIP3    H219177   5.908   4.829   0.471
 6391TIP3   OH219178   4.715   1.524   0.563
 6391TIP3    H119179   4.796   1.572   0.580
 6391TIP3    H219180   4.678   1.567   0.486
 6392TIP3   OH219181   5.967   0.316   0.803
 6392TIP3    H119182   6.021   0.238   0.789
 6392TIP3    H219183   5.949   0.316   0.897
 6393TIP3   OH219184   4.538   3.146   0.447
 6393TIP3    H119185   4.587   3.065   0.458
 6393TIP3    H219186   4.497   3.160   0.532
 6394TIP3   OH219187   3.027   3.511   4.544
 6394TIP3    H119188   3.068   3.452   4.607
 6394TIP3    H219189   2.933   3.496   4.555
 6395TIP3   OH219190   5.459   0.218   2.099
 6395TIP3    H119191   5.553   0.215   2.117
 6395TIP3    H219192   5.429   0.127   2.108
 6396TIP3   OH219193   5.138   0.620   1.004
 6396TIP3    H119194   5.233   0.628   0.996
 6396TIP3    H219195   5.104   0.703   0.972
 6397TIP3   OH219196   2.870   1.619   4.436
 6397TIP3    H119197   2.791   1.651   4.481
 6397TIP3    H219198   2.867   1.524   4.446
 6398TIP3   OH219199   0.211   2.706   2.140
 6398TIP3    H119200   0.304   2.693   2.159
 6398TIP3    H219201   0.203   2.800   2.123
 6399TIP3   OH219202   4.127   4.309   0.845
 6399TIP3    H119203   4.050   4.270   0.803
 6399TIP3    H219204   4.099   4.329   0.934
 6400TIP3   OH219205   2.877   2.061   2.194
 6400TIP3    H119206   2.839   2.149   2.203
 6400TIP3    H219207   2.842   2.012   2.268
 6401TIP3   OH219208   0.025   4.172   4.270
 6401TIP3    H119209  -0.012   4.135   4.350
 6401TIP3    H219210   0.064   4.255   4.297
 6402TIP3   OH219211   6.297   4.927   4.695
 6402TIP3    H119212   6.240   4.855   4.721
 6402TIP3    H219213   6.295   4.987   4.769
 6403TIP3   OH219214   3.890   1.071   1.845
 6403TIP3    H119215   3.867   1.023   1.924
 6403TIP3    H219216   3.859   1.016   1.773
 6404TIP3   OH219217   5.281   1.825   1.337
 6404TIP3    H119218   5.325   1.896   1.290
 6404TIP3    H219219   5.352   1.770   1.370
 6405TIP3   OH219220   0.679   4.053   3.513
 6405TIP3    H119221   0.651   4.137   3.477
 6405TIP3    H219222   0.714   4.005   3.437
 6406TIP3   OH219223   5.524   1.090   3.357
 6406TIP3    H119224   5.439   1.093   3.313
 6406TIP3    H219225   5.588   1.081   3.286
 6407TIP3   OH219226   6.254   2.372   4.873
 6407TIP3    H119227   6.193   2.302   4.898
 6407TIP3    H219228   6.225   2.448   4.924
 6408TIP3   OH219229   3.200   4.904   1.584
 6408TIP3    H119230   3.262   4.975   1.603
 6408TIP3    H219231   3.125   4.923   1.640
 6409TIP3   OH219232   0.397   3.178   2.282
 6409TIP3    H119233   0.418   3.197   2.374
 6409TIP3    H219234   0.301   3.180   2.279
 6410TIP3   OH219235   2.505   3.765   3.256
 6410TIP3    H119236   2.491   3.702   3.326
 6410TIP3    H219237   2.516   3.712   3.177
 6411TIP3   OH219238   2.816   1.575   4.805
 6411TIP3    H119239   2.738   1.617   4.768
 6411TIP3    H219240   2.784   1.529   4.883
 6412TIP3   OH219241   1.166   4.472   4.235
 6412TIP3    H119242   1.224   4.509   4.169
 6412TIP3    H219243   1.213   4.483   4.317
 6413TIP3   OH219244   5.710   3.987   3.466
 6413TIP3    H119245   5.708   4.056   3.399
 6413TIP3    H219246   5.802   3.978   3.489
 6414TIP3   OH219247   4.029   2.744   2.725
 6414TIP3    H119248   3.969   2.819   2.726
 6414TIP3    H219249   4.020   2.705   2.812
 6415TIP3   OH219250   5.583   0.731   5.026
 6415TIP3    H119251   5.506   0.676   5.041
 6415TIP3    H219252   5.556   0.818   5.058
 6416TIP3   OH219253   1.771   2.480   0.019
 6416TIP3    H119254   1.708   2.541   0.058
 6416TIP3    H219255   1.842   2.535  -0.012
 6417TIP3   OH219256   6.305   1.070   0.999
 6417TIP3    H119257   6.323   1.001   0.936
 6417TIP3    H219258   6.349   1.041   1.079
 6418TIP3   OH219259   0.168   0.503   4.965
 6418TIP3    H119260   0.159   0.572   4.900
 6418TIP3    H219261   0.136   0.542   5.046
 6419TIP3   OH219262   3.146   5.850   0.868
 6419TIP3    H119263   3.188   5.820   0.787
 6419TIP3    H219264   3.062   5.887   0.840
 6420TIP3   OH219265   4.438   3.596   2.552
 6420TIP3    H119266   4.407   3.577   2.640
 6420TIP3    H219267   4.459   3.690   2.553
 6421TIP3   OH219268   3.512   2.709   3.002
 6421TIP3    H119269   3.589   2.727   2.948
 6421TIP3    H219270   3.479   2.795   3.027
 6422TIP3   OH219271   5.710   3.678   4.704
 6422TIP3    H119272   5.760   3.603   4.737
 6422TIP3    H219273   5.705   3.664   4.610
 6423TIP3   OH219274   2.053   0.767   4.058
 6423TIP3    H119275   2.047   0.688   4.004
 6423TIP3    H219276   2.011   0.744   4.140
 6424TIP3   OH219277   1.167   4.812   2.639
 6424TIP3    H119278   1.202   4.852   2.719
 6424TIP3    H219279   1.073   4.805   2.655
 6425TIP3   OH219280   5.276   3.841   2.482
 6425TIP3    H119281   5.297   3.803   2.397
 6425TIP3    H219282   5.196   3.891   2.467
 6426TIP3   OH219283   0.609   5.138   2.002
 6426TIP3    H119284   0.646   5.125   1.915
 6426TIP3    H219285   0.545   5.209   1.991
 6427TIP3   OH219286   6.119   4.749   4.075
 6427TIP3    H119287   6.071   4.831   4.076
 6427TIP3    H219288   6.052   4.681   4.080
 6428TIP3   OH219289   2.832   0.181   3.403
 6428TIP3    H119290   2.898   0.199   3.470
 6428TIP3    H219291   2.882   0.154   3.326
 6429TIP3   OH219292   3.161   5.495   4.243
 6429TIP3    H119293   3.223   5.555   4.201
 6429TIP3    H219294   3.203   5.473   4.327
 6430TIP3   OH219295   3.251   5.802   1.743
 6430TIP3    H119296   3.168   5.847   1.763
 6430TIP3    H219297   3.317   5.872   1.745
 6431TIP3   OH219298   6.236   0.127   0.095
 6431TIP3    H119299   6.331   0.127   0.104
 6431TIP3    H219300   6.214   0.037   0.070
 6432TIP3   OH219301   3.287   0.140   1.151
 6432TIP3    H119302   3.210   0.100   1.109
 6432TIP3    H219303   3.270   0.130   1.244
 6433TIP3   OH219304   4.918   3.632   0.824
 6433TIP3    H119305   4.954   3.629   0.913
 6433TIP3    H219306   4.930   3.542   0.791
 6434TIP3   OH219307   4.279   4.377   1.867
 6434TIP3    H119308   4.277   4.366   1.772
 6434TIP3    H219309   4.187   4.378   1.893
 6435TIP3   OH219310   4.252   5.213   0.103
 6435TIP3    H119311   4.271   5.230   0.195
 6435TIP3    H219312   4.337   5.198   0.062
 6436TIP3   OH219313   2.130   0.576   2.255
 6436TIP3    H119314   2.210   0.571   2.307
 6436TIP3    H219315   2.073   0.636   2.303
 6437TIP3   OH219316   6.117   5.502   2.122
 6437TIP3    H119317   6.121   5.409   2.098
 6437TIP3    H219318   6.121   5.502   2.218
 6438TIP3   OH219319   3.471   4.077   1.930
 6438TIP3    H119320   3.402   4.141   1.946
 6438TIP3    H219321   3.434   3.994   1.962
 6439TIP3   OH219322   0.013   0.335   4.339
 6439TIP3    H119323   0.052   0.272   4.278
 6439TIP3    H219324   0.087   0.366   4.391
 6440TIP3   OH219325   4.258   4.992   4.157
 6440TIP3    H119326   4.347   4.976   4.187
 6440TIP3    H219327   4.218   4.905   4.154
 6441TIP3   OH219328   5.117   1.467   2.298
 6441TIP3    H119329   5.087   1.411   2.226
 6441TIP3    H219330   5.146   1.547   2.254
 6442TIP3   OH219331   5.729   4.333   2.277
 6442TIP3    H119332   5.634   4.332   2.271
 6442TIP3    H219333   5.754   4.241   2.282
 6443TIP3   OH219334   1.798   5.719   0.514
 6443TIP3    H119335   1.862   5.769   0.464
 6443TIP3    H219336   1.751   5.669   0.448
 6444TIP3   OH219337   0.938   1.175   4.207
 6444TIP3    H119338   0.859   1.167   4.153
 6444TIP3    H219339   1.010   1.165   4.145
 6445TIP3   OH219340   2.780   0.753   0.333
 6445TIP3    H119341   2.785   0.658   0.321
 6445TIP3    H219342   2.727   0.783   0.260
 6446TIP3   OH219343   2.436   3.184   4.676
 6446TIP3    H119344   2.479   3.151   4.755
 6446TIP3    H219345   2.403   3.271   4.701
 6447TIP3   OH219346   0.197   3.111   3.277
 6447TIP3    H119347   0.276   3.146   3.318
 6447TIP3    H219348   0.151   3.188   3.244
 6448TIP3   OH219349   4.103   1.140   4.029
 6448TIP3    H119350   4.072   1.201   4.095
 6448TIP3    H219351   4.194   1.123   4.053
 6449TIP3   OH219352   4.004   4.165   1.098
 6449TIP3    H119353   3.918   4.188   1.065
 6449TIP3    H219354   3.987   4.103   1.169
 6450TIP3   OH219355   5.723   4.815   3.591
 6450TIP3    H119356   5.700   4.865   3.670
 6450TIP3    H219357   5.684   4.729   3.606
 6451TIP3   OH219358   3.046   4.069   3.685
 6451TIP3    H119359   3.077   4.102   3.600
 6451TIP3    H219360   3.092   4.123   3.749
 6452TIP3   OH219361   5.583   1.364   1.983
 6452TIP3    H119362   5.652   1.301   2.003
 6452TIP3    H219363   5.516   1.349   2.050
 6453TIP3   OH219364  -0.021   5.040   1.693
 6453TIP3    H119365   0.062   5.002   1.664
 6453TIP3    H219366  -0.038   4.999   1.778
 6454TIP3   OH219367   5.618   1.398   2.366
 6454TIP3    H119368   5.696   1.382   2.312
 6454TIP3    H219369   5.634   1.484   2.405
 6455TIP3   OH219370   0.087   3.142   1.394
 6455TIP3    H119371   0.029   3.217   1.403
 6455TIP3    H219372   0.068   3.087   1.470
 6456TIP3   OH219373   4.206   2.621   3.318
 6456TIP3    H119374   4.235   2.557   3.253
 6456TIP3    H219375   4.268   2.693   3.311
 6457TIP3   OH219376   0.768   3.042   1.411
 6457TIP3    H119377   0.692   3.060   1.467
 6457TIP3    H219378   0.745   2.963   1.363
 6458TIP3   OH219379   4.857   5.061   0.320
 6458TIP3    H119380   4.794   4.998   0.287
 6458TIP3    H219381   4.924   5.067   0.251
 6459TIP3   OH219382   2.905   2.433   1.205
 6459TIP3    H119383   2.970   2.371   1.237
 6459TIP3    H219384   2.929   2.516   1.246
 6460TIP3   OH219385   0.407   4.628   3.674
 6460TIP3    H119386   0.351   4.660   3.744
 6460TIP3    H219387   0.457   4.557   3.713
 6461TIP3   OH219388   2.085   3.690   2.526
 6461TIP3    H119389   2.146   3.640   2.472
 6461TIP3    H219390   2.141   3.740   2.585
 6462TIP3   OH219391   4.175   5.093   1.585
 6462TIP3    H119392   4.193   5.010   1.540
 6462TIP3    H219393   4.120   5.142   1.523
 6463TIP3   OH219394   5.272   5.307   1.002
 6463TIP3    H119395   5.342   5.276   0.944
 6463TIP3    H219396   5.211   5.352   0.943
 6464TIP3   OH219397   6.274   4.768   0.298
 6464TIP3    H119398   6.269   4.838   0.363
 6464TIP3    H219399   6.216   4.700   0.332
 6465TIP3   OH219400   0.036   2.127   1.230
 6465TIP3    H119401  -0.054   2.152   1.250
 6465TIP3    H219402   0.042   2.134   1.135
 6466TIP3   OH219403   5.785   2.766   1.506
 6466TIP3    H119404   5.726   2.691   1.501
 6466TIP3    H219405   5.836   2.762   1.425
 6467TIP3   OH219406   1.897   4.572   4.854
 6467TIP3    H119407   1.982   4.615   4.866
 6467TIP3    H219408   1.846   4.601   4.930
 6468TIP3   OH219409   4.600   2.190   3.535
 6468TIP3    H119410   4.506   2.172   3.543
 6468TIP3    H219411   4.642   2.104   3.545
 6469TIP3   OH219412   6.148   1.403   5.092
 6469TIP3    H119413   6.217   1.414   5.026
 6469TIP3    H219414   6.115   1.314   5.078
 6470TIP3   OH219415   1.349   1.211   5.116
 6470TIP3    H119416   1.407   1.143   5.082
 6470TIP3    H219417   1.346   1.277   5.046
 6471TIP3   OH219418   2.115   1.048   2.050
 6471TIP3    H119419   2.096   1.006   1.967
 6471TIP3    H219420   2.210   1.051   2.055
 6472TIP3   OH219421   4.280   2.935   4.240
 6472TIP3    H119422   4.320   2.849   4.230
 6472TIP3    H219423   4.220   2.943   4.167
 6473TIP3   OH219424   3.782   5.595   3.141
 6473TIP3    H119425   3.730   5.610   3.220
 6473TIP3    H219426   3.873   5.607   3.169
 6474TIP3   OH219427   3.624   1.355   0.695
 6474TIP3    H119428   3.533   1.357   0.667
 6474TIP3    H219429   3.639   1.439   0.739
 6475TIP3   OH219430   5.255   2.921   0.026
 6475TIP3    H119431   5.259   2.826   0.018
 6475TIP3    H219432   5.315   2.954  -0.040
 6476TIP3   OH219433   2.085   3.324   5.019
 6476TIP3    H119434   2.135   3.378   5.081
 6476TIP3    H219435   2.071   3.381   4.944
 6477TIP3   OH219436   3.582   4.734   4.534
 6477TIP3    H119437   3.499   4.717   4.578
 6477TIP3    H219438   3.575   4.687   4.450
 6478TIP3   OH219439   0.167   3.839   1.559
 6478TIP3    H119440   0.225   3.914   1.543
 6478TIP3    H219441   0.166   3.830   1.654
 6479TIP3   OH219442   3.518   3.066   1.543
 6479TIP3    H119443   3.545   3.025   1.625
 6479TIP3    H219444   3.547   3.006   1.474
 6480TIP3   OH219445   1.415   5.400   2.174
 6480TIP3    H119446   1.484   5.441   2.226
 6480TIP3    H219447   1.388   5.324   2.225
 6481TIP3   OH219448   2.163   0.867   3.207
 6481TIP3    H119449   2.167   0.951   3.252
 6481TIP3    H219450   2.105   0.882   3.133
 6482TIP3   OH219451   5.177   4.091   4.405
 6482TIP3    H119452   5.218   4.150   4.341
 6482TIP3    H219453   5.164   4.009   4.357
 6483TIP3   OH219454   2.869   5.770   1.129
 6483TIP3    H119455   2.817   5.709   1.181
 6483TIP3    H219456   2.811   5.844   1.115
 6484TIP3   OH219457   2.633   1.283   4.743
 6484TIP3    H119458   2.549   1.305   4.701
 6484TIP3    H219459   2.627   1.323   4.830
 6485TIP3   OH219460   3.843   4.367   0.468
 6485TIP3    H119461   3.808   4.328   0.388
 6485TIP3    H219462   3.769   4.411   0.508
 6486TIP3   OH219463   6.189   0.364   3.628
 6486TIP3    H119464   6.118   0.425   3.608
 6486TIP3    H219465   6.154   0.312   3.701
 6487TIP3   OH219466   1.559   5.084   2.455
 6487TIP3    H119467   1.479   5.035   2.469
 6487TIP3    H219468   1.569   5.088   2.360
 6488TIP3   OH219469   4.041   0.779   4.674
 6488TIP3    H119470   4.084   0.849   4.724
 6488TIP3    H219471   4.110   0.747   4.616
 6489TIP3   OH219472   3.036   0.737   4.369
 6489TIP3    H119473   3.009   0.823   4.400
 6489TIP3    H219474   3.083   0.755   4.287
 6490TIP3   OH219475   1.383   5.029   3.963
 6490TIP3    H119476   1.295   5.066   3.962
 6490TIP3    H219477   1.439   5.101   3.932
 6491TIP3   OH219478   5.084   5.449   4.966
 6491TIP3    H119479   5.021   5.469   5.035
 6491TIP3    H219480   5.169   5.474   5.003
 6492TIP3   OH219481   2.785   0.347   4.427
 6492TIP3    H119482   2.847   0.373   4.360
 6492TIP3    H219483   2.715   0.301   4.380
 6493TIP3   OH219484   5.197   2.623   0.745
 6493TIP3    H119485   5.283   2.625   0.787
 6493TIP3    H219486   5.206   2.681   0.669
 6494TIP3   OH219487   3.756   2.316   1.400
 6494TIP3    H119488   3.662   2.300   1.396
 6494TIP3    H219489   3.777   2.312   1.493
 6495TIP3   OH219490   5.383   1.713   0.893
 6495TIP3    H119491   5.392   1.776   0.821
 6495TIP3    H219492   5.293   1.680   0.885
 6496TIP3   OH219493   4.040   3.799   0.545
 6496TIP3    H119494   3.986   3.782   0.622
 6496TIP3    H219495   4.001   3.746   0.476
 6497TIP3   OH219496   4.449   5.128   3.617
 6497TIP3    H119497   4.362   5.118   3.579
 6497TIP3    H219498   4.459   5.053   3.675
 6498TIP3   OH219499   2.403   3.994   3.167
 6498TIP3    H119500   2.432   3.908   3.199
 6498TIP3    H219501   2.483   4.047   3.164
 6499TIP3   OH219502   4.546   4.206   4.884
 6499TIP3    H119503   4.461   4.164   4.899
 6499TIP3    H219504   4.583   4.218   4.971
 6500TIP3   OH219505   5.979   1.597   3.036
 6500TIP3    H119506   6.053   1.557   3.081
 6500TIP3    H219507   5.951   1.668   3.094
 6501TIP3   OH219508   0.927   3.787   0.737
 6501TIP3    H119509   0.988   3.763   0.668
 6501TIP3    H219510   0.981   3.796   0.816
 6502TIP3   OH219511   0.427   4.640   1.987
 6502TIP3    H119512   0.519   4.625   1.965
 6502TIP3    H219513   0.382   4.560   1.960
 6503TIP3   OH219514   5.986   5.617   1.563
 6503TIP3    H119515   6.065   5.622   1.617
 6503TIP3    H219516   5.934   5.693   1.591
 6504TIP3   OH219517   3.760   2.602   3.279
 6504TIP3    H119518   3.723   2.515   3.272
 6504TIP3    H219519   3.691   2.660   3.247
 6505TIP3   OH219520   4.144   1.004   4.790
 6505TIP3    H119521   4.089   1.080   4.771
 6505TIP3    H219522   4.231   1.028   4.757
 6506TIP3   OH219523   4.233   4.016   2.082
 6506TIP3    H119524   4.327   4.016   2.099
 6506TIP3    H219525   4.226   4.020   1.986
 6507TIP3   OH219526   2.209   5.713   1.170
 6507TIP3    H119527   2.225   5.807   1.180
 6507TIP3    H219528   2.248   5.674   1.248
 6508TIP3   OH219529   5.328   2.105   2.408
 6508TIP3    H119530   5.279   2.181   2.376
 6508TIP3    H219531   5.340   2.050   2.331
 6509TIP3   OH219532   5.977   0.954   1.169
 6509TIP3    H119533   5.997   1.022   1.104
 6509TIP3    H219534   6.011   0.873   1.131
 6510TIP3   OH219535   2.663   4.604   1.611
 6510TIP3    H119536   2.595   4.587   1.546
 6510TIP3    H219537   2.712   4.522   1.616
 6511TIP3   OH219538   5.440   2.849   4.148
 6511TIP3    H119539   5.533   2.855   4.123
 6511TIP3    H219540   5.416   2.758   4.129
 6512TIP3   OH219541   4.488   5.381   3.309
 6512TIP3    H119542   4.400   5.392   3.275
 6512TIP3    H219543   4.532   5.463   3.287
 6513TIP3   OH219544   0.097   4.090   0.898
 6513TIP3    H119545   0.160   4.160   0.915
 6513TIP3    H219546   0.027   4.105   0.962
 6514TIP3   OH219547   4.017   4.638   1.831
 6514TIP3    H119548   4.073   4.699   1.880
 6514TIP3    H219549   3.936   4.633   1.882
 6515TIP3   OH219550   2.082   3.712   0.681
 6515TIP3    H119551   2.101   3.673   0.596
 6515TIP3    H219552   1.999   3.673   0.707
 6516TIP3   OH219553   0.855   2.574   2.082
 6516TIP3    H119554   0.800   2.503   2.114
 6516TIP3    H219555   0.803   2.615   2.013
 6517TIP3   OH219556   2.003   5.627   1.816
 6517TIP3    H119557   2.090   5.651   1.850
 6517TIP3    H219558   2.019   5.605   1.724
 6518TIP3   OH219559   3.498   5.213   4.387
 6518TIP3    H119560   3.422   5.217   4.446
 6518TIP3    H219561   3.563   5.161   4.435
 6519TIP3   OH219562   4.942   2.924   1.574
 6519TIP3    H119563   5.019   2.979   1.560
 6519TIP3    H219564   4.969   2.837   1.546
 6520TIP3   OH219565   3.104   1.463   2.170
 6520TIP3    H119566   3.010   1.452   2.186
 6520TIP3    H219567   3.132   1.380   2.132
 6521TIP3   OH219568   1.647   2.567   0.455
 6521TIP3    H119569   1.577   2.601   0.511
 6521TIP3    H219570   1.704   2.642   0.438
 6522TIP3   OH219571   2.923   2.506   0.294
 6522TIP3    H119572   2.887   2.511   0.382
 6522TIP3    H219573   2.978   2.428   0.294
 6523TIP3   OH219574   3.891   2.810   1.573
 6523TIP3    H119575   3.898   2.716   1.555
 6523TIP3    H219576   3.878   2.850   1.487
 6524TIP3   OH219577   1.436   3.649   0.114
 6524TIP3    H119578   1.414   3.724   0.170
 6524TIP3    H219579   1.402   3.673   0.028
 6525TIP3   OH219580   5.560   3.120   1.299
 6525TIP3    H119581   5.592   3.083   1.381
 6525TIP3    H219582   5.589   3.058   1.232
 6526TIP3   OH219583   4.239   0.772   4.016
 6526TIP3    H119584   4.170   0.762   3.951
 6526TIP3    H219585   4.320   0.760   3.966
 6527TIP3   OH219586   2.455   2.893   1.388
 6527TIP3    H119587   2.489   2.969   1.342
 6527TIP3    H219588   2.393   2.853   1.326
 6528TIP3   OH219589   1.470   0.071   2.931
 6528TIP3    H119590   1.466   0.041   2.840
 6528TIP3    H219591   1.388   0.041   2.970
 6529TIP3   OH219592   0.143   4.656   4.393
 6529TIP3    H119593   0.160   4.750   4.389
 6529TIP3    H219594   0.111   4.641   4.482
 6530TIP3   OH219595   0.319   4.378   3.339
 6530TIP3    H119596   0.316   4.462   3.293
 6530TIP3    H219597   0.304   4.401   3.431
 6531TIP3   OH219598   6.227   1.083   3.511
 6531TIP3    H119599   6.190   1.014   3.565
 6531TIP3    H219600   6.159   1.103   3.447
 6532TIP3   OH219601   1.704   4.611   0.191
 6532TIP3    H119602   1.782   4.638   0.142
 6532TIP3    H219603   1.681   4.526   0.155
 6533TIP3   OH219604   5.919   5.491   0.714
 6533TIP3    H119605   5.888   5.535   0.793
 6533TIP3    H219606   5.962   5.412   0.747
 6534TIP3   OH219607   3.052   5.131   1.229
 6534TIP3    H119608   3.026   5.067   1.163
 6534TIP3    H219609   3.088   5.204   1.178
 6535TIP3   OH219610   5.393   0.780   1.989
 6535TIP3    H119611   5.370   0.873   1.990
 6535TIP3    H219612   5.351   0.745   1.911
 6536TIP3   OH219613   0.335   4.842   2.890
 6536TIP3    H119614   0.260   4.784   2.880
 6536TIP3    H219615   0.405   4.785   2.921
 6537TIP3   OH219616   1.147   2.087   3.089
 6537TIP3    H119617   1.096   2.168   3.099
 6537TIP3    H219618   1.186   2.093   3.002
 6538TIP3   OH219619   2.393   5.940   4.392
 6538TIP3    H119620   2.306   5.926   4.430
 6538TIP3    H219621   2.392   6.031   4.364
 6539TIP3   OH219622   0.519   4.629   2.538
 6539TIP3    H119623   0.590   4.580   2.496
 6539TIP3    H219624   0.491   4.692   2.472
 6540TIP3   OH219625   3.701   2.135   3.854
 6540TIP3    H119626   3.797   2.137   3.848
 6540TIP3    H219627   3.672   2.218   3.817
 6541TIP3   OH219628   4.093   4.089   2.300
 6541TIP3    H119629   4.122   4.059   2.213
 6541TIP3    H219630   4.043   4.169   2.283
 6542TIP3   OH219631   4.177   2.197   3.798
 6542TIP3    H119632   4.159   2.179   3.890
 6542TIP3    H219633   4.115   2.266   3.774
 6543TIP3   OH219634   0.837   5.100   4.169
 6543TIP3    H119635   0.776   5.106   4.096
 6543TIP3    H219636   0.805   5.027   4.221
 6544TIP3   OH219637   6.288   1.008   5.059
 6544TIP3    H119638   6.350   1.078   5.079
 6544TIP3    H219639   6.240   0.994   5.141
 6545TIP3   OH219640   4.628   2.097   0.883
 6545TIP3    H119641   4.712   2.097   0.838
 6545TIP3    H219642   4.651   2.104   0.976
 6546TIP3   OH219643   2.507   5.680   0.071
 6546TIP3    H119644   2.419   5.716   0.082
 6546TIP3    H219645   2.493   5.595   0.030
 6547TIP3   OH219646   2.170   3.815   2.265
 6547TIP3    H119647   2.242   3.762   2.231
 6547TIP3    H219648   2.100   3.752   2.281
 6548TIP3   OH219649   5.966   5.854   4.816
 6548TIP3    H119650   6.001   5.935   4.779
 6548TIP3    H219651   5.941   5.878   4.905
 6549TIP3   OH219652   1.838   2.122   0.844
 6549TIP3    H119653   1.851   2.180   0.769
 6549TIP3    H219654   1.752   2.146   0.878
 6550TIP3   OH219655   3.485   5.099   3.340
 6550TIP3    H119656   3.466   5.158   3.413
 6550TIP3    H219657   3.469   5.152   3.262
 6551TIP3   OH219658   4.019   4.238   5.048
 6551TIP3    H119659   3.978   4.219   4.963
 6551TIP3    H219660   3.969   4.313   5.082
 6552TIP3   OH219661   1.888   0.848   4.338
 6552TIP3    H119662   1.917   0.939   4.334
 6552TIP3    H219663   1.930   0.813   4.416
 6553TIP3   OH219664   3.303   4.079   1.591
 6553TIP3    H119665   3.347   3.994   1.593
 6553TIP3    H219666   3.369   4.141   1.621
 6554TIP3   OH219667   5.725   2.160   4.209
 6554TIP3    H119668   5.629   2.150   4.209
 6554TIP3    H219669   5.758   2.073   4.187
 6555TIP3   OH219670   0.586   5.303   1.496
 6555TIP3    H119671   0.529   5.379   1.508
 6555TIP3    H219672   0.539   5.247   1.435
 6556TIP3   OH219673   1.291   5.574   1.972
 6556TIP3    H119674   1.231   5.648   1.983
 6556TIP3    H219675   1.301   5.539   2.060
 6557TIP3   OH219676   1.021   2.867   2.624
 6557TIP3    H119677   0.931   2.875   2.592
 6557TIP3    H219678   1.063   2.809   2.561
 6558TIP3   OH219679   0.878   5.641   4.510
 6558TIP3    H119680   0.885   5.686   4.425
 6558TIP3    H219681   0.798   5.588   4.502
 6559TIP3   OH219682   5.264   1.421   0.185
 6559TIP3    H119683   5.213   1.462   0.116
 6559TIP3    H219684   5.355   1.435   0.160
 6560TIP3   OH219685   5.724   0.575   1.871
 6560TIP3    H119686   5.710   0.592   1.965
 6560TIP3    H219687   5.819   0.570   1.863
 6561TIP3   OH219688   4.606   5.127   3.963
 6561TIP3    H119689   4.673   5.151   4.028
 6561TIP3    H219690   4.657   5.100   3.886
 6562TIP3   OH219691   3.209   0.620   0.603
 6562TIP3    H119692   3.142   0.553   0.618
 6562TIP3    H219693   3.162   0.691   0.559
 6563TIP3   OH219694   2.037   5.766   5.113
 6563TIP3    H119695   2.077   5.843   5.073
 6563TIP3    H219696   1.973   5.801   5.174
 6564TIP3   OH219697   5.798   1.241   0.000
 6564TIP3    H119698   5.719   1.233   0.053
 6564TIP3    H219699   5.841   1.155   0.008
 6565TIP3   OH219700   5.182   4.029   4.671
 6565TIP3    H119701   5.098   4.029   4.716
 6565TIP3    H219702   5.159   4.040   4.578
 6566TIP3   OH219703   4.986   1.644   0.584
 6566TIP3    H119704   5.063   1.630   0.530
 6566TIP3    H219705   4.989   1.737   0.607
 6567TIP3   OH219706   6.257   2.814   5.117
 6567TIP3    H119707   6.167   2.791   5.141
 6567TIP3    H219708   6.249   2.848   5.027
 6568TIP3   OH219709   0.114   5.815   0.365
 6568TIP3    H119710   0.056   5.868   0.310
 6568TIP3    H219711   0.085   5.834   0.455
 6569TIP3   OH219712   3.386   0.639   0.359
 6569TIP3    H119713   3.342   0.657   0.441
 6569TIP3    H219714   3.388   0.543   0.353
 6570TIP3   OH219715   6.258   1.076   4.348
 6570TIP3    H119716   6.305   0.993   4.345
 6570TIP3    H219717   6.194   1.064   4.418
 6571TIP3   OH219718   3.220   0.340   4.931
 6571TIP3    H119719   3.236   0.416   4.987
 6571TIP3    H219720   3.148   0.367   4.874
 6572TIP3   OH219721   1.476   2.212   3.183
 6572TIP3    H119722   1.439   2.144   3.239
 6572TIP3    H219723   1.565   2.182   3.166
 6573TIP3   OH219724   0.519   2.370   0.052
 6573TIP3    H119725   0.479   2.453   0.078
 6573TIP3    H219726   0.613   2.386   0.059
 6574TIP3   OH219727   4.069   3.679   2.147
 6574TIP3    H119728   4.094   3.752   2.092
 6574TIP3    H219729   4.076   3.602   2.091
 6575TIP3   OH219730   2.998   2.963   2.844
 6575TIP3    H119731   3.082   2.921   2.864
 6575TIP3    H219732   2.997   2.970   2.749
 6576TIP3   OH219733   5.629   5.307   0.434
 6576TIP3    H119734   5.661   5.377   0.377
 6576TIP3    H219735   5.634   5.343   0.522
 6577TIP3   OH219736   1.595   4.583   1.408
 6577TIP3    H119737   1.556   4.497   1.392
 6577TIP3    H219738   1.609   4.620   1.321
 6578TIP3   OH219739   3.115   1.809   2.429
 6578TIP3    H119740   3.152   1.726   2.460
 6578TIP3    H219741   3.021   1.799   2.444
 6579TIP3   OH219742   2.517   3.959   0.478
 6579TIP3    H119743   2.497   3.885   0.535
 6579TIP3    H219744   2.580   4.011   0.527
 6580TIP3   OH219745   1.930   2.305   4.187
 6580TIP3    H119746   1.967   2.301   4.276
 6580TIP3    H219747   1.891   2.219   4.174
 6581TIP3   OH219748   5.797   4.685   2.019
 6581TIP3    H119749   5.779   4.627   2.093
 6581TIP3    H219750   5.856   4.751   2.054
 6582TIP3   OH219751   4.136   1.483   4.697
 6582TIP3    H119752   4.175   1.475   4.610
 6582TIP3    H219753   4.210   1.489   4.757
 6583TIP3   OH219754   0.141   3.352   2.987
 6583TIP3    H119755   0.157   3.312   3.072
 6583TIP3    H219756   0.101   3.437   3.008
 6584TIP3   OH219757   0.614   4.506   0.983
 6584TIP3    H119758   0.620   4.424   1.031
 6584TIP3    H219759   0.597   4.573   1.049
 6585TIP3   OH219760   3.793   5.692   1.353
 6585TIP3    H119761   3.742   5.773   1.358
 6585TIP3    H219762   3.730   5.622   1.370
 6586TIP3   OH219763   5.025   5.892   2.938
 6586TIP3    H119764   5.053   5.976   2.903
 6586TIP3    H219765   4.965   5.914   3.009
 6587TIP3   OH219766   2.246   5.464   0.257
 6587TIP3    H119767   2.233   5.373   0.285
 6587TIP3    H219768   2.334   5.486   0.287
 6588TIP3   OH219769   6.079   1.415   1.355
 6588TIP3    H119770   6.143   1.406   1.426
 6588TIP3    H219771   6.098   1.343   1.296
 6589TIP3   OH219772   4.114   3.314   2.255
 6589TIP3    H119773   4.111   3.369   2.334
 6589TIP3    H219774   4.060   3.238   2.277
 6590TIP3   OH219775   2.233   0.755   0.077
 6590TIP3    H119776   2.159   0.802   0.114
 6590TIP3    H219777   2.307   0.777   0.134
 6591TIP3   OH219778   4.287   4.155   3.487
 6591TIP3    H119779   4.309   4.200   3.406
 6591TIP3    H219780   4.334   4.203   3.555
 6592TIP3   OH219781   2.969   2.415   4.025
 6592TIP3    H119782   2.995   2.370   4.106
 6592TIP3    H219783   3.027   2.491   4.020
 6593TIP3   OH219784   1.227   4.431   2.553
 6593TIP3    H119785   1.139   4.393   2.542
 6593TIP3    H219786   1.216   4.523   2.530
 6594TIP3   OH219787   1.260   1.526   0.157
 6594TIP3    H119788   1.192   1.535   0.224
 6594TIP3    H219789   1.312   1.606   0.164
 6595TIP3   OH219790   3.496   2.049   1.527
 6595TIP3    H119791   3.428   2.029   1.462
 6595TIP3    H219792   3.577   2.016   1.487
 6596TIP3   OH219793   4.545   3.556   4.832
 6596TIP3    H119794   4.538   3.476   4.883
 6596TIP3    H219795   4.454   3.582   4.815
 6597TIP3   OH219796   0.584   4.727   3.020
 6597TIP3    H119797   0.609   4.713   2.929
 6597TIP3    H219798   0.644   4.796   3.051
 6598TIP3   OH219799   5.070   5.073   0.587
 6598TIP3    H119800   5.011   5.064   0.512
 6598TIP3    H219801   5.135   5.004   0.573
 6599TIP3   OH219802   2.399   1.028   1.911
 6599TIP3    H119803   2.376   0.992   1.826
 6599TIP3    H219804   2.396   1.123   1.899
 6600TIP3   OH219805   2.278   2.141   2.288
 6600TIP3    H119806   2.195   2.165   2.248
 6600TIP3    H219807   2.341   2.141   2.216
 6601TIP3   OH219808   5.217   3.174   4.551
 6601TIP3    H119809   5.216   3.118   4.628
 6601TIP3    H219810   5.126   3.182   4.525
 6602TIP3   OH219811   3.927   0.391   1.343
 6602TIP3    H119812   3.966   0.440   1.416
 6602TIP3    H219813   3.966   0.431   1.265
 6603TIP3   OH219814   5.203   5.859   0.849
 6603TIP3    H119815   5.177   5.777   0.891
 6603TIP3    H219816   5.153   5.926   0.895
 6604TIP3   OH219817   5.970   4.346   0.094
 6604TIP3    H119818   6.019   4.398   0.031
 6604TIP3    H219819   6.016   4.262   0.095
 6605TIP3   OH219820   3.376   4.671   3.738
 6605TIP3    H119821   3.324   4.624   3.673
 6605TIP3    H219822   3.317   4.682   3.813
 6606TIP3   OH219823   3.107   4.411   5.100
 6606TIP3    H119824   3.152   4.336   5.140
 6606TIP3    H219825   3.076   4.463   5.175
 6607TIP3   OH219826   4.855   5.860   0.983
 6607TIP3    H119827   4.897   5.847   1.068
 6607TIP3    H219828   4.816   5.775   0.962
 6608TIP3   OH219829   4.802   0.424   1.795
 6608TIP3    H119830   4.815   0.479   1.873
 6608TIP3    H219831   4.710   0.438   1.772
 6609TIP3   OH219832   1.391   3.816   4.492
 6609TIP3    H119833   1.405   3.903   4.529
 6609TIP3    H219834   1.428   3.821   4.404
 6610TIP3   OH219835   5.819   2.182   2.523
 6610TIP3    H119836   5.780   2.120   2.584
 6610TIP3    H219837   5.846   2.129   2.448
 6611TIP3   OH219838   1.883   2.947   2.237
 6611TIP3    H119839   1.898   3.010   2.307
 6611TIP3    H219840   1.788   2.949   2.223
 6612TIP3   OH219841   5.527   3.665   4.393
 6612TIP3    H119842   5.468   3.721   4.443
 6612TIP3    H219843   5.519   3.579   4.434
 6613TIP3   OH219844   0.207   3.468   1.998
 6613TIP3    H119845   0.112   3.461   1.998
 6613TIP3    H219846   0.229   3.513   2.079
 6614TIP3   OH219847   2.226   2.321   1.949
 6614TIP3    H119848   2.184   2.340   1.865
 6614TIP3    H219849   2.155   2.287   2.003
 6615TIP3   OH219850   0.319   5.736   1.055
 6615TIP3    H119851   0.363   5.771   1.132
 6615TIP3    H219852   0.375   5.664   1.026
 6616TIP3   OH219853   2.470   3.896   4.882
 6616TIP3    H119854   2.469   3.801   4.873
 6616TIP3    H219855   2.379   3.919   4.903
 6617TIP3   OH219856   2.121   0.940   2.501
 6617TIP3    H119857   2.060   0.883   2.549
 6617TIP3    H219858   2.206   0.925   2.543
 6618TIP3   OH219859   2.394   1.528   3.150
 6618TIP3    H119860   2.368   1.517   3.059
 6618TIP3    H219861   2.320   1.495   3.201
 6619TIP3   OH219862   1.396   4.738   2.205
 6619TIP3    H119863   1.371   4.736   2.297
 6619TIP3    H219864   1.364   4.822   2.173
 6620TIP3   OH219865   1.333   4.501   2.796
 6620TIP3    H119866   1.298   4.464   2.714
 6620TIP3    H219867   1.269   4.475   2.862
 6621TIP3   OH219868   5.116   4.294   2.516
 6621TIP3    H119869   5.143   4.283   2.607
 6621TIP3    H219870   5.052   4.364   2.518
 6622TIP3   OH219871   1.720   3.279   1.972
 6622TIP3    H119872   1.807   3.254   2.003
 6622TIP3    H219873   1.735   3.305   1.881
 6623TIP3   OH219874   2.124   0.162   4.171
 6623TIP3    H119875   2.155   0.129   4.256
 6623TIP3    H219876   2.061   0.096   4.142
 6624TIP3   OH219877   3.872   5.572   4.652
 6624TIP3    H119878   3.797   5.516   4.636
 6624TIP3    H219879   3.835   5.653   4.686
 6625TIP3   OH219880   3.156   1.034   3.105
 6625TIP3    H119881   3.153   1.061   3.013
 6625TIP3    H219882   3.078   1.074   3.144
 6626TIP3   OH219883   1.607   0.011   0.304
 6626TIP3    H119884   1.680   0.049   0.354
 6626TIP3    H219885   1.544   0.083   0.295
 6627TIP3   OH219886   1.212   0.870   0.016
 6627TIP3    H119887   1.243   0.898   0.102
 6627TIP3    H219888   1.170   0.786   0.032
 6628TIP3   OH219889   2.961   2.963   1.975
 6628TIP3    H119890   2.867   2.976   1.970
 6628TIP3    H219891   2.987   3.006   2.057
 6629TIP3   OH219892   0.140   5.452   4.787
 6629TIP3    H119893   0.144   5.357   4.789
 6629TIP3    H219894   0.210   5.478   4.727
 6630TIP3   OH219895   3.370   4.859   3.248
 6630TIP3    H119896   3.309   4.872   3.175
 6630TIP3    H219897   3.377   4.945   3.289
 6631TIP3   OH219898   5.206   0.809   4.376
 6631TIP3    H119899   5.214   0.731   4.431
 6631TIP3    H219900   5.145   0.784   4.307
 6632TIP3   OH219901   2.703   5.333   1.431
 6632TIP3    H119902   2.669   5.353   1.518
 6632TIP3    H219903   2.792   5.302   1.446
 6633TIP3   OH219904   6.264   4.672   1.144
 6633TIP3    H119905   6.251   4.649   1.235
 6633TIP3    H219906   6.178   4.700   1.113
 6634TIP3   OH219907   3.849   4.071   4.125
 6634TIP3    H119908   3.926   4.073   4.069
 6634TIP3    H219909   3.806   3.988   4.105
 6635TIP3   OH219910   0.417   0.644   3.636
 6635TIP3    H119911   0.372   0.684   3.562
 6635TIP3    H219912   0.363   0.569   3.660
 6636TIP3   OH219913   3.205   2.041   3.413
 6636TIP3    H119914   3.131   2.093   3.384
 6636TIP3    H219915   3.165   1.964   3.453
 6637TIP3   OH219916   3.274   3.367   3.282
 6637TIP3    H119917   3.316   3.434   3.336
 6637TIP3    H219918   3.180   3.379   3.299
 6638TIP3   OH219919   0.969   2.115   0.293
 6638TIP3    H119920   0.909   2.093   0.365
 6638TIP3    H219921   1.055   2.087   0.324
 6639TIP3   OH219922   1.055   0.636   0.093
 6639TIP3    H119923   1.025   0.596   0.175
 6639TIP3    H219924   1.054   0.565   0.030
 6640TIP3   OH219925   4.328   3.181   1.699
 6640TIP3    H119926   4.366   3.096   1.677
 6640TIP3    H219927   4.339   3.189   1.793
 6641TIP3   OH219928   5.666   3.299   2.211
 6641TIP3    H119929   5.582   3.257   2.223
 6641TIP3    H219930   5.724   3.230   2.178
 6642TIP3   OH219931   0.826   5.739   3.365
 6642TIP3    H119932   0.748   5.704   3.407
 6642TIP3    H219933   0.893   5.672   3.382
 6643TIP3   OH219934   1.904   1.750   2.607
 6643TIP3    H119935   1.938   1.835   2.636
 6643TIP3    H219936   1.856   1.770   2.527
 6644TIP3   OH219937   3.474   5.951   4.540
 6644TIP3    H119938   3.462   5.859   4.516
 6644TIP3    H219939   3.438   5.958   4.628
 6645TIP3   OH219940   5.593   3.475   3.423
 6645TIP3    H119941   5.623   3.552   3.375
 6645TIP3    H219942   5.663   3.457   3.486
   6.34378   5.98097   5.17968   0.00000   0.00000  -2.11460   0.00000  -2.11460  -2.99049
