Title
19942
    1ASP      N    1   3.720   3.010   4.668  0.1894  0.5676  0.1851
    1ASP    HT1    2   3.695   2.924   4.613 -0.2443  0.1666  0.9883
    1ASP    HT2    3   3.654   3.016   4.748 -0.5174  3.9504 -0.5151
    1ASP    HT3    4   3.814   3.004   4.712 -0.2290  2.3909  1.4373
    1ASP     CA    5   3.709   3.136   4.589  0.6603 -0.2613  0.2474
    1ASP     HA    6   3.778   3.203   4.639 -1.3231 -0.2825  3.2727
    1ASP     CB    7   3.757   3.096   4.447 -0.7115  0.2361 -0.4378
    1ASP    HB1    8   3.694   3.020   4.395 -0.5298  0.3092 -0.7675
    1ASP    HB2    9   3.860   3.055   4.456 -1.0578 -1.0733 -1.8785
    1ASP     CG   10   3.773   3.217   4.359 -0.4965 -0.1709 -0.4032
    1ASP    OD1   11   3.799   3.333   4.416 -0.4528  0.6464 -0.6010
    1ASP    OD2   12   3.787   3.201   4.236 -0.1434 -0.5190 -0.1452
    1ASP      C   13   3.564   3.201   4.575  0.1731  0.4299  0.2650
    1ASP      O   14   3.464   3.130   4.581 -0.3209 -0.5784  0.5976
    2ALA      N   15   3.548   3.332   4.544 -0.3450  0.0531  0.1453
    2ALA     HN   16   3.634   3.377   4.520  0.3984 -0.6338  1.4464
    2ALA     CA   17   3.423   3.403   4.532  0.3486 -0.4426  0.1699
    2ALA     HA   18   3.350   3.362   4.601 -1.9355 -0.1986 -1.9482
    2ALA     CB   19   3.458   3.548   4.573  1.0505 -0.5368  0.1355
    2ALA    HB1   20   3.489   3.560   4.679  1.8885  0.3368 -0.1915
    2ALA    HB2   21   3.365   3.609   4.569  1.1320 -0.3384  1.0573
    2ALA    HB3   22   3.528   3.587   4.496  2.5936 -2.0597  0.7011
    2ALA      C   23   3.372   3.394   4.394  0.6394  0.2284  0.0995
    2ALA      O   24   3.433   3.346   4.301  0.1731  0.2040  0.1651
    3ASP      N   25   3.247   3.440   4.374 -0.2364 -0.9981 -0.5163
    3ASP     HN   26   3.192   3.480   4.447  0.5809 -0.5345 -0.1424
    3ASP     CA   27   3.177   3.419   4.244 -0.0100  0.4366 -0.0902
    3ASP     HA   28   3.198   3.319   4.211 -0.9911 -0.9953  3.2388
    3ASP     CB   29   3.032   3.445   4.273 -1.2400  0.3690 -0.1105
    3ASP    HB1   30   2.975   3.459   4.178 -1.0994  0.2371 -0.2137
    3ASP    HB2   31   3.010   3.534   4.336 -1.8556  0.2784 -0.1837
    3ASP     CG   32   2.979   3.329   4.347  0.0475 -0.7834 -0.0929
    3ASP    OD1   33   3.029   3.212   4.355 -0.4278  0.3810 -0.2484
    3ASP    OD2   34   2.860   3.350   4.386 -0.4265  0.1392 -0.2374
    3ASP      C   35   3.227   3.510   4.133 -0.4759 -0.0804  0.5108
    3ASP      O   36   3.263   3.621   4.167  0.3281 -0.2712 -0.0111
    4GLY      N   37   3.257   3.460   4.009  0.1377 -0.1213 -0.1074
    4GLY     HN   38   3.233   3.370   3.973  2.5321  0.3619 -3.4628
    4GLY     CA   39   3.345   3.515   3.913  0.2800  0.3213  0.0677
    4GLY    HA1   40   3.381   3.428   3.859  0.7996 -0.4962  1.6758
    4GLY    HA2   41   3.420   3.568   3.969 -0.9776  0.4481  1.6985
    4GLY      C   42   3.283   3.611   3.818  0.3762 -0.3316 -0.2783
    4GLY      O   43   3.181   3.670   3.839 -0.3940  0.5798  0.5222
    5PRO      N   44   3.355   3.645   3.706  0.0053 -0.1647  0.2458
    5PRO     CD   45   3.490   3.602   3.676  0.1126  0.0221  0.0432
    5PRO    HD1   46   3.492   3.493   3.657 -1.2044 -0.4812  2.3634
    5PRO    HD2   47   3.554   3.617   3.766 -0.1387  1.0765  0.0672
    5PRO     CA   48   3.297   3.730   3.597 -0.7651  0.1695  0.9239
    5PRO     HA   49   3.287   3.828   3.641  1.1847  1.4703 -1.3263
    5PRO     CB   50   3.407   3.721   3.485 -0.4116 -0.2017  0.1204
    5PRO    HB1   51   3.425   3.817   3.432 -1.2328 -0.0804  0.0442
    5PRO    HB2   52   3.389   3.642   3.409 -2.9252 -0.1900  0.6067
    5PRO     CG   53   3.538   3.689   3.564  0.1898 -0.5360  0.6179
    5PRO    HG1   54   3.613   3.638   3.499 -0.5550  0.1000 -0.7800
    5PRO    HG2   55   3.596   3.777   3.599 -1.1254  0.1637  1.0913
    5PRO      C   56   3.161   3.708   3.550  0.0115 -0.3561 -0.1286
    5PRO      O   57   3.122   3.597   3.514  0.0080  0.1964 -0.0055
    6GLY      N   58   3.074   3.811   3.542  0.9018  0.6420  0.1828
    6GLY     HN   59   3.117   3.898   3.566 -0.1157  1.1093  0.3925
    6GLY     CA   60   2.928   3.806   3.516  0.0657  0.3910  0.2094
    6GLY    HA1   61   2.905   3.810   3.411 -0.0824 -2.0362  0.0978
    6GLY    HA2   62   2.882   3.882   3.578 -1.4495 -1.5585  1.6130
    6GLY      C   63   2.848   3.688   3.568  0.1643  0.0818 -0.7058
    6GLY      O   64   2.876   3.639   3.677 -0.0608 -0.2550 -0.0061
    7ASP      N   65   2.750   3.652   3.489  0.0942  0.0305  0.2285
    7ASP     HN   66   2.751   3.690   3.397  1.0480  0.2441  0.3148
    7ASP     CA   67   2.645   3.553   3.499  0.1682  0.3750  0.2220
    7ASP     HA   68   2.564   3.597   3.554  0.0997  0.3640  0.1309
    7ASP     CB   69   2.590   3.512   3.357 -0.5675 -0.0229  0.1338
    7ASP    HB1   70   2.520   3.425   3.355  0.7695 -1.2939 -4.1095
    7ASP    HB2   71   2.672   3.467   3.296  0.0919 -2.2060  2.4543
    7ASP     CG   72   2.523   3.627   3.289 -0.0665 -0.5747  0.2992
    7ASP    OD1   73   2.409   3.623   3.235  0.2678  0.2645  0.3790
    7ASP    OD2   74   2.579   3.740   3.287 -0.0486 -0.2791 -0.0800
    7ASP      C   75   2.686   3.426   3.573  0.6521  0.0281 -0.0565
    7ASP      O   76   2.801   3.392   3.560 -0.4920  0.1779 -0.0413
    8PRO      N   77   2.614   3.346   3.645  0.0077 -0.0348  0.8226
    8PRO     CD   78   2.469   3.376   3.687 -1.2650  0.6432  0.4417
    8PRO    HD1   79   2.405   3.345   3.602 -1.0191  1.3478 -0.0123
    8PRO    HD2   80   2.443   3.479   3.718 -0.1332  0.6439  1.4588
    8PRO     CA   81   2.649   3.207   3.682  0.2319 -0.3406  0.3770
    8PRO     HA   82   2.720   3.221   3.762 -0.1853 -2.2114  1.1165
    8PRO     CB   83   2.517   3.152   3.739 -0.3302  0.2483 -0.2995
    8PRO    HB1   84   2.541   3.077   3.818  2.0099  2.0562  0.8530
    8PRO    HB2   85   2.456   3.099   3.664 -2.2506  0.0831  1.3020
    8PRO     CG   86   2.437   3.272   3.792  0.2093 -0.1426  0.4303
    8PRO    HG1   87   2.329   3.246   3.799  0.2426 -0.1741  0.8285
    8PRO    HG2   88   2.479   3.288   3.893  0.2323 -2.3396  0.8283
    8PRO      C   89   2.713   3.119   3.573 -0.2901  0.1838 -0.3351
    8PRO      O   90   2.675   3.116   3.454  0.0249 -0.0544 -0.1485
    9ASP      N   91   2.803   3.033   3.620  0.0044 -0.0358  0.1298
    9ASP     HN   92   2.824   3.025   3.717 -0.4469 -2.4314  0.1032
    9ASP     CA   93   2.881   2.946   3.545  0.2871  0.2563 -0.1254
    9ASP     HA   94   2.911   2.997   3.455  0.2506 -0.7009 -0.6991
    9ASP     CB   95   3.007   2.916   3.628 -0.1237  0.4604  0.1317
    9ASP    HB1   96   3.066   2.841   3.572 -1.4388 -0.0498 -0.6030
    9ASP    HB2   97   2.982   2.877   3.728  2.1348 -1.5572 -0.0148
    9ASP     CG   98   3.097   3.032   3.660  0.1780 -0.4986 -0.5428
    9ASP    OD1   99   3.187   3.015   3.748 -0.0459 -0.2558  0.2624
    9ASP    OD2  100   3.073   3.145   3.611 -0.3261 -0.1291 -0.1748
    9ASP      C  101   2.819   2.821   3.492  0.1243  0.5482 -0.1783
    9ASP      O  102   2.749   2.750   3.566  0.3908 -0.2091  0.2446
   10ALA      N  103   2.843   2.781   3.366 -0.3244 -0.2140  0.2436
   10ALA     HN  104   2.894   2.834   3.298 -1.0305 -0.0281 -0.1487
   10ALA     CA  105   2.775   2.669   3.302  0.2748  0.0699  0.5511
   10ALA     HA  106   2.668   2.684   3.306 -0.0688 -1.9030 -0.1656
   10ALA     CB  107   2.811   2.665   3.155  0.5125 -0.0042 -0.1324
   10ALA    HB1  108   2.794   2.564   3.112 -2.4670 -0.2097  1.3312
   10ALA    HB2  109   2.916   2.695   3.132  0.1746  1.7171  0.4829
   10ALA    HB3  110   2.751   2.737   3.097  0.9897  0.5898  0.0995
   10ALA      C  111   2.792   2.534   3.376  0.5425  0.4170 -0.4546
   10ALA      O  112   2.878   2.502   3.453 -0.6199  0.1581  0.1315
   11GLY      N  113   2.686   2.449   3.360 -0.3958  0.5344  0.3153
   11GLY     HN  114   2.603   2.469   3.308 -1.6886 -0.1827  2.0212
   11GLY     CA  115   2.691   2.320   3.432  0.0310  0.0638  0.0737
   11GLY    HA1  116   2.775   2.260   3.400  0.1723  0.1377  0.3004
   11GLY    HA2  117   2.599   2.269   3.407  0.2526 -0.5444  0.4652
   11GLY      C  118   2.685   2.321   3.580 -0.1741 -0.0518 -0.2439
   11GLY    OT1  119   2.582   2.344   3.646  0.9438 -0.2599  0.0279
   11GLY    OT2  120   2.790   2.283   3.637  0.1121 -0.1814 -0.5067
   12LIT    LIT  121   3.525   5.462   1.537 -0.2019 -0.0680  0.5067
   13LIT    LIT  122   4.649   5.641   3.410 -0.3398  0.5661  0.2885
   14LIT    LIT  123   0.243   2.239   1.703  0.1603 -0.3431  0.1076
   15LIT    LIT  124   2.791   3.815   1.962 -0.3733 -0.2976 -0.0333
   16LIT    LIT  125   1.136   0.474   3.195  0.3307  0.1336 -0.6583
   17LIT    LIT  126   3.167   0.868   4.849  0.3952 -0.5088 -0.3602
   18LIT    LIT  127   1.453   1.629   3.815 -0.3153 -0.5373  0.1302
   19LIT    LIT  128   2.716   3.942   4.283 -0.7720  0.8708  0.8454
   20LIT    LIT  129   0.737   3.354   1.119 -0.7539 -0.8237 -1.3018
   21LIT    LIT  130   0.536   0.410   5.126 -0.4174  0.3190  1.0799
   22LIT    LIT  131   4.061   5.298   5.182  1.1616 -0.4983  0.4015
   23LIT    LIT  132   2.447   3.796   3.162  0.0972  0.4452  0.5658
   24LIT    LIT  133   3.410   3.195   2.937  0.2239 -0.8173  0.3529
   25LIT    LIT  134   1.616   5.632   4.099 -0.6917 -1.1479  0.4721
   26LIT    LIT  135   5.263   3.961   0.802  0.0454  0.3599  0.6103
   27LIT    LIT  136   3.529   1.753   4.102 -0.4277 -0.3751  0.9101
   28LIT    LIT  137   0.835   5.050   4.620 -0.2457 -0.4505  0.7025
   29LIT    LIT  138   1.293   1.575   2.762  0.1311  0.5174 -0.4497
   30LIT    LIT  139   5.552   0.748   0.881  0.7540 -0.0485  0.5690
   31LIT    LIT  140   5.050   1.829   4.005 -0.1320  0.0846  0.0068
   32LIT    LIT  141   6.264   1.994   3.580 -0.1114  0.2408  0.1740
   33LIT    LIT  142   2.648   4.536   4.703 -1.4697 -0.6349 -0.3627
   34CLA    CLA  143   1.604   2.575   0.455 -0.1858  0.0245 -0.2850
   35CLA    CLA  144   3.016   3.849   0.057  0.0132  0.1373  0.3502
   36CLA    CLA  145   3.423   1.040   2.905 -0.6474  0.4035 -0.1836
   37CLA    CLA  146   3.844   4.053   0.044  0.0292 -0.0833  0.2666
   38CLA    CLA  147   4.433   5.355   2.193 -0.3710  0.0667 -0.3751
   39CLA    CLA  148   2.656   3.703   4.914 -0.3207  0.1996 -0.0959
   40CLA    CLA  149   0.651   2.600   2.746 -0.1037 -0.0910  0.2041
   41CLA    CLA  150   4.557   1.408   4.736  0.4885  0.2322  0.0555
   42CLA    CLA  151   2.484   5.894   1.565  0.1699 -0.1675 -0.1302
   43CLA    CLA  152   5.349   0.371   0.900  0.0215 -0.3140 -0.2999
   44CLA    CLA  153   3.653   5.178   0.205 -0.2538  0.2270 -0.0030
   45CLA    CLA  154   4.943   3.123   2.244  0.1103 -0.0086 -0.0492
   46CLA    CLA  155   4.080   4.447   2.208  0.2412  0.2516 -0.0315
   47CLA    CLA  156   1.520   1.169   2.905 -0.0375 -0.0061 -0.3831
   48CLA    CLA  157   5.751   2.003   3.915 -0.1211  0.0189 -0.4528
   49CLA    CLA  158   4.809   3.767   0.821 -0.2598  0.1026 -0.4650
   50CLA    CLA  159   6.130   4.130   0.694  0.0807  0.2333  0.2791
   51CLA    CLA  160   2.636   0.724   3.739 -0.4401 -0.1862  0.0919
   52TIP3   OH2  161   2.596   4.595   0.274 -0.0771 -0.1755 -0.7830
   52TIP3    H1  162   2.510   4.554   0.281  0.3791 -0.9365  0.5835
   52TIP3    H2  163   2.580   4.687   0.294 -0.1981 -0.7724  2.4171
   53TIP3   OH2  164   5.981   2.642   3.703  0.4021 -0.1577  0.0097
   53TIP3    H1  165   5.928   2.661   3.625  0.6877 -2.1394 -0.7137
   53TIP3    H2  166   5.919   2.605   3.766  0.0394  2.0530  1.0367
   54TIP3   OH2  167   3.161   3.210   3.923 -0.1571 -0.1529  0.2081
   54TIP3    H1  168   3.103   3.261   3.866  0.7535  1.1828  0.4484
   54TIP3    H2  169   3.173   3.127   3.877 -1.4090 -0.0555 -0.3425
   55TIP3   OH2  170   0.160   2.565   3.911 -0.1750  0.9150  0.4081
   55TIP3    H1  171   0.104   2.590   3.985 -1.5423 -2.1121  0.5545
   55TIP3    H2  172   0.234   2.520   3.952  0.6474  1.8851  0.0265
   56TIP3   OH2  173   1.777   1.132   4.396 -1.0695  0.2261 -0.3100
   56TIP3    H1  174   1.738   1.057   4.440  2.1282 -1.7454 -0.4921
   56TIP3    H2  175   1.746   1.126   4.305 -0.2650 -1.4293 -0.5123
   57TIP3   OH2  176   3.678   2.521   0.325  0.1000 -0.2241  0.0740
   57TIP3    H1  177   3.706   2.610   0.307  1.6058 -1.0505 -2.1734
   57TIP3    H2  178   3.584   2.522   0.309 -0.0928  1.1592  1.1318
   58TIP3   OH2  179   5.592   4.346   2.832 -0.0956  0.0873 -0.2914
   58TIP3    H1  180   5.566   4.256   2.851  0.8636  0.1102  1.3178
   58TIP3    H2  181   5.684   4.350   2.856 -0.1711  1.5365 -0.1430
   59TIP3   OH2  182   4.725   3.937   1.732 -0.2558  0.0031  0.6927
   59TIP3    H1  183   4.651   3.953   1.673 -0.4984  0.5835  1.1514
   59TIP3    H2  184   4.700   3.978   1.814  0.1992 -0.5685  1.1263
   60TIP3   OH2  185   0.536   1.719   0.040  0.0990 -0.0255 -0.2712
   60TIP3    H1  186   0.611   1.693   0.093  0.3191  2.3712  0.7294
   60TIP3    H2  187   0.469   1.744   0.104 -0.5468  0.5177 -1.1425
   61TIP3   OH2  188   5.817   2.913   3.540 -0.5713 -0.0018 -0.1132
   61TIP3    H1  189   5.868   2.938   3.617 -0.2084 -0.3696 -0.2285
   61TIP3    H2  190   5.735   2.961   3.549  0.0687  1.1886 -0.2826
   62TIP3   OH2  191   2.532   3.160   1.812 -0.1519  0.5804  0.4937
   62TIP3    H1  192   2.548   3.122   1.899 -0.0974 -0.5436 -0.0003
   62TIP3    H2  193   2.619   3.170   1.774 -0.3098 -2.2186 -0.7906
   63TIP3   OH2  194   0.523   1.371   1.358 -0.2476  0.0714  0.0209
   63TIP3    H1  195   0.523   1.309   1.285 -0.7607  0.5957 -0.4272
   63TIP3    H2  196   0.560   1.451   1.321 -2.0052  0.8526 -0.1105
   64TIP3   OH2  197   0.679   1.992   2.359 -0.4412 -0.4064 -0.3252
   64TIP3    H1  198   0.723   1.983   2.275  1.6920 -3.0026  0.9344
   64TIP3    H2  199   0.625   1.914   2.367 -0.3548 -0.3730  0.8279
   65TIP3   OH2  200   0.957   2.369   4.929 -0.4392  0.0658  0.6208
   65TIP3    H1  201   0.883   2.338   4.980  0.2138 -1.8146  0.4930
   65TIP3    H2  202   1.034   2.330   4.971  0.1328 -1.5618 -1.6884
   66TIP3   OH2  203   4.327   2.808   3.711 -0.0564  0.0471 -0.0661
   66TIP3    H1  204   4.359   2.883   3.761 -1.7216  0.7037  0.0886
   66TIP3    H2  205   4.309   2.742   3.778  1.5807 -0.6014 -0.2182
   67TIP3   OH2  206   2.396   4.113   3.754  0.5335  0.1962 -0.6819
   67TIP3    H1  207   2.452   4.037   3.741 -0.0190 -0.1678 -0.9946
   67TIP3    H2  208   2.449   4.174   3.805  0.5207 -0.9595  0.7868
   68TIP3   OH2  209   2.179   2.665   2.664 -0.2578  0.2349 -0.0279
   68TIP3    H1  210   2.180   2.705   2.751  0.1546  0.4838 -0.1429
   68TIP3    H2  211   2.225   2.728   2.609  1.3210 -0.8616 -0.0093
   69TIP3   OH2  212   1.140   0.684   4.936  0.2496  0.6400 -0.2500
   69TIP3    H1  213   1.048   0.657   4.938  0.9162 -1.8735  0.0941
   69TIP3    H2  214   1.189   0.602   4.937  2.5162  1.9013 -1.1195
   70TIP3   OH2  215   5.390   5.743   4.859 -0.3468 -0.0212  0.1517
   70TIP3    H1  216   5.405   5.833   4.886 -0.2597 -1.0885  4.3505
   70TIP3    H2  217   5.305   5.744   4.815 -1.0656  1.9128  1.4831
   71TIP3   OH2  218   2.276   2.776   2.103 -0.2211  0.0032  0.3876
   71TIP3    H1  219   2.198   2.787   2.158  0.9663 -0.9250  2.3879
   71TIP3    H2  220   2.349   2.802   2.159  1.1268 -1.6014 -0.5295
   72TIP3   OH2  221   5.008   5.845   2.173  0.3315 -0.4586  0.7258
   72TIP3    H1  222   4.989   5.797   2.093  2.9852 -1.6830  0.7360
   72TIP3    H2  223   5.075   5.794   2.217  0.3934  1.2295  2.7599
   73TIP3   OH2  224   1.693   4.797   2.567 -0.5859 -0.5273  0.3834
   73TIP3    H1  225   1.671   4.705   2.549 -2.0468 -0.0408 -0.4707
   73TIP3    H2  226   1.765   4.816   2.507 -0.7114 -0.9381  0.0967
   74TIP3   OH2  227   2.772   4.697   2.097  0.3255 -0.3133  0.7573
   74TIP3    H1  228   2.731   4.762   2.153 -0.5640 -0.3088  0.1285
   74TIP3    H2  229   2.862   4.726   2.087  0.5767 -0.4640  2.3885
   75TIP3   OH2  230   3.285   5.163   4.667  0.3702 -0.3171 -0.1013
   75TIP3    H1  231   3.242   5.191   4.586 -0.5078 -1.5431 -0.0787
   75TIP3    H2  232   3.365   5.216   4.671 -0.2796  0.7773 -1.0295
   76TIP3   OH2  233   5.604   2.621   4.334 -0.1358 -0.2342 -0.0528
   76TIP3    H1  234   5.617   2.534   4.374 -0.5960 -0.0876  0.4252
   76TIP3    H2  235   5.682   2.670   4.361 -0.3791 -0.1763  0.5730
   77TIP3   OH2  236   0.949   5.867   4.196 -0.0240 -0.3811 -0.9240
   77TIP3    H1  237   0.938   5.955   4.232  0.2730 -0.5513 -0.4031
   77TIP3    H2  238   0.906   5.870   4.111 -1.9970 -0.3727  0.0314
   78TIP3   OH2  239   1.865   5.948   0.113 -0.3424  0.3312 -0.5255
   78TIP3    H1  240   1.936   5.999   0.150 -1.8682  1.1790  1.3874
   78TIP3    H2  241   1.836   5.890   0.184  0.4021 -2.2779 -2.1908
   79TIP3   OH2  242   4.356   2.809   0.056  0.2310  0.0178  0.5051
   79TIP3    H1  243   4.280   2.839   0.106 -0.3487 -0.3010 -0.1603
   79TIP3    H2  244   4.388   2.887   0.010  0.3435  0.1641  0.8310
   80TIP3   OH2  245   3.391   1.985   1.550  0.2535  0.3736 -0.0780
   80TIP3    H1  246   3.478   1.946   1.556  1.1263  2.3362  0.8974
   80TIP3    H2  247   3.352   1.969   1.636 -0.1778 -0.0674 -0.3498
   81TIP3   OH2  248   6.017   3.899   2.021  0.2316 -0.6049 -0.0889
   81TIP3    H1  249   5.956   3.888   2.094  1.3002 -0.3148  0.8928
   81TIP3    H2  250   6.092   3.945   2.060  1.1806 -1.1690 -1.1869
   82TIP3   OH2  251   3.064   4.626   0.173  0.5115  0.5090  0.1065
   82TIP3    H1  252   3.149   4.641   0.214  0.8130 -2.3385  0.7362
   82TIP3    H2  253   3.003   4.618   0.247  0.4312 -1.1850 -0.0956
   83TIP3   OH2  254   4.212   5.061   3.937 -0.2231  0.0719  0.2141
   83TIP3    H1  255   4.301   5.074   3.906 -1.0851  2.0856 -1.6952
   83TIP3    H2  256   4.197   5.133   3.999 -0.9260  0.5657 -0.5092
   84TIP3   OH2  257   3.439   3.147   0.100 -0.5725  0.1646 -0.4951
   84TIP3    H1  258   3.480   3.064   0.077 -1.6834 -0.1367 -1.5107
   84TIP3    H2  259   3.490   3.213   0.052  0.4329  0.1089  0.4679
   85TIP3   OH2  260   6.165   3.887   1.235  0.1459 -0.0465  0.1120
   85TIP3    H1  261   6.206   3.888   1.321  0.6142 -0.0288 -0.1030
   85TIP3    H2  262   6.216   3.950   1.184 -0.6349  0.5458  0.0480
   86TIP3   OH2  263   0.431   0.164   4.562 -0.4026 -0.1437  0.2116
   86TIP3    H1  264   0.470   0.156   4.475 -0.8660  0.1224 -0.0246
   86TIP3    H2  265   0.345   0.204   4.546  0.1094  1.2776  0.9323
   87TIP3   OH2  266   4.756   5.338   4.824  0.3785 -0.2325 -0.0018
   87TIP3    H1  267   4.789   5.347   4.734 -0.2074 -3.1121 -0.5794
   87TIP3    H2  268   4.835   5.326   4.877  0.7044  1.1748 -0.1201
   88TIP3   OH2  269   3.515   2.701   3.981 -0.0028  0.0782  0.1643
   88TIP3    H1  270   3.473   2.768   4.035  0.3787  0.6535 -0.2481
   88TIP3    H2  271   3.523   2.626   4.040  0.2549  0.6397  0.8687
   89TIP3   OH2  272   0.176   5.957   4.407  0.3182  0.4029 -0.3047
   89TIP3    H1  273   0.145   5.973   4.318 -2.3360 -0.4615  0.3852
   89TIP3    H2  274   0.185   6.045   4.445 -0.2355  0.7217 -0.8865
   90TIP3   OH2  275   5.582   5.912   3.016  0.0763 -0.0362 -0.1377
   90TIP3    H1  276   5.539   5.907   3.101  2.7024  1.3940  1.4172
   90TIP3    H2  277   5.595   6.006   3.001  2.3055 -0.3536 -0.6126
   91TIP3   OH2  278   1.176   0.979   0.334 -0.0003 -0.2581  0.1536
   91TIP3    H1  279   1.177   0.906   0.271 -3.8645 -1.7222  1.5399
   91TIP3    H2  280   1.204   0.939   0.417  0.3618  0.5189  0.4182
   92TIP3   OH2  281   4.931   1.855   2.944 -0.2104 -0.2193 -0.0612
   92TIP3    H1  282   4.851   1.896   2.910 -0.6025 -0.8738  0.0393
   92TIP3    H2  283   4.965   1.917   3.007  0.5127  1.0132 -1.5989
   93TIP3   OH2  284   4.861   5.579   1.508  0.3206 -0.0149  0.4731
   93TIP3    H1  285   4.935   5.640   1.498 -0.0914  0.5712  0.9149
   93TIP3    H2  286   4.861   5.559   1.602  0.5712 -0.8522  0.2961
   94TIP3   OH2  287   3.349   5.529   0.051  0.1250  0.5013  0.2852
   94TIP3    H1  288   3.387   5.578   0.124 -0.3455 -1.6551  2.0465
   94TIP3    H2  289   3.257   5.519   0.073 -0.6831  2.1040 -1.9642
   95TIP3   OH2  290   2.242   3.689   2.423  0.0428  0.5031  0.0447
   95TIP3    H1  291   2.269   3.710   2.512  0.5233  1.9666 -0.4123
   95TIP3    H2  292   2.226   3.595   2.424 -1.2633  0.6816  2.0068
   96TIP3   OH2  293   1.639   5.753   4.247 -0.3078  0.4062  0.0970
   96TIP3    H1  294   1.723   5.750   4.294  0.2999  1.2858 -0.8906
   96TIP3    H2  295   1.585   5.813   4.300 -0.4792 -0.4842  0.9606
   97TIP3   OH2  296   1.482   2.289   4.651 -0.6249  0.1493  0.0240
   97TIP3    H1  297   1.492   2.308   4.558  0.3591  1.4586  0.3538
   97TIP3    H2  298   1.400   2.242   4.658 -0.8296  0.2425 -1.4816
   98TIP3   OH2  299   6.323   5.316   0.164  0.1657 -0.2512 -0.4652
   98TIP3    H1  300   6.392   5.256   0.191  0.7686  0.4399 -0.4338
   98TIP3    H2  301   6.315   5.303   0.070  0.3959 -0.2709 -0.4822
   99TIP3   OH2  302   5.187   5.928   4.550  0.2755  0.2302 -0.2521
   99TIP3    H1  303   5.141   5.886   4.478 -1.7420 -0.4398  1.3182
   99TIP3    H2  304   5.279   5.914   4.531 -0.2260 -0.9430 -2.0852
  100TIP3   OH2  305   3.491   4.555   3.946  0.2917 -0.1751  0.1727
  100TIP3    H1  306   3.518   4.469   3.978 -0.8655 -1.2159 -1.4955
  100TIP3    H2  307   3.402   4.542   3.914 -0.1733  1.8283  0.4946
  101TIP3   OH2  308   5.064   3.130   4.675 -0.0496  0.2089  0.2474
  101TIP3    H1  309   5.150   3.088   4.684  0.0574  0.5105  0.6159
  101TIP3    H2  310   5.029   3.133   4.764 -0.5666 -0.1671  0.0612
  102TIP3   OH2  311   4.442   4.575   2.777  0.1298  0.7093 -0.0048
  102TIP3    H1  312   4.366   4.554   2.723  0.4822  0.4661 -0.4067
  102TIP3    H2  313   4.518   4.558   2.721  0.5414 -0.7062  0.9346
  103TIP3   OH2  314   1.168   1.520   3.335  0.0650  0.3021  0.2748
  103TIP3    H1  315   1.086   1.500   3.380 -0.2474  0.0475 -0.4055
  103TIP3    H2  316   1.144   1.581   3.266 -0.1467 -2.2480 -2.0567
  104TIP3   OH2  317   5.211   0.288   0.030  0.2615  0.0380  0.0154
  104TIP3    H1  318   5.206   0.207  -0.021 -0.0787  0.6309 -0.9304
  104TIP3    H2  319   5.122   0.300   0.064  1.0708 -1.8280  3.2043
  105TIP3   OH2  320   2.641   1.554   0.301  0.1334  0.1500 -0.1345
  105TIP3    H1  321   2.599   1.508   0.228  0.1424 -1.9454  1.0747
  105TIP3    H2  322   2.571   1.603   0.343 -0.2194  0.0218 -0.5685
  106TIP3   OH2  323   4.846   3.531   4.452  0.6545 -0.2812 -0.2275
  106TIP3    H1  324   4.779   3.487   4.399  0.4928 -0.3585  0.0436
  106TIP3    H2  325   4.833   3.498   4.540  1.2116 -0.4897 -0.2187
  107TIP3   OH2  326   5.472   3.302   2.354  0.1333 -0.4516 -0.1172
  107TIP3    H1  327   5.517   3.222   2.326  0.7368 -0.0994 -0.1681
  107TIP3    H2  328   5.380   3.277   2.359  0.2219 -0.9506 -0.8579
  108TIP3   OH2  329   3.660   5.581   2.656 -0.2173  0.6814 -0.4563
  108TIP3    H1  330   3.581   5.529   2.644  0.4470 -0.2623 -0.8891
  108TIP3    H2  331   3.629   5.665   2.689 -1.3175  0.0260  0.2260
  109TIP3   OH2  332   2.979   3.739   2.848 -0.4975  0.0823 -0.0749
  109TIP3    H1  333   2.979   3.651   2.809 -0.4233 -0.5424  1.2977
  109TIP3    H2  334   2.940   3.727   2.934  0.3645  1.2301  0.4964
  110TIP3   OH2  335   5.176   5.039   4.486  0.1846 -0.1642  0.1970
  110TIP3    H1  336   5.223   5.120   4.506 -2.8761  1.6941  0.5454
  110TIP3    H2  337   5.182   4.987   4.566  1.6832 -0.0597  0.1772
  111TIP3   OH2  338   0.669   2.255   1.593 -0.0858 -0.3051  0.0363
  111TIP3    H1  339   0.648   2.182   1.651  0.9874 -1.6295 -1.1779
  111TIP3    H2  340   0.762   2.271   1.608  0.1028 -0.3945 -1.0270
  112TIP3   OH2  341   0.941   1.123   4.402 -0.2167  0.1498  0.4656
  112TIP3    H1  342   0.886   1.101   4.327  0.4835 -1.7683  0.4538
  112TIP3    H2  343   0.977   1.209   4.381 -0.8528  0.1031 -0.9238
  113TIP3   OH2  344   2.110   2.854   2.310 -0.4190 -0.6204  0.5615
  113TIP3    H1  345   2.032   2.819   2.352 -0.4981 -0.3788  0.6222
  113TIP3    H2  346   2.182   2.800   2.343 -0.8197 -2.5174 -1.4394
  114TIP3   OH2  347   2.739   0.881   0.536  0.1228  0.2305 -0.5386
  114TIP3    H1  348   2.825   0.879   0.579 -0.1941  0.5778  0.1204
  114TIP3    H2  349   2.754   0.839   0.451  0.8677 -0.0262 -0.2887
  115TIP3   OH2  350   3.798   3.709   2.124  0.7423 -0.4598  0.4559
  115TIP3    H1  351   3.843   3.628   2.102  3.2133  0.6675  1.0584
  115TIP3    H2  352   3.857   3.779   2.095 -0.9587  1.1376  0.6229
  116TIP3   OH2  353   0.623   3.979   3.627 -0.0879 -0.1956 -0.3636
  116TIP3    H1  354   0.650   4.068   3.648  0.0805 -0.3737  0.1852
  116TIP3    H2  355   0.593   3.942   3.710 -2.8837  0.2742 -1.0680
  117TIP3   OH2  356   2.712   0.839   4.045 -0.0420 -0.2328  0.9667
  117TIP3    H1  357   2.700   0.830   3.951 -0.0715  1.9471  0.7227
  117TIP3    H2  358   2.641   0.786   4.083 -0.6727 -0.2917 -0.2393
  118TIP3   OH2  359   4.411   0.236   2.235  0.5066 -0.4603  0.0413
  118TIP3    H1  360   4.416   0.145   2.264 -0.1818 -0.3816  0.4432
  118TIP3    H2  361   4.318   0.259   2.246  0.8766  0.6540  1.0802
  119TIP3   OH2  362   2.998   4.357   4.782  0.0858  0.2778 -0.3000
  119TIP3    H1  363   3.047   4.377   4.703  0.4968  0.7286  0.0649
  119TIP3    H2  364   3.063   4.361   4.852 -0.5778  1.4706  0.2683
  120TIP3   OH2  365   5.981   1.695   4.918 -0.0488 -0.0668 -0.0048
  120TIP3    H1  366   5.973   1.674   4.825 -0.3994  1.0418 -0.2454
  120TIP3    H2  367   6.074   1.686   4.937  0.2771  1.1967 -0.8712
  121TIP3   OH2  368   2.842   1.609   0.509  0.2088 -0.6298 -0.6790
  121TIP3    H1  369   2.903   1.540   0.484  1.1333 -0.7655  1.6864
  121TIP3    H2  370   2.770   1.602   0.446  0.2439 -3.7767 -0.5120
  122TIP3   OH2  371   3.738   0.016   3.643  0.1561  0.2358 -0.4078
  122TIP3    H1  372   3.772   0.104   3.626 -0.8655  0.8448  0.5343
  122TIP3    H2  373   3.793  -0.042   3.590  1.9923  1.2412  0.3122
  123TIP3   OH2  374   2.272   1.952   1.636  0.1341  0.0158  0.4321
  123TIP3    H1  375   2.258   1.899   1.557 -0.3894 -1.4483  1.4669
  123TIP3    H2  376   2.367   1.951   1.648  0.3964  1.6829 -1.0921
  124TIP3   OH2  377   5.390   2.865   2.126  0.2338 -0.6264  0.1901
  124TIP3    H1  378   5.295   2.851   2.124  0.2175 -0.8541  1.5515
  124TIP3    H2  379   5.401   2.959   2.131  0.0434 -0.6293  0.7698
  125TIP3   OH2  380   5.160   3.103   3.314 -0.6308 -0.4734 -0.7628
  125TIP3    H1  381   5.068   3.125   3.298 -0.4816 -0.0232 -1.0462
  125TIP3    H2  382   5.209   3.172   3.269 -0.1705  0.0821  0.5360
  126TIP3   OH2  383   2.070   5.779   2.002 -0.2132  0.6236  0.4434
  126TIP3    H1  384   2.022   5.776   2.085 -1.3005  0.2454 -0.1808
  126TIP3    H2  385   2.002   5.791   1.935  0.6357  0.8436 -0.4089
  127TIP3   OH2  386   4.700   2.466   2.356  0.1499  0.4480  0.7266
  127TIP3    H1  387   4.693   2.538   2.293  0.7173 -1.4182 -1.5784
  127TIP3    H2  388   4.767   2.408   2.321  0.5137 -0.7079  3.0880
  128TIP3   OH2  389   4.194   3.978   2.203 -0.2738  0.9226  0.5447
  128TIP3    H1  390   4.110   3.983   2.247 -0.7011  0.8654 -0.2414
  128TIP3    H2  391   4.243   3.911   2.251 -0.8168  0.6890  0.7713
  129TIP3   OH2  392   4.833   3.390   2.411  0.0564  0.2244  0.2837
  129TIP3    H1  393   4.835   3.301   2.377 -0.7057  0.1601  0.3736
  129TIP3    H2  394   4.888   3.387   2.490 -1.2460 -0.5933  1.2133
  130TIP3   OH2  395   2.569   1.874   4.626 -0.1053  0.4855 -0.2794
  130TIP3    H1  396   2.541   1.962   4.651  0.0021 -0.3751  3.3999
  130TIP3    H2  397   2.504   1.846   4.562 -3.1613  1.4834  2.1360
  131TIP3   OH2  398   4.196   3.568   4.810  0.1100 -0.2768  0.2412
  131TIP3    H1  399   4.178   3.661   4.822 -1.9624 -0.7388  1.2122
  131TIP3    H2  400   4.110   3.529   4.797  0.8608 -2.1732  0.6772
  132TIP3   OH2  401   5.741   2.224   3.287 -0.3327  0.8163 -0.4532
  132TIP3    H1  402   5.650   2.202   3.270 -0.5672  2.0956 -1.0407
  132TIP3    H2  403   5.790   2.146   3.263 -1.3991 -0.6669  1.8708
  133TIP3   OH2  404   2.479   4.532   5.159  0.0834  0.3063 -0.7083
  133TIP3    H1  405   2.508   4.622   5.176 -0.5902  0.5021 -0.5500
  133TIP3    H2  406   2.537   4.477   5.211 -0.1532  0.7208  0.0062
  134TIP3   OH2  407   2.279   1.011   4.055 -0.0646 -0.4330 -0.2654
  134TIP3    H1  408   2.253   1.090   4.007 -0.9502 -0.6434 -0.1598
  134TIP3    H2  409   2.348   0.972   4.002  1.2203  1.0097  0.2577
  135TIP3   OH2  410   6.049   1.378   4.155  0.2730  0.3587 -0.0942
  135TIP3    H1  411   6.029   1.465   4.121  1.8365  0.7086 -0.1951
  135TIP3    H2  412   6.070   1.326   4.077 -1.4474 -0.3829 -0.1211
  136TIP3   OH2  413   4.940   1.599   5.083  0.3409  0.3032  0.1140
  136TIP3    H1  414   5.001   1.528   5.060  0.1181  0.0675  0.2475
  136TIP3    H2  415   4.953   1.665   5.014 -0.7176 -0.6313 -1.0354
  137TIP3   OH2  416   5.734   3.956   2.628  0.2286 -0.5029 -0.3081
  137TIP3    H1  417   5.829   3.944   2.626  0.1084 -1.5999  0.0895
  137TIP3    H2  418   5.699   3.877   2.586 -0.4758  0.5066 -1.7075
  138TIP3   OH2  419   5.834   1.581   3.536 -0.0740  0.6710  0.6145
  138TIP3    H1  420   5.764   1.522   3.565  1.4787 -1.2472  0.6101
  138TIP3    H2  421   5.862   1.625   3.616  0.4322 -0.4805  1.0918
  139TIP3   OH2  422   0.028   1.960   1.776  0.1145 -0.6236  0.0736
  139TIP3    H1  423   0.095   1.892   1.766 -0.8312 -1.5259 -0.3259
  139TIP3    H2  424  -0.054   1.915   1.758 -0.8906 -0.1751  3.0090
  140TIP3   OH2  425   3.773   3.650   4.650  0.3035 -0.0058  0.1712
  140TIP3    H1  426   3.743   3.636   4.561 -1.4669  2.3032  0.3104
  140TIP3    H2  427   3.816   3.736   4.648 -0.8089  0.6272  1.7350
  141TIP3   OH2  428   6.094   0.955   3.674 -0.5773  0.2481 -0.2095
  141TIP3    H1  429   6.008   0.996   3.665 -0.1907  1.5773  1.5879
  141TIP3    H2  430   6.151   1.025   3.707  1.0174 -0.8119 -0.5817
  142TIP3   OH2  431   1.015   5.361   0.515 -0.6322 -0.0038  0.3970
  142TIP3    H1  432   0.999   5.272   0.484 -0.1206 -0.7332  2.1071
  142TIP3    H2  433   0.998   5.416   0.439 -0.1438 -1.6151 -0.9513
  143TIP3   OH2  434   0.324   2.281   0.971  0.2183 -0.1392  0.1600
  143TIP3    H1  435   0.361   2.276   1.060 -0.5956  1.1173  0.5894
  143TIP3    H2  436   0.400   2.268   0.913  1.0722  0.8136  1.0226
  144TIP3   OH2  437   3.323   2.459   1.446 -0.2136 -0.3617  0.2854
  144TIP3    H1  438   3.309   2.381   1.500  1.6877 -0.9683 -0.0101
  144TIP3    H2  439   3.413   2.484   1.464 -0.7018  1.6288  0.1425
  145TIP3   OH2  440   2.837   4.408   4.253  0.3355 -0.5308  0.0019
  145TIP3    H1  441   2.870   4.427   4.166  0.1958 -0.9077 -0.1338
  145TIP3    H2  442   2.812   4.494   4.288 -1.2076 -0.5297 -0.9814
  146TIP3   OH2  443   5.225   5.796   2.429 -0.2939 -0.0696 -0.2114
  146TIP3    H1  444   5.302   5.790   2.485 -1.8053 -0.7231  1.9313
  146TIP3    H2  445   5.259   5.781   2.341  2.2462  1.3583  0.4110
  147TIP3   OH2  446   4.924   4.844   0.895 -0.7049  0.0960 -0.0228
  147TIP3    H1  447   4.898   4.887   0.813 -0.6242  0.0137 -0.0929
  147TIP3    H2  448   4.851   4.784   0.914 -1.3342  1.0622  0.6705
  148TIP3   OH2  449   0.362   4.576   3.497  0.3211 -0.3846 -0.0993
  148TIP3    H1  450   0.269   4.558   3.513  0.0644 -0.0832 -1.1634
  148TIP3    H2  451   0.403   4.569   3.583 -0.8082  0.1902  0.5011
  149TIP3   OH2  452   2.081   3.906   4.796  0.2464 -1.0406  0.4130
  149TIP3    H1  453   2.133   3.973   4.840 -0.1845 -0.1707 -0.3792
  149TIP3    H2  454   2.145   3.842   4.767  1.0979  0.6327 -1.6502
  150TIP3   OH2  455   5.403   1.886   4.873 -0.2036 -0.2462 -0.4745
  150TIP3    H1  456   5.459   1.920   4.802 -1.2075 -0.0133 -1.1700
  150TIP3    H2  457   5.314   1.909   4.847 -0.7119 -1.3772  0.2021
  151TIP3   OH2  458   4.894   5.142   1.026  0.2437 -0.0541 -0.2165
  151TIP3    H1  459   4.921   5.066   0.974  0.0769 -1.8795  2.1808
  151TIP3    H2  460   4.976   5.182   1.054  0.3304  0.6509 -1.3774
  152TIP3   OH2  461   5.961   2.923   1.120 -0.2551 -0.1215 -0.0118
  152TIP3    H1  462   5.985   2.987   1.054 -1.2553  0.2114 -0.0712
  152TIP3    H2  463   6.003   2.842   1.092  0.2776  0.2932 -0.4236
  153TIP3   OH2  464   4.312   3.808   2.363  0.2250  0.2509  0.4680
  153TIP3    H1  465   4.394   3.819   2.410  1.1702 -0.3861 -0.9690
  153TIP3    H2  466   4.286   3.718   2.379 -1.1117  0.8988  2.2713
  154TIP3   OH2  467   1.524   0.470   3.119  0.0838  0.2812 -0.0861
  154TIP3    H1  468   1.508   0.473   3.025  1.1022  0.1227 -0.2831
  154TIP3    H2  469   1.550   0.379   3.136  3.3532  1.0532 -0.3142
  155TIP3   OH2  470   5.492   0.909   2.777  0.3157 -0.4626 -0.7067
  155TIP3    H1  471   5.503   0.823   2.819 -0.2959  0.0469  0.5557
  155TIP3    H2  472   5.483   0.970   2.850 -2.2370  0.2756 -1.5261
  156TIP3   OH2  473   0.980   1.472   3.523 -0.2915 -0.2999  0.0653
  156TIP3    H1  474   0.917   1.410   3.559 -0.0974 -0.2411  0.5192
  156TIP3    H2  475   1.009   1.523   3.598  1.2785 -1.1879  0.1227
  157TIP3   OH2  476   2.525   3.266   1.313  0.0955  0.3048 -0.4562
  157TIP3    H1  477   2.498   3.208   1.385  0.1255  0.7486 -0.0874
  157TIP3    H2  478   2.613   3.235   1.289  0.7521  1.1407  0.7547
  158TIP3   OH2  479   1.243   0.409   3.050  0.1153  0.5689  0.1301
  158TIP3    H1  480   1.269   0.478   2.989  1.8225 -0.1951 -0.0613
  158TIP3    H2  481   1.308   0.340   3.037 -0.1413 -0.0848  2.0086
  159TIP3   OH2  482   4.242   3.476   1.776  0.2480  0.3777  0.3473
  159TIP3    H1  483   4.298   3.401   1.796  1.2304  0.9376 -0.2220
  159TIP3    H2  484   4.303   3.549   1.761 -0.6140  0.9650 -0.4561
  160TIP3   OH2  485   0.312   2.680   3.207 -0.2736  0.3708 -0.0865
  160TIP3    H1  486   0.366   2.604   3.188 -1.7424 -0.6637 -0.2318
  160TIP3    H2  487   0.373   2.743   3.247  1.0402 -0.7033 -0.3325
  161TIP3   OH2  488   3.422   3.288   2.471  0.8075  0.5183 -0.0265
  161TIP3    H1  489   3.433   3.383   2.471  0.5912  0.5524  0.7505
  161TIP3    H2  490   3.510   3.254   2.454  0.9030  0.8592 -0.2170
  162TIP3   OH2  491   0.217   5.510   3.874  0.6587  0.2162 -0.3587
  162TIP3    H1  492   0.287   5.546   3.820  0.8511  0.2555 -0.0859
  162TIP3    H2  493   0.212   5.418   3.849  0.5439  0.3012 -0.6558
  163TIP3   OH2  494   6.154   2.333   0.832  0.3522  0.0037  0.2488
  163TIP3    H1  495   6.236   2.292   0.860  0.0886 -0.6910  0.0257
  163TIP3    H2  496   6.163   2.345   0.738  0.3655  0.3318  0.2886
  164TIP3   OH2  497   3.105   3.154   2.533  0.1030  0.1297  0.2130
  164TIP3    H1  498   3.141   3.239   2.506 -2.8476  1.4025 -0.1097
  164TIP3    H2  499   3.018   3.152   2.494 -0.8070 -2.0583  2.1437
  165TIP3   OH2  500   3.573   3.481   0.226 -0.4899 -0.1532  0.5978
  165TIP3    H1  501   3.600   3.424   0.154 -0.0342  1.6454 -0.7287
  165TIP3    H2  502   3.504   3.535   0.189  0.5889  1.6517  1.0850
  166TIP3   OH2  503   0.305   1.917   3.428 -0.4036 -0.6306  0.7267
  166TIP3    H1  504   0.251   1.993   3.406  1.0825  0.7892  1.8090
  166TIP3    H2  505   0.295   1.859   3.352  1.3481  2.2968 -2.0078
  167TIP3   OH2  506   5.027   1.310   3.177  0.6008  0.1481  0.5720
  167TIP3    H1  507   5.038   1.400   3.210  0.5101  0.2793  0.2455
  167TIP3    H2  508   4.975   1.267   3.245 -2.2377  1.2559 -0.7612
  168TIP3   OH2  509   2.563   4.110   4.671  0.5220  0.0426  0.0792
  168TIP3    H1  510   2.507   4.151   4.606  1.2952  1.4706  0.2702
  168TIP3    H2  511   2.503   4.062   4.728 -0.1563 -1.3112 -1.7019
  169TIP3   OH2  512   5.412   1.689   1.921  0.3416  0.3302  0.4710
  169TIP3    H1  513   5.320   1.704   1.943 -0.1646 -1.4608 -0.3040
  169TIP3    H2  514   5.444   1.633   1.992  0.1186 -1.1291 -0.5383
  170TIP3   OH2  515   1.107   5.780   2.683  0.0938 -0.2699  0.4805
  170TIP3    H1  516   1.149   5.853   2.729  1.0615 -0.0640 -0.6916
  170TIP3    H2  517   1.122   5.798   2.590  0.3882 -1.9764  0.1682
  171TIP3   OH2  518   6.134   5.992   1.468  0.0386  0.4661  0.4691
  171TIP3    H1  519   6.082   5.924   1.426 -0.9474  1.1083  0.6091
  171TIP3    H2  520   6.111   6.072   1.421  0.7161  0.8034  0.7000
  172TIP3   OH2  521   5.002   4.494   4.949  0.0660  0.0597  0.1186
  172TIP3    H1  522   4.909   4.474   4.954  0.0496  0.3066  0.8431
  172TIP3    H2  523   5.039   4.424   4.895 -0.7732  0.7738 -1.4318
  173TIP3   OH2  524   0.434   1.533   4.573  0.1979 -0.0669 -0.0721
  173TIP3    H1  525   0.385   1.467   4.623 -0.3676  1.0259  0.8458
  173TIP3    H2  526   0.512   1.549   4.625 -0.9634  1.9685  1.1870
  174TIP3   OH2  527   1.787   4.245   4.828  0.0471  0.0826  0.1564
  174TIP3    H1  528   1.766   4.306   4.898  1.4599  0.6772  0.0936
  174TIP3    H2  529   1.777   4.158   4.868  0.7212  0.4103  1.0685
  175TIP3   OH2  530   2.194   1.391   2.668  0.3979  0.3807 -0.3198
  175TIP3    H1  531   2.137   1.333   2.618 -1.3724  1.0848  0.7782
  175TIP3    H2  532   2.221   1.459   2.606 -0.8564  0.6314 -0.6000
  176TIP3   OH2  533   0.418   4.983   2.440 -0.0348 -0.0195 -0.2900
  176TIP3    H1  534   0.338   5.013   2.482  0.0005 -1.3302  0.7656
  176TIP3    H2  535   0.467   4.938   2.509  0.4697 -1.4038 -1.4844
  177TIP3   OH2  536   2.991   3.269   3.400  0.3331 -0.0379 -0.1651
  177TIP3    H1  537   2.912   3.301   3.444  0.1494 -1.6930  0.7778
  177TIP3    H2  538   3.040   3.225   3.469  1.6294  0.1467 -0.9529
  178TIP3   OH2  539   0.973   3.724   5.142  0.3034  0.1911 -0.4916
  178TIP3    H1  540   1.052   3.670   5.145  1.7065  2.0004 -1.6862
  178TIP3    H2  541   0.956   3.747   5.233  0.0845 -1.6183 -0.0360
  179TIP3   OH2  542   5.056   4.612   0.797 -0.2618  0.7305  0.7343
  179TIP3    H1  543   5.005   4.538   0.830 -1.5816  1.7882  1.1992
  179TIP3    H2  544   5.023   4.687   0.847  0.5163  1.7404 -0.2274
  180TIP3   OH2  545   3.435   1.208   1.315 -0.1231  0.1729  0.3083
  180TIP3    H1  546   3.457   1.291   1.357 -0.8061 -0.3700  1.8045
  180TIP3    H2  547   3.466   1.142   1.377  1.3214 -0.7445 -1.3013
  181TIP3   OH2  548   5.865   2.208   0.890 -0.1031 -0.0698  0.1744
  181TIP3    H1  549   5.833   2.214   0.980  0.8767 -0.7310  0.5890
  181TIP3    H2  550   5.959   2.225   0.897  0.1092 -0.8281 -0.6070
  182TIP3   OH2  551   1.997   5.285   3.009 -0.1936 -0.1596  0.0483
  182TIP3    H1  552   1.938   5.359   2.994 -0.0890 -0.5132 -2.5229
  182TIP3    H2  553   2.082   5.325   3.028 -0.5952  0.3563  0.7920
  183TIP3   OH2  554   1.754   5.389   0.957  0.6270  0.2073  0.0714
  183TIP3    H1  555   1.791   5.434   1.033  0.3866 -0.7347  0.7685
  183TIP3    H2  556   1.754   5.296   0.982 -3.8635  0.2206  0.9406
  184TIP3   OH2  557   6.174   4.097   2.812  0.0951  0.2483  0.2603
  184TIP3    H1  558   6.235   4.031   2.845  1.1493  0.7996 -0.5071
  184TIP3    H2  559   6.212   4.181   2.840 -0.1060  0.6132 -0.5364
  185TIP3   OH2  560   5.847   5.844   4.695 -0.1804  0.1758  0.2675
  185TIP3    H1  561   5.818   5.762   4.735 -0.4489  0.2094  0.1457
  185TIP3    H2  562   5.936   5.857   4.727  0.2409 -0.6839 -0.5231
  186TIP3   OH2  563   5.679   4.674   4.133 -0.2775 -0.0656 -0.2282
  186TIP3    H1  564   5.746   4.701   4.195 -1.6874  0.1786  1.2757
  186TIP3    H2  565   5.667   4.580   4.149  0.0218 -0.2014 -0.8024
  187TIP3   OH2  566   2.587   5.710   4.520 -0.2542 -0.7723  0.0351
  187TIP3    H1  567   2.563   5.709   4.428 -1.1153  2.9533  0.0407
  187TIP3    H2  568   2.675   5.748   4.522 -0.7603  0.4321  0.7459
  188TIP3   OH2  569   4.001   0.364   1.305  0.2998 -0.6614  0.0090
  188TIP3    H1  570   4.033   0.331   1.221  0.2990 -0.5020 -0.0546
  188TIP3    H2  571   4.048   0.446   1.318 -1.1856  0.3928 -0.8457
  189TIP3   OH2  572   3.289   4.531   4.768  0.1807 -0.1954 -0.1814
  189TIP3    H1  573   3.226   4.601   4.784  1.7063  0.8635  1.6834
  189TIP3    H2  574   3.249   4.477   4.700 -1.3340  2.1188 -1.2503
  190TIP3   OH2  575   5.986   5.136   5.049 -0.6506 -0.2643  0.9691
  190TIP3    H1  576   5.919   5.070   5.065 -0.0553 -1.0606  0.2505
  190TIP3    H2  577   5.994   5.139   4.953  0.9092 -0.7749  1.0624
  191TIP3   OH2  578   1.806   1.808   4.491 -0.1379  0.0782  0.1420
  191TIP3    H1  579   1.849   1.746   4.431  1.4431  2.3481 -1.2403
  191TIP3    H2  580   1.877   1.845   4.542 -1.0601  0.7168  0.9993
  192TIP3   OH2  581   3.678   5.550   1.621 -0.0926 -0.3264 -0.4869
  192TIP3    H1  582   3.739   5.604   1.572  0.1466  1.4489  1.6042
  192TIP3    H2  583   3.727   5.520   1.697 -1.5011  0.3600  0.7562
  193TIP3   OH2  584   1.751   3.583   5.069  0.5931 -0.0268 -0.3301
  193TIP3    H1  585   1.728   3.594   4.976  1.3352  2.1516 -0.3109
  193TIP3    H2  586   1.834   3.630   5.079 -0.7853  2.1493  1.9711
  194TIP3   OH2  587   2.246   3.865   1.836 -0.1642 -0.3060 -0.1597
  194TIP3    H1  588   2.327   3.916   1.832 -0.3269 -0.1403 -2.3341
  194TIP3    H2  589   2.221   3.869   1.928  0.9706  1.7281  0.1342
  195TIP3   OH2  590   5.986   5.376   0.401  0.2470  0.2883  0.0706
  195TIP3    H1  591   6.068   5.332   0.421  1.5217  2.3184 -0.3669
  195TIP3    H2  592   6.007   5.470   0.407 -1.2292  0.9483 -3.0288
  196TIP3   OH2  593   3.293   4.573   1.400  0.2089  0.5504 -0.2936
  196TIP3    H1  594   3.198   4.577   1.390  0.1359  1.5356  0.5098
  196TIP3    H2  595   3.313   4.643   1.463  1.0644 -1.9534  2.4101
  197TIP3   OH2  596   1.478   6.032   1.654 -0.1965  0.5212 -0.1566
  197TIP3    H1  597   1.464   5.949   1.700 -0.1469 -0.1232 -1.2593
  197TIP3    H2  598   1.538   6.010   1.583 -1.5514  1.1077 -1.5477
  198TIP3   OH2  599   2.778   3.203   0.232 -0.1624  0.2986 -0.6237
  198TIP3    H1  600   2.691   3.165   0.246  0.8368 -2.2156 -0.8672
  198TIP3    H2  601   2.773   3.289   0.274 -1.7582 -1.0803  2.3001
  199TIP3   OH2  602   3.369   4.314   5.162  0.4332 -1.0420 -0.1425
  199TIP3    H1  603   3.374   4.220   5.181 -0.5960 -0.9174  0.9062
  199TIP3    H2  604   3.433   4.354   5.222  2.1381 -1.1714 -1.7805
  200TIP3   OH2  605   2.235   4.658   1.136  0.2303  0.0887  0.2765
  200TIP3    H1  606   2.323   4.623   1.119 -0.4844 -0.9842 -1.5168
  200TIP3    H2  607   2.245   4.753   1.126  0.8030 -0.1550 -2.2187
  201TIP3   OH2  608   0.668   4.635   0.891  0.3144  0.0546 -0.2392
  201TIP3    H1  609   0.663   4.727   0.865 -0.1287  0.6686  1.8165
  201TIP3    H2  610   0.749   4.629   0.941 -0.6057 -0.1812  1.2840
  202TIP3   OH2  611   1.041   3.470   4.493 -0.0340  0.3611  0.3481
  202TIP3    H1  612   1.104   3.475   4.421  0.9326  0.4339  1.1751
  202TIP3    H2  613   1.056   3.550   4.543 -2.4049  1.5682 -0.7046
  203TIP3   OH2  614   2.273   0.315   2.083 -0.6638  0.2739 -0.5331
  203TIP3    H1  615   2.282   0.220   2.069  3.3928  0.6588 -1.6753
  203TIP3    H2  616   2.255   0.324   2.176 -0.1844 -1.6165 -0.2121
  204TIP3   OH2  617   2.171   2.425   5.020  0.2768 -0.2114 -0.5728
  204TIP3    H1  618   2.173   2.459   4.931 -0.3812 -1.5874 -1.1342
  204TIP3    H2  619   2.254   2.378   5.030 -0.4954 -1.7878 -1.2027
  205TIP3   OH2  620   5.497   0.345   0.643  0.0390  0.0353  0.2761
  205TIP3    H1  621   5.505   0.250   0.632  1.2942  0.1484  0.0657
  205TIP3    H2  622   5.462   0.355   0.732  0.2133 -0.6194  0.4312
  206TIP3   OH2  623   2.697   1.055   5.164 -0.0112  0.0612  0.3429
  206TIP3    H1  624   2.612   1.096   5.145 -0.1574 -0.0721  0.6888
  206TIP3    H2  625   2.711   1.073   5.257  0.7734  0.8744  0.0812
  207TIP3   OH2  626   1.113   2.462   4.457  0.6192 -0.5720 -0.3189
  207TIP3    H1  627   1.177   2.403   4.418  0.0164 -1.1921 -0.3878
  207TIP3    H2  628   1.142   2.473   4.548  1.0090 -0.5764 -0.4447
  208TIP3   OH2  629   1.376   1.047   3.374 -0.1289 -0.8661  0.0194
  208TIP3    H1  630   1.413   1.022   3.459  0.9538  1.0254  0.1586
  208TIP3    H2  631   1.304   1.106   3.396  0.9378  0.6216 -0.3589
  209TIP3   OH2  632   5.011   5.808   1.175 -0.2492  0.2110  0.2511
  209TIP3    H1  633   5.091   5.792   1.125  0.0038  0.2270  0.6405
  209TIP3    H2  634   5.037   5.796   1.266 -1.1637 -1.7819  0.2988
  210TIP3   OH2  635   3.053   3.196   5.068  0.4154  0.4978 -0.4237
  210TIP3    H1  636   3.003   3.212   4.988  0.6524  0.4706 -0.5778
  210TIP3    H2  637   3.111   3.272   5.076 -1.0757  1.5590  0.8596
  211TIP3   OH2  638   0.359   3.817   2.429  0.1293 -0.0462 -0.0302
  211TIP3    H1  639   0.362   3.722   2.441 -0.9545 -0.0232  0.6364
  211TIP3    H2  640   0.321   3.829   2.342 -1.0082 -0.2422  0.4201
  212TIP3   OH2  641   2.051   0.060   3.104 -0.4679 -0.2524 -0.4196
  212TIP3    H1  642   2.072   0.136   3.160 -1.0347  0.7305 -1.5056
  212TIP3    H2  643   2.079  -0.016   3.156  1.2577  0.7465  0.2019
  213TIP3   OH2  644   3.652   4.393   3.157  0.1321  0.3044  0.2120
  213TIP3    H1  645   3.719   4.340   3.114 -0.5280  1.0778 -1.8876
  213TIP3    H2  646   3.700   4.447   3.220  1.2681 -0.1886 -0.2119
  214TIP3   OH2  647   3.499   5.424   2.189 -0.0493 -0.0710 -0.4400
  214TIP3    H1  648   3.559   5.352   2.169  0.6454  0.2974  0.2674
  214TIP3    H2  649   3.419   5.403   2.141  0.1450 -1.3066 -0.2403
  215TIP3   OH2  650   1.379   5.578   0.666 -0.1302 -0.4739 -0.6796
  215TIP3    H1  651   1.444   5.646   0.649 -0.6623  0.3860  0.5632
  215TIP3    H2  652   1.425   5.514   0.721 -1.1520  1.9274  3.4120
  216TIP3   OH2  653   3.287   0.882   2.589  0.5233 -0.2955  0.2264
  216TIP3    H1  654   3.361   0.943   2.585 -0.9295  1.5413 -0.0640
  216TIP3    H2  655   3.312   0.817   2.654  2.0977  0.6888  0.6433
  217TIP3   OH2  656   3.129   4.542   4.000  0.6694  0.4020  0.0619
  217TIP3    H1  657   3.056   4.481   4.010  1.6096 -0.7125  0.4603
  217TIP3    H2  658   3.137   4.554   3.906  0.9850 -0.7745 -0.0774
  218TIP3   OH2  659   4.576   2.470   4.826  0.0369  0.1259  0.1168
  218TIP3    H1  660   4.558   2.477   4.920 -0.7588  0.5080 -0.0566
  218TIP3    H2  661   4.495   2.436   4.789  0.1286  0.5862 -0.5190
  219TIP3   OH2  662   0.982   2.093   1.755  0.3144  0.5919 -0.0872
  219TIP3    H1  663   0.914   2.080   1.821  0.4875 -1.1123 -0.2100
  219TIP3    H2  664   1.062   2.059   1.795  0.4356 -0.4257 -1.1285
  220TIP3   OH2  665   3.516   0.860   0.898 -0.3272  0.6698 -0.4084
  220TIP3    H1  666   3.466   0.940   0.881 -3.0093 -0.7811 -0.0268
  220TIP3    H2  667   3.538   0.826   0.811  1.4996  2.1263 -0.5714
  221TIP3   OH2  668   0.290   1.314   4.686 -0.0447  0.0730 -0.4130
  221TIP3    H1  669   0.260   1.311   4.777  2.1683  2.6955  0.5744
  221TIP3    H2  670   0.366   1.255   4.685 -0.5269 -0.5467 -0.7860
  222TIP3   OH2  671   4.188   3.385   0.995 -0.0707 -0.3094  0.5446
  222TIP3    H1  672   4.186   3.297   0.959  0.3499  0.4519 -1.5073
  222TIP3    H2  673   4.276   3.417   0.976 -0.3083  0.6635  0.9709
  223TIP3   OH2  674   2.273   0.354   3.639  0.1242  0.1722  0.2422
  223TIP3    H1  675   2.227   0.349   3.723  1.8905 -0.8764  1.2318
  223TIP3    H2  676   2.315   0.440   3.640  0.3757  0.0491  0.5836
  224TIP3   OH2  677   0.135   2.006   2.916  0.6020 -0.0997  0.3035
  224TIP3    H1  678   0.194   2.000   2.840 -0.7228 -1.0252 -0.6979
  224TIP3    H2  679   0.149   2.094   2.951  1.6206  0.1589 -0.7001
  225TIP3   OH2  680   3.429   2.244   3.110 -0.3332  0.0144 -0.5690
  225TIP3    H1  681   3.380   2.247   3.028  0.1243  0.1112 -0.8410
  225TIP3    H2  682   3.492   2.173   3.098 -2.1988 -1.9983  0.8067
  226TIP3   OH2  683   2.940   3.230   4.828  0.3640  0.3069 -0.5430
  226TIP3    H1  684   2.926   3.321   4.805  3.8786  0.7505 -1.3693
  226TIP3    H2  685   2.931   3.182   4.745 -3.8992 -0.6405  0.2212
  227TIP3   OH2  686   1.202   5.822   1.549 -0.4855 -0.1155  0.2346
  227TIP3    H1  687   1.296   5.814   1.534 -0.2362 -1.7536  2.2762
  227TIP3    H2  688   1.190   5.914   1.574  0.5308  0.1760 -0.2925
  228TIP3   OH2  689   4.635   2.105   0.450 -0.3828 -0.3017  0.2499
  228TIP3    H1  690   4.676   2.033   0.499 -0.8172 -1.3628 -0.8723
  228TIP3    H2  691   4.543   2.080   0.444 -0.2480 -0.5022 -1.5515
  229TIP3   OH2  692   5.837   4.389   3.064  0.5708  0.1409  0.0766
  229TIP3    H1  693   5.824   4.353   3.152 -0.9555 -0.8544 -0.4934
  229TIP3    H2  694   5.772   4.459   3.057  0.5833  0.1200 -0.2890
  230TIP3   OH2  695   4.968   2.295   3.494  0.7794 -0.3080 -0.0690
  230TIP3    H1  696   4.922   2.376   3.474 -2.5428 -1.1480  3.2229
  230TIP3    H2  697   4.926   2.229   3.439  1.7264 -0.2847 -0.8560
  231TIP3   OH2  698   3.325   0.359   2.633 -0.4176 -0.4370  0.3600
  231TIP3    H1  699   3.246   0.403   2.663 -0.7290  2.2883 -3.6531
  231TIP3    H2  700   3.294   0.289   2.576 -0.0429  0.2570 -0.7434
  232TIP3   OH2  701   4.414   1.463   1.050  0.1643  0.5237  0.0629
  232TIP3    H1  702   4.430   1.517   1.127 -1.5030 -0.1172  0.9059
  232TIP3    H2  703   4.473   1.498   0.983  2.6336  0.2798  1.9695
  233TIP3   OH2  704   0.518   3.188   3.127 -0.4599  0.3571 -0.3769
  233TIP3    H1  705   0.427   3.159   3.137 -0.1419 -0.7595 -0.6324
  233TIP3    H2  706   0.551   3.192   3.217 -0.7836  0.8682 -0.2750
  234TIP3   OH2  707   0.962   0.232   1.072 -0.3502  0.0217  0.4217
  234TIP3    H1  708   0.950   0.187   1.156 -1.4346 -2.6780 -1.0537
  234TIP3    H2  709   1.009   0.312   1.095 -1.8388  0.1078  3.7577
  235TIP3   OH2  710   0.844   1.263   0.551  0.1252  0.0813 -0.4026
  235TIP3    H1  711   0.893   1.211   0.488 -1.6204 -0.7898 -1.1064
  235TIP3    H2  712   0.759   1.277   0.510 -1.0134 -0.3707  1.6595
  236TIP3   OH2  713   5.935   0.536   0.989  0.2683  0.2379 -0.4030
  236TIP3    H1  714   5.965   0.453   0.952  0.3314  0.0485  0.0612
  236TIP3    H2  715   5.922   0.517   1.082 -0.0545  0.6573 -0.3599
  237TIP3   OH2  716   0.689   1.843   4.800 -0.5127 -0.1618  0.2674
  237TIP3    H1  717   0.776   1.879   4.780 -0.1366 -0.4671  1.3048
  237TIP3    H2  718   0.697   1.750   4.776 -0.4591 -0.2521  0.6328
  238TIP3   OH2  719   0.407   4.024   1.771 -0.0203 -0.1420  0.3594
  238TIP3    H1  720   0.450   3.940   1.787 -0.5007 -0.3662  0.4584
  238TIP3    H2  721   0.335   4.027   1.833  0.7234  0.8856  1.2171
  239TIP3   OH2  722   1.763   0.291   3.089  0.2124 -0.0027  0.4223
  239TIP3    H1  723   1.743   0.198   3.091 -0.9362  0.2409  1.6243
  239TIP3    H2  724   1.731   0.325   3.172 -0.2855  1.6330 -0.3748
  240TIP3   OH2  725   1.401   0.266   3.590 -0.5908  0.5962  0.1322
  240TIP3    H1  726   1.415   0.204   3.661  0.1810  1.2325  0.5620
  240TIP3    H2  727   1.307   0.283   3.591 -0.7474 -0.2766  0.2517
  241TIP3   OH2  728   0.421   2.557   0.284 -0.3497  0.1749 -0.3241
  241TIP3    H1  729   0.512   2.585   0.280  0.0571 -1.1713 -0.6978
  241TIP3    H2  730   0.424   2.468   0.317 -1.6160  0.4708  0.6741
  242TIP3   OH2  731   3.653   5.229   0.761  0.2029  0.8523 -0.0336
  242TIP3    H1  732   3.747   5.222   0.776 -0.1122 -0.0152  1.7794
  242TIP3    H2  733   3.614   5.161   0.816 -1.4018 -0.1331 -2.2200
  243TIP3   OH2  734   0.030   5.589   2.663 -0.2882  0.4379  0.3146
  243TIP3    H1  735   0.107   5.605   2.717 -0.6616  0.1073  0.9515
  243TIP3    H2  736   0.060   5.606   2.574  1.4324 -2.6806  0.1450
  244TIP3   OH2  737   2.283   3.792   3.049  0.4226 -0.2910  0.1128
  244TIP3    H1  738   2.192   3.778   3.023  0.3100  0.0094  0.3355
  244TIP3    H2  739   2.316   3.857   2.987  0.8190 -1.2012 -0.6577
  245TIP3   OH2  740   0.708   1.230   3.312 -0.5539  0.8114 -0.2989
  245TIP3    H1  741   0.713   1.324   3.295 -1.1458  0.7168 -1.0245
  245TIP3    H2  742   0.622   1.203   3.279 -1.3464  0.4108  1.9483
  246TIP3   OH2  743   5.851   2.173   1.825  0.5992 -0.4004 -0.0374
  246TIP3    H1  744   5.767   2.205   1.857  0.7727 -0.4161  0.4422
  246TIP3    H2  745   5.868   2.224   1.746 -0.1340 -0.7973 -0.4592
  247TIP3   OH2  746   3.854   1.205   2.908 -0.0737  0.0112  0.0723
  247TIP3    H1  747   3.779   1.156   2.942  1.0892 -0.9715  1.2969
  247TIP3    H2  748   3.852   1.188   2.813 -1.0448 -0.4810  0.1699
  248TIP3   OH2  749   3.874   4.708   2.174  0.0383 -0.5990  0.0676
  248TIP3    H1  750   3.942   4.641   2.169  0.7536  0.1792 -1.3409
  248TIP3    H2  751   3.850   4.712   2.267  0.4105 -2.3501  0.2645
  249TIP3   OH2  752   2.367   0.196   0.693 -0.5034  0.2193 -0.1801
  249TIP3    H1  753   2.391   0.135   0.623 -0.7240 -1.0097  0.7823
  249TIP3    H2  754   2.438   0.188   0.757 -1.8120 -1.0630  1.1963
  250TIP3   OH2  755   4.573   4.698   2.269  0.3443  0.0477 -0.0780
  250TIP3    H1  756   4.603   4.696   2.359  1.8484 -0.7841 -0.5663
  250TIP3    H2  757   4.558   4.607   2.245 -1.0608  0.3195 -0.3802
  251TIP3   OH2  758   3.849   1.030   4.290  0.0299 -0.4657  0.9861
  251TIP3    H1  759   3.933   0.984   4.288  0.9269  1.0904  0.4908
  251TIP3    H2  760   3.872   1.119   4.319 -1.3985  0.0971  0.4631
  252TIP3   OH2  761   3.300   1.076   0.561 -0.3696 -0.2156 -1.1099
  252TIP3    H1  762   3.340   1.134   0.626 -0.3632 -1.4670  0.0504
  252TIP3    H2  763   3.362   1.004   0.552 -1.0262 -0.7491 -1.4430
  253TIP3   OH2  764   0.346   3.909   0.902  0.3971  0.0049 -0.2430
  253TIP3    H1  765   0.270   3.851   0.905 -0.6630  1.1041 -2.7376
  253TIP3    H2  766   0.328   3.976   0.967  1.6483 -2.2841  2.7013
  254TIP3   OH2  767   1.771   1.899   3.240 -0.2687 -0.1173  0.3699
  254TIP3    H1  768   1.736   1.888   3.151  0.5384 -1.6195  0.2047
  254TIP3    H2  769   1.799   1.811   3.266  0.5456  0.4959  1.6877
  255TIP3   OH2  770   4.536   4.235   4.260 -0.4494  0.7169  0.2538
  255TIP3    H1  771   4.576   4.162   4.213  0.2918 -0.0403  1.9404
  255TIP3    H2  772   4.465   4.195   4.310 -1.4460  1.5561 -0.4554
  256TIP3   OH2  773   1.555   1.224   5.036  0.1856  0.2737 -0.2495
  256TIP3    H1  774   1.610   1.157   5.077  0.0669 -0.6494 -1.5432
  256TIP3    H2  775   1.610   1.302   5.034  0.1925  0.3573  1.6232
  257TIP3   OH2  776   0.824   5.823   0.353  0.0103 -0.5409  0.1701
  257TIP3    H1  777   0.804   5.913   0.327  2.0098 -0.4916 -1.3968
  257TIP3    H2  778   0.892   5.794   0.292 -0.6475 -3.1802  0.5597
  258TIP3   OH2  779   2.073   1.949   3.057 -0.1450 -0.7088  0.2668
  258TIP3    H1  780   2.108   1.951   3.146 -0.3693 -1.6492  0.3892
  258TIP3    H2  781   2.087   1.858   3.029  0.2599 -0.3316 -0.7938
  259TIP3   OH2  782   0.521   1.700   1.580  0.2132  0.3125 -0.7976
  259TIP3    H1  783   0.457   1.658   1.523 -1.5775  1.6690  0.1074
  259TIP3    H2  784   0.552   1.775   1.530  1.9244 -0.8777 -1.6271
  260TIP3   OH2  785   4.753   5.865   2.643 -0.3564  0.2732 -0.2462
  260TIP3    H1  786   4.699   5.801   2.689 -0.5670  0.0303 -0.8092
  260TIP3    H2  787   4.842   5.834   2.654 -0.5157 -0.6283 -1.2362
  261TIP3   OH2  788   3.969   2.084   1.752 -0.0656 -0.5407  0.0593
  261TIP3    H1  789   4.052   2.040   1.731  0.3716 -0.0915  0.8173
  261TIP3    H2  790   3.995   2.168   1.790 -0.8273 -0.9410  1.5395
  262TIP3   OH2  791   0.781   3.801   3.998 -0.1271 -0.4416 -0.5109
  262TIP3    H1  792   0.832   3.732   4.038  0.3858  0.0228 -0.3576
  262TIP3    H2  793   0.831   3.827   3.921  0.8906  1.3625  0.7069
  263TIP3   OH2  794   6.392   4.207   0.793 -0.8970 -0.3553  0.2297
  263TIP3    H1  795   6.368   4.260   0.869 -1.7787 -1.8119  1.0122
  263TIP3    H2  796   6.309   4.180   0.755 -0.4610 -0.9181 -0.3417
  264TIP3   OH2  797   2.817   3.269   2.941  0.0920 -0.1064  0.0341
  264TIP3    H1  798   2.805   3.197   3.002  0.3336 -0.6049 -0.4937
  264TIP3    H2  799   2.766   3.244   2.864  1.3708 -0.4305 -0.7344
  265TIP3   OH2  800   3.891   4.593   0.063  0.0139 -0.5070  0.0975
  265TIP3    H1  801   3.977   4.612   0.101  0.6402 -1.5940 -0.7035
  265TIP3    H2  802   3.858   4.679   0.035  1.3417 -0.1883 -0.5913
  266TIP3   OH2  803   0.816   2.217   5.118 -0.0216 -0.4916  0.2858
  266TIP3    H1  804   0.868   2.139   5.138 -1.2028 -1.5462 -0.6119
  266TIP3    H2  805   0.726   2.191   5.134 -0.4426  0.7020 -0.0104
  267TIP3   OH2  806   2.320   2.756   0.129  0.0279 -0.3707  0.6883
  267TIP3    H1  807   2.312   2.675   0.079  2.7262  0.1473 -0.7628
  267TIP3    H2  808   2.268   2.820   0.080  1.1808 -0.3072 -0.4908
  268TIP3   OH2  809   2.116   4.437   3.288 -0.0811  0.3521  0.2735
  268TIP3    H1  810   2.027   4.436   3.323 -0.4364 -0.8374 -0.5777
  268TIP3    H2  811   2.110   4.385   3.207  1.4162  0.1236  0.2835
  269TIP3   OH2  812   2.479   1.294   0.794 -0.1841 -0.0064  0.4689
  269TIP3    H1  813   2.466   1.370   0.851  0.9895 -0.7354  1.7592
  269TIP3    H2  814   2.566   1.262   0.815 -0.4903 -1.4779 -0.3424
  270TIP3   OH2  815   3.647   0.449   1.091  0.5300  0.5652 -0.2883
  270TIP3    H1  816   3.702   0.506   1.144  0.2778  1.5269 -1.0393
  270TIP3    H2  817   3.597   0.398   1.155  1.6020  0.3222  0.3977
  271TIP3   OH2  818   1.516   5.964   4.073 -0.1792  0.4278 -0.5730
  271TIP3    H1  819   1.605   5.977   4.103 -0.1528  0.0195 -0.4684
  271TIP3    H2  820   1.467   5.942   4.152 -0.2562  0.0822 -0.7147
  272TIP3   OH2  821   5.638   5.135   0.047  0.6457 -0.0477 -0.0994
  272TIP3    H1  822   5.688   5.080  -0.014  2.5875 -1.0209  2.2261
  272TIP3    H2  823   5.572   5.077   0.083 -0.1440  0.3839 -0.7990
  273TIP3   OH2  824   4.632   5.497   2.578  0.1672  0.0296  0.0198
  273TIP3    H1  825   4.694   5.511   2.506 -0.5492 -0.5320 -0.7282
  273TIP3    H2  826   4.644   5.405   2.601 -0.5511 -0.1492 -0.2984
  274TIP3   OH2  827   2.566   1.410   3.995 -0.4217 -0.3556 -0.0617
  274TIP3    H1  828   2.588   1.370   3.910  1.6761  1.6632 -0.5773
  274TIP3    H2  829   2.542   1.500   3.973  3.0073  1.1528  1.5392
  275TIP3   OH2  830   1.763   3.390   2.305  0.0837  0.7939  0.0503
  275TIP3    H1  831   1.753   3.301   2.272  1.2556  0.7473 -0.1988
  275TIP3    H2  832   1.709   3.392   2.384  0.3270 -0.2469  0.2628
  276TIP3   OH2  833   6.005   3.056   0.862 -0.3274 -0.4030 -0.0225
  276TIP3    H1  834   6.059   3.067   0.783 -0.8845 -0.4408 -0.4172
  276TIP3    H2  835   5.944   2.986   0.840 -1.8420  0.9373 -0.3322
  277TIP3   OH2  836   1.716   1.000   0.224  0.3617  0.2864 -0.0965
  277TIP3    H1  837   1.741   1.066   0.289 -0.9570  0.6919  0.0279
  277TIP3    H2  838   1.661   1.047   0.162  0.8862 -0.3042 -1.0254
  278TIP3   OH2  839   0.592   5.150   0.318  0.4391  0.2401 -0.4013
  278TIP3    H1  840   0.656   5.209   0.359  1.3009 -1.5391  0.9728
  278TIP3    H2  841   0.560   5.097   0.391 -2.2012  0.6491 -1.1685
  279TIP3   OH2  842   4.688   2.210   3.647  0.6175  0.1362  0.4895
  279TIP3    H1  843   4.749   2.278   3.621  1.6905 -0.3006  1.7608
  279TIP3    H2  844   4.603   2.240   3.615  1.2198  1.5959  0.2026
  280TIP3   OH2  845   1.064   4.215   4.678  0.2050 -0.1620 -0.1015
  280TIP3    H1  846   1.056   4.212   4.773 -3.8175 -0.1961 -0.2698
  280TIP3    H2  847   1.026   4.300   4.653 -0.8951 -1.0751 -1.7278
  281TIP3   OH2  848   4.846   4.466   3.485 -0.0427  0.1838 -0.1479
  281TIP3    H1  849   4.893   4.549   3.482 -1.2004  0.9526  1.3685
  281TIP3    H2  850   4.896   4.412   3.547 -0.8968  0.8733  1.1909
  282TIP3   OH2  851   4.097   2.912   0.830 -0.1127 -0.3571 -0.0123
  282TIP3    H1  852   4.082   2.860   0.751 -1.1460 -0.0310 -0.0449
  282TIP3    H2  853   4.109   2.847   0.899 -0.9629 -0.6618 -0.1300
  283TIP3   OH2  854   1.838   5.283   0.670 -0.3798 -0.6484  0.2954
  283TIP3    H1  855   1.876   5.235   0.596 -0.5537 -1.0377  0.4574
  283TIP3    H2  856   1.900   5.269   0.742 -1.8509 -3.1194  1.2057
  284TIP3   OH2  857   5.087  -0.006   2.106 -0.0084 -0.1440  0.6792
  284TIP3    H1  858   5.165   0.030   2.148 -0.6244  1.8270  0.2523
  284TIP3    H2  859   5.015   0.043   2.146 -0.9711 -1.2945  0.4121
  285TIP3   OH2  860   0.005   0.436   4.979 -0.2155  0.0994  0.1311
  285TIP3    H1  861   0.048   0.503   5.032 -0.1858  0.7218 -0.6592
  285TIP3    H2  862   0.071   0.369   4.966 -0.0735  0.1717  0.4724
  286TIP3   OH2  863   0.719   1.042   4.191 -0.0665 -0.3221 -0.7608
  286TIP3    H1  864   0.694   1.019   4.280 -0.3429  0.0105 -0.7518
  286TIP3    H2  865   0.638   1.034   4.140 -0.4213  1.5529 -0.5780
  287TIP3   OH2  866   0.553   3.203   0.556 -0.7027 -0.1870  0.1046
  287TIP3    H1  867   0.553   3.296   0.577  0.7654 -0.0766 -0.2653
  287TIP3    H2  868   0.545   3.200   0.460  1.3603 -0.3141 -0.1142
  288TIP3   OH2  869   6.071   1.604   3.338 -0.0683  0.3403  0.1740
  288TIP3    H1  870   6.022   1.523   3.356  3.6475 -1.5241  3.3801
  288TIP3    H2  871   6.031   1.669   3.395 -1.0858 -0.0834 -0.0280
  289TIP3   OH2  872   5.320   4.640   0.688  0.5673 -0.4705  0.0842
  289TIP3    H1  873   5.234   4.603   0.708  0.6321 -0.7034 -0.0564
  289TIP3    H2  874   5.322   4.723   0.735 -0.7765  0.8284 -1.9818
  290TIP3   OH2  875   4.718   1.014   3.072  0.0097 -0.0564 -0.0373
  290TIP3    H1  876   4.725   1.033   3.166 -1.8362 -1.0462  0.3583
  290TIP3    H2  877   4.696   0.921   3.068 -0.0150 -0.0080 -1.4531
  291TIP3   OH2  878   0.910   0.841   0.526  0.6028  0.4609  0.1926
  291TIP3    H1  879   0.829   0.884   0.555  2.0981  3.1194  0.8326
  291TIP3    H2  880   0.906   0.843   0.431  0.5936  2.0970  0.2007
  292TIP3   OH2  881   2.950   1.951   1.787 -0.6788 -0.5686 -0.0226
  292TIP3    H1  882   2.915   1.869   1.821 -0.8054 -0.1749  0.8175
  292TIP3    H2  883   2.877   2.013   1.794 -0.7784 -0.5325 -1.2389
  293TIP3   OH2  884   2.521   2.542   4.969 -0.4014  0.2996  0.1064
  293TIP3    H1  885   2.538   2.565   5.060 -1.4835  0.2032  0.3424
  293TIP3    H2  886   2.522   2.626   4.922  1.2497  0.2464  0.0039
  294TIP3   OH2  887   3.248   3.459   2.168  0.0323  0.3344 -0.2584
  294TIP3    H1  888   3.171   3.515   2.160  0.0161  0.2647 -0.6111
  294TIP3    H2  889   3.316   3.516   2.203  0.6421  1.1784 -2.6435
  295TIP3   OH2  890   2.697   4.053   2.342 -0.2471  0.1709 -0.0688
  295TIP3    H1  891   2.749   4.110   2.398 -0.5925  2.4088 -1.8825
  295TIP3    H2  892   2.752   4.037   2.266 -1.1361  0.2366 -0.7391
  296TIP3   OH2  893   1.138   3.493   5.102  0.6335  0.6902  0.0263
  296TIP3    H1  894   1.199   3.515   5.173  1.8866 -1.4227 -0.3110
  296TIP3    H2  895   1.075   3.433   5.142 -0.0160  1.2340 -0.1450
  297TIP3   OH2  896   6.366   0.796   3.779 -0.2738  0.3189  0.4105
  297TIP3    H1  897   6.382   0.789   3.685 -0.0413  1.4973  0.3416
  297TIP3    H2  898   6.314   0.876   3.788 -0.8534 -0.1383  1.2284
  298TIP3   OH2  899   2.086   1.613   4.532  0.1425  0.3490 -0.2298
  298TIP3    H1  900   2.100   1.518   4.534 -0.7723  0.1454 -1.7268
  298TIP3    H2  901   2.044   1.629   4.448 -3.4281  1.5487  1.5590
  299TIP3   OH2  902   3.995   5.836   3.375  0.4104  0.0466 -0.1281
  299TIP3    H1  903   3.971   5.928   3.373 -1.2605 -0.3212  0.4475
  299TIP3    H2  904   3.983   5.810   3.466  0.7461 -0.7653 -0.3019
  300TIP3   OH2  905  -0.024   5.917   0.846  0.0473 -0.1165  0.3651
  300TIP3    H1  906   0.029   5.984   0.801  0.0490 -0.1042  0.3854
  300TIP3    H2  907   0.035   5.881   0.913  0.3093 -0.6995 -0.1715
  301TIP3   OH2  908   5.372   2.679   4.722 -0.1645 -0.4190  0.2728
  301TIP3    H1  909   5.407   2.722   4.644 -0.3121 -1.0126 -0.1223
  301TIP3    H2  910   5.443   2.683   4.786  0.3968 -1.0404 -0.3053
  302TIP3   OH2  911   5.584   4.510   2.000 -0.0170 -0.2558  0.1439
  302TIP3    H1  912   5.497   4.511   1.960  0.0287  0.2972  0.0485
  302TIP3    H2  913   5.639   4.463   1.937 -0.3704 -1.1470  0.4838
  303TIP3   OH2  914   5.597   4.739   2.158 -0.6563  0.4238  0.0402
  303TIP3    H1  915   5.647   4.810   2.118  0.9594 -0.0557  1.1350
  303TIP3    H2  916   5.616   4.663   2.103 -0.9815  0.4425 -0.1027
  304TIP3   OH2  917   5.071   0.873   1.691  0.3907 -0.5678 -0.4012
  304TIP3    H1  918   5.120   0.955   1.684 -0.9049  0.8301  3.6580
  304TIP3    H2  919   5.129   0.815   1.741  0.2429 -1.1283 -0.8797
  305TIP3   OH2  920   1.639   1.070   4.133 -0.2663  0.3963  0.5133
  305TIP3    H1  921   1.580   1.016   4.185 -0.9856 -0.1107 -0.7553
  305TIP3    H2  922   1.679   1.009   4.071 -1.0438  1.2519 -0.9095
  306TIP3   OH2  923   4.018  -0.035   3.045  0.3796 -0.5510  0.1300
  306TIP3    H1  924   4.018   0.038   2.983  2.9080 -1.7952 -1.5445
  306TIP3    H2  925   4.008   0.005   3.131  0.7842  1.6685 -0.8000
  307TIP3   OH2  926   5.042   5.955   1.654  0.4306 -0.3345 -0.1245
  307TIP3    H1  927   4.987   5.951   1.732  0.5426  1.5427  0.1016
  307TIP3    H2  928   5.083   6.042   1.658  1.7117 -0.8381 -1.4224
  308TIP3   OH2  929   3.575   1.846   0.856  0.2594 -0.4768  0.5039
  308TIP3    H1  930   3.487   1.830   0.890 -0.5413  1.2557 -0.6167
  308TIP3    H2  931   3.572   1.812   0.766  0.3373  0.6458  0.0613
  309TIP3   OH2  932   1.788   1.629   2.865 -0.1689  0.0095  0.7346
  309TIP3    H1  933   1.735   1.565   2.912 -0.6808 -0.9994 -1.1228
  309TIP3    H2  934   1.840   1.577   2.803 -1.8928  1.3865 -2.0890
  310TIP3   OH2  935   5.649   3.425   2.169 -1.3957  0.3779 -0.3129
  310TIP3    H1  936   5.698   3.344   2.153  0.1840  1.4129 -1.0415
  310TIP3    H2  937   5.581   3.401   2.231  0.4468 -1.0286  1.2850
  311TIP3   OH2  938   0.726   3.410   1.588 -0.0378  0.0019 -0.7863
  311TIP3    H1  939   0.669   3.334   1.575  1.6991 -1.5034  0.0536
  311TIP3    H2  940   0.805   3.389   1.538  1.1592  0.4461  0.8594
  312TIP3   OH2  941   1.425   4.800   4.661 -0.1077 -0.4746  0.4512
  312TIP3    H1  942   1.473   4.863   4.607  2.7248 -0.3934  2.8031
  312TIP3    H2  943   1.492   4.738   4.690 -2.1166 -2.4031  1.2756
  313TIP3   OH2  944   0.516   2.392   1.422 -0.0339 -0.3597  0.6254
  313TIP3    H1  945   0.495   2.476   1.463  1.5330  0.1600  0.4189
  313TIP3    H2  946   0.570   2.347   1.486  0.1762 -0.6869  0.2230
  314TIP3   OH2  947   3.799   3.522   1.479 -0.4503 -0.2602  0.1248
  314TIP3    H1  948   3.791   3.427   1.481 -0.4165 -0.2644  0.0662
  314TIP3    H2  949   3.786   3.545   1.387  0.5526 -0.3017 -0.0412
  315TIP3   OH2  950   6.293   5.659   1.194 -0.2850  0.7173  0.2934
  315TIP3    H1  951   6.211   5.614   1.174 -1.0529  1.9746  0.4851
  315TIP3    H2  952   6.362   5.598   1.167 -1.2814 -0.1235 -0.4060
  316TIP3   OH2  953   2.561   5.087   2.655  0.3624  0.2428 -0.5354
  316TIP3    H1  954   2.482   5.134   2.630  0.6635 -0.0761 -2.2088
  316TIP3    H2  955   2.630   5.125   2.600  1.2341  0.0468  0.3986
  317TIP3   OH2  956   0.599   1.845   1.032 -0.2862 -0.2194  0.3713
  317TIP3    H1  957   0.528   1.826   0.971  1.6239 -1.7076 -1.5306
  317TIP3    H2  958   0.641   1.923   0.995  1.6941 -1.8924 -1.1141
  318TIP3   OH2  959   5.725   0.328   2.148 -0.2958 -0.2793  0.6233
  318TIP3    H1  960   5.718   0.234   2.128  1.2848 -0.4445  0.7876
  318TIP3    H2  961   5.659   0.342   2.217 -0.9941 -1.1184  0.1551
  319TIP3   OH2  962   1.264   4.961   0.155  0.2788 -0.1814 -0.4861
  319TIP3    H1  963   1.232   4.906   0.084  1.9941 -0.3917 -1.1413
  319TIP3    H2  964   1.235   5.049   0.131 -2.9169 -0.7307  0.8224
  320TIP3   OH2  965   4.478   2.462   5.101  0.1691  0.0077 -0.1433
  320TIP3    H1  966   4.402   2.405   5.098  0.9738 -1.0987 -0.3247
  320TIP3    H2  967   4.502   2.466   5.194 -1.5670  2.4392  0.3121
  321TIP3   OH2  968   0.872   1.754   2.002 -0.4784  0.1339  0.5984
  321TIP3    H1  969   0.826   1.672   2.021 -0.3245  0.0341  0.5451
  321TIP3    H2  970   0.809   1.822   2.023 -0.4982  0.0106  0.9510
  322TIP3   OH2  971   4.504   1.383   2.999  0.5100 -0.0207  0.6422
  322TIP3    H1  972   4.557   1.393   2.920 -1.1037 -0.7886 -0.6253
  322TIP3    H2  973   4.563   1.402   3.071  2.0518  0.7184 -0.7522
  323TIP3   OH2  974   3.629   1.463   0.426  0.8736 -0.6589  0.1138
  323TIP3    H1  975   3.608   1.392   0.365  2.1447  0.3204 -1.5530
  323TIP3    H2  976   3.544   1.495   0.455  0.2701 -2.2505  0.1963
  324TIP3   OH2  977   2.005   4.402   3.658 -0.1446  0.4918 -0.0353
  324TIP3    H1  978   1.964   4.400   3.744 -0.7721 -1.2688 -0.3280
  324TIP3    H2  979   2.032   4.493   3.646 -1.2854  1.0670  1.4278
  325TIP3   OH2  980   4.533   5.950   4.711 -0.4547 -0.4637 -0.1115
  325TIP3    H1  981   4.608   5.906   4.753  1.8209 -0.0934 -3.4353
  325TIP3    H2  982   4.569   6.033   4.680 -2.4095 -0.0216 -1.3276
  326TIP3   OH2  983   2.923   0.954   1.884 -0.3333 -0.1531  0.2230
  326TIP3    H1  984   2.879   0.869   1.879  0.1174 -0.3615 -0.3836
  326TIP3    H2  985   2.930   0.973   1.977 -1.3856 -0.2792  0.3480
  327TIP3   OH2  986   1.192   3.397   3.066 -0.2912  0.3583 -0.5001
  327TIP3    H1  987   1.123   3.463   3.063 -1.1744 -0.5602 -1.0738
  327TIP3    H2  988   1.266   3.442   3.106 -0.8161  1.7399 -0.9996
  328TIP3   OH2  989   3.935   0.971   5.023  0.9648 -0.0227  0.7630
  328TIP3    H1  990   3.909   0.923   4.945  0.6802 -0.5737  1.1931
  328TIP3    H2  991   3.994   0.912   5.070  0.8206  0.1417  1.1612
  329TIP3   OH2  992   5.551   3.378   1.121 -0.3577 -0.0848 -0.0757
  329TIP3    H1  993   5.599   3.346   1.045  1.0031 -0.0923  0.7535
  329TIP3    H2  994   5.501   3.303   1.152  1.1871 -0.8638  0.6154
  330TIP3   OH2  995   6.141   4.409   3.614 -0.0883 -0.7569  0.2982
  330TIP3    H1  996   6.169   4.387   3.525 -0.3287  1.2404 -0.3317
  330TIP3    H2  997   6.052   4.444   3.603 -0.0637 -0.3471  1.3020
  331TIP3   OH2  998   5.168   4.470   2.815  0.1893 -0.3814  0.3735
  331TIP3    H1  999   5.079   4.506   2.821  1.0159  1.8775 -0.0553
  331TIP3    H2 1000   5.183   4.458   2.721 -0.1960 -2.3439  0.5126
  332TIP3   OH2 1001   3.586   5.717   0.731  0.1762  0.0058 -0.0896
  332TIP3    H1 1002   3.614   5.632   0.699  0.9331  0.3319 -0.3122
  332TIP3    H2 1003   3.590   5.774   0.655  2.2391  0.8474  0.5883
  333TIP3   OH2 1004   3.326   5.309   1.015 -0.4486 -0.0677 -0.8549
  333TIP3    H1 1005   3.324   5.358   0.932 -1.5715 -0.0191 -0.8091
  333TIP3    H2 1006   3.303   5.374   1.081  1.4868  0.1570 -0.3331
  334TIP3   OH2 1007   2.568   0.982   2.102  0.2061 -0.0357  0.0985
  334TIP3    H1 1008   2.538   0.934   2.179  0.0285 -0.4482 -0.2251
  334TIP3    H2 1009   2.556   0.921   2.029 -0.3859  0.6389 -0.3783
  335TIP3   OH2 1010   2.571   3.401   4.884 -0.5047  0.9273  0.4452
  335TIP3    H1 1011   2.586   3.486   4.842  0.2603  0.2793 -0.6336
  335TIP3    H2 1012   2.654   3.380   4.926 -1.0601  1.2515  1.7646
  336TIP3   OH2 1013   1.616   0.128   2.806 -0.3168 -0.1144  0.5736
  336TIP3    H1 1014   1.652   0.217   2.806 -0.3608 -0.0961  0.7619
  336TIP3    H2 1015   1.585   0.115   2.716 -4.1126  1.6202  1.4125
  337TIP3   OH2 1016   5.585   2.683   2.136 -0.0584 -0.1608 -1.0030
  337TIP3    H1 1017   5.594   2.645   2.048  0.3968 -1.6128 -0.3572
  337TIP3    H2 1018   5.510   2.743   2.128  0.5529  0.4589 -2.6008
  338TIP3   OH2 1019   5.863   1.130   2.302  0.1500  0.0685  0.5295
  338TIP3    H1 1020   5.852   1.081   2.384  2.1659  1.8387  1.9608
  338TIP3    H2 1021   5.792   1.099   2.246 -2.6143  0.2221  3.6420
  339TIP3   OH2 1022   0.079   1.061   3.787  0.0130  0.0630  0.1844
  339TIP3    H1 1023   0.118   1.141   3.750  0.2354  0.1379  0.5717
  339TIP3    H2 1024   0.138   0.991   3.758 -0.3267 -0.0031 -0.3780
  340TIP3   OH2 1025   4.827   1.744   2.647 -0.0556  0.6008  0.4869
  340TIP3    H1 1026   4.792   1.722   2.733  1.1286 -2.1601  0.4021
  340TIP3    H2 1027   4.917   1.710   2.649  0.0267  0.5225 -1.7783
  341TIP3   OH2 1028   3.810   4.566   3.293  0.6578 -0.0511  0.1042
  341TIP3    H1 1029   3.894   4.577   3.336 -0.4351  1.7229  1.9413
  341TIP3    H2 1030   3.785   4.654   3.265  0.1650 -0.7919 -2.0160
  342TIP3   OH2 1031   1.809   0.154   3.465 -0.8640  0.3975  0.2757
  342TIP3    H1 1032   1.868   0.097   3.416  0.1957  1.8973 -0.2635
  342TIP3    H2 1033   1.790   0.106   3.545  1.0048 -0.2137  0.4085
  343TIP3   OH2 1034   4.811   1.988   2.144  0.1643  0.5377  0.0820
  343TIP3    H1 1035   4.888   2.044   2.146  0.4935  0.1989 -1.6510
  343TIP3    H2 1036   4.818   1.934   2.223  2.0293  0.0966 -0.3474
  344TIP3   OH2 1037   1.221   4.831   0.652  0.1522  0.5155  0.3053
  344TIP3    H1 1038   1.196   4.746   0.688 -0.8422  0.5441 -0.2834
  344TIP3    H2 1039   1.220   4.819   0.557 -1.7368  1.5954  0.1264
  345TIP3   OH2 1040   0.919   1.726   1.094  0.6504 -0.5155  0.0995
  345TIP3    H1 1041   0.966   1.745   1.175  1.0740 -2.6201  0.4205
  345TIP3    H2 1042   0.833   1.696   1.122  0.2025  0.3320 -0.3326
  346TIP3   OH2 1043   4.776   5.915   2.365  0.2243 -0.5170  0.6433
  346TIP3    H1 1044   4.794   5.839   2.310 -0.4637 -0.6581  0.6075
  346TIP3    H2 1045   4.755   5.879   2.450  0.5028 -0.3344  0.7916
  347TIP3   OH2 1046   4.919   4.273   2.409  0.3300 -0.0483  0.1605
  347TIP3    H1 1047   4.952   4.360   2.388 -0.4937  0.3613  0.5162
  347TIP3    H2 1048   4.967   4.214   2.351  0.2404  0.7392 -0.7321
  348TIP3   OH2 1049   5.806   5.603   1.402  0.9056 -0.3503 -0.2264
  348TIP3    H1 1050   5.781   5.518   1.367 -1.7241 -0.1360  0.9184
  348TIP3    H2 1051   5.841   5.584   1.489 -2.1299 -0.2110  1.1625
  349TIP3   OH2 1052   5.440   1.980   1.305  0.0048  0.3337  0.4770
  349TIP3    H1 1053   5.428   1.946   1.217  1.3884 -2.2084  1.1621
  349TIP3    H2 1054   5.357   1.964   1.349  0.0021 -0.4158  0.2176
  350TIP3   OH2 1055   5.847   5.309   3.395  0.2505 -0.0738 -0.0557
  350TIP3    H1 1056   5.854   5.271   3.483 -3.5055 -1.0245 -0.0109
  350TIP3    H2 1057   5.804   5.242   3.342 -1.3515  1.9284 -1.4975
  351TIP3   OH2 1058   3.326   5.550   0.495 -0.1171 -0.1983  0.6431
  351TIP3    H1 1059   3.385   5.475   0.507 -0.7045 -0.7951 -0.0978
  351TIP3    H2 1060   3.238   5.513   0.502 -0.4125  0.3973  0.1743
  352TIP3   OH2 1061   3.454   4.508   1.741 -0.7226  0.1161 -0.8728
  352TIP3    H1 1062   3.423   4.429   1.697  0.2649 -0.1676 -1.0942
  352TIP3    H2 1063   3.542   4.485   1.772 -1.1793  0.4662  0.8316
  353TIP3   OH2 1064   0.910   2.198   0.266 -0.9278 -0.4113 -0.2763
  353TIP3    H1 1065   0.985   2.253   0.244 -1.8304  0.1695 -2.1750
  353TIP3    H2 1066   0.863   2.247   0.334 -0.2345 -0.1929  0.0475
  354TIP3   OH2 1067   2.863   2.527   2.297  0.0928  0.4152 -0.2145
  354TIP3    H1 1068   2.955   2.549   2.307  0.3802 -0.5388 -0.6197
  354TIP3    H2 1069   2.818   2.611   2.286  0.7110  0.9959  1.4316
  355TIP3   OH2 1070   4.353   0.997   0.261 -0.4602 -0.4995 -0.0613
  355TIP3    H1 1071   4.363   0.906   0.235  0.2684 -0.3160 -0.4503
  355TIP3    H2 1072   4.383   0.999   0.352 -0.7752 -0.6975  0.0507
  356TIP3   OH2 1073   5.320   0.550   2.721 -0.2159  0.4976 -0.2183
  356TIP3    H1 1074   5.338   0.599   2.801 -0.6752 -1.4051  1.1218
  356TIP3    H2 1075   5.225   0.539   2.721 -0.1334 -0.2618 -0.5517
  357TIP3   OH2 1076   0.150   3.535   5.177  0.0872  0.1757 -0.2499
  357TIP3    H1 1077   0.087   3.473   5.215  0.1536  0.1949 -0.1080
  357TIP3    H2 1078   0.206   3.481   5.122  0.2380  0.0861 -0.0093
  358TIP3   OH2 1079   4.209   5.441   3.067  0.7143  0.4205  0.1368
  358TIP3    H1 1080   4.290   5.403   3.100  1.4869  1.0465 -0.9833
  358TIP3    H2 1081   4.219   5.439   2.972 -0.7158  0.2411 -0.0357
  359TIP3   OH2 1082   3.297   4.700   0.322 -0.4332  0.2104  0.0373
  359TIP3    H1 1083   3.365   4.732   0.263  0.1415 -1.6033 -0.3410
  359TIP3    H2 1084   3.331   4.718   0.410  0.4584 -0.4806 -0.1496
  360TIP3   OH2 1085   2.077   4.653   3.651 -0.0618  0.5600 -0.2168
  360TIP3    H1 1086   2.119   4.735   3.625  1.0286  0.5434  1.3543
  360TIP3    H2 1087   2.062   4.663   3.745  0.4114 -1.1804  0.0734
  361TIP3   OH2 1088   3.461   2.689   1.167  0.2432  0.5650  0.1880
  361TIP3    H1 1089   3.547   2.659   1.196 -0.4625 -1.0607  0.7541
  361TIP3    H2 1090   3.429   2.618   1.111 -0.7203  1.1397 -0.0152
  362TIP3   OH2 1091   5.807   3.961   2.212  0.0878 -0.0764 -0.4231
  362TIP3    H1 1092   5.746   3.925   2.148 -0.4330 -0.0075  0.0373
  362TIP3    H2 1093   5.824   4.050   2.180 -1.8153  0.7297  0.6417
  363TIP3   OH2 1094   4.883   1.413   3.940  0.2720  0.1615  0.3994
  363TIP3    H1 1095   4.869   1.383   3.850 -0.2255  0.2657  0.4353
  363TIP3    H2 1096   4.955   1.359   3.973  1.5748  1.2364 -0.5831
  364TIP3   OH2 1097   5.681   5.460   2.535  0.2779 -0.3553 -0.5201
  364TIP3    H1 1098   5.762   5.462   2.484  0.5802 -0.7488 -0.0666
  364TIP3    H2 1099   5.614   5.433   2.474  0.1651  1.5979 -1.3316
  365TIP3   OH2 1100   1.243   5.690   3.617 -0.3616  0.2737 -0.2216
  365TIP3    H1 1101   1.169   5.691   3.557 -0.5105  0.0580 -0.0445
  365TIP3    H2 1102   1.244   5.777   3.656 -0.6351  0.2209 -0.0901
  366TIP3   OH2 1103   1.458   4.396   3.244 -0.0612 -0.4102 -0.3688
  366TIP3    H1 1104   1.442   4.485   3.275  0.0168 -0.0472 -1.3337
  366TIP3    H2 1105   1.394   4.383   3.174 -0.5131 -1.3599  0.2114
  367TIP3   OH2 1106   6.055   5.540   1.107  0.0729 -0.4700  0.3867
  367TIP3    H1 1107   6.027   5.629   1.086 -0.6292  0.0255  3.1108
  367TIP3    H2 1108   5.977   5.487   1.094 -0.1485 -0.2941  0.9793
  368TIP3   OH2 1109   5.846   0.996   4.533  0.3857 -0.2407 -0.4535
  368TIP3    H1 1110   5.881   1.055   4.600 -0.7359 -0.6823  0.5536
  368TIP3    H2 1111   5.874   1.034   4.450  1.7752  0.3394  0.2540
  369TIP3   OH2 1112   2.231   5.950   0.162  0.0711 -0.5007  0.2319
  369TIP3    H1 1113   2.226   5.889   0.236  0.7036 -0.2884  0.4631
  369TIP3    H2 1114   2.304   5.917   0.110  0.1184 -0.2062  0.1125
  370TIP3   OH2 1115   5.063   3.599   1.987 -0.4249 -0.2003  0.2015
  370TIP3    H1 1116   4.982   3.551   2.003  0.7511 -3.0468 -1.5329
  370TIP3    H2 1117   5.130   3.547   2.032  0.7015  0.9692 -0.0798
  371TIP3   OH2 1118   0.263   1.964   3.959 -0.2089 -0.3327  0.2777
  371TIP3    H1 1119   0.247   1.944   3.867  1.5761  1.7273 -0.5618
  371TIP3    H2 1120   0.251   2.059   3.966  0.4909 -0.3311  1.9844
  372TIP3   OH2 1121   1.506   5.555   4.978  0.1431  0.1578  0.2310
  372TIP3    H1 1122   1.483   5.644   4.952 -0.2999  0.1439  0.5569
  372TIP3    H2 1123   1.423   5.515   5.004  0.5489  0.1887  1.6892
  373TIP3   OH2 1124   3.741   3.418   4.973 -0.0224  0.7092  0.2041
  373TIP3    H1 1125   3.688   3.436   5.050 -1.8468  1.1234 -1.0697
  373TIP3    H2 1126   3.685   3.363   4.918  1.0543  0.7775 -0.9980
  374TIP3   OH2 1127   6.129   1.376   0.701 -0.1752  0.0526 -0.4481
  374TIP3    H1 1128   6.125   1.307   0.768  1.7729  0.4687  0.1468
  374TIP3    H2 1129   6.189   1.342   0.635 -0.5895  0.4470 -1.0333
  375TIP3   OH2 1130   0.797   3.898   1.062 -0.2588 -0.3598 -0.1130
  375TIP3    H1 1131   0.866   3.865   1.006 -1.3697  0.0089 -1.7737
  375TIP3    H2 1132   0.730   3.931   1.002 -2.3524 -1.6114  1.3578
  376TIP3   OH2 1133   3.281   2.390   2.087  0.6252 -0.1621 -0.5457
  376TIP3    H1 1134   3.232   2.325   2.036  0.5275 -0.4942 -0.0351
  376TIP3    H2 1135   3.358   2.343   2.118  0.9583  0.1896 -0.8320
  377TIP3   OH2 1136   5.812   5.619   1.975 -0.4801 -0.2411  0.1526
  377TIP3    H1 1137   5.897   5.633   1.934  0.6211  0.2071  2.4168
  377TIP3    H2 1138   5.774   5.706   1.981 -0.9400 -0.3895 -0.4733
  378TIP3   OH2 1139   4.062   0.943   2.308  0.1394 -0.2573 -0.4289
  378TIP3    H1 1140   3.989   0.941   2.245  0.6288 -2.9312 -1.0453
  378TIP3    H2 1141   4.041   0.873   2.370  0.0341  1.8559  2.0537
  379TIP3   OH2 1142   5.479   5.280   4.796  0.4440  0.0941 -0.2238
  379TIP3    H1 1143   5.520   5.210   4.849 -1.1529 -2.5487 -2.2122
  379TIP3    H2 1144   5.553   5.331   4.763  2.0011 -2.5522 -1.1275
  380TIP3   OH2 1145   4.081   5.762   3.918  0.1452 -0.0864  0.2965
  380TIP3    H1 1146   4.056   5.706   3.844  2.6525  0.5490 -1.1762
  380TIP3    H2 1147   4.090   5.850   3.880 -0.2007  0.6175  1.7624
  381TIP3   OH2 1148   4.353   4.591   4.261  0.2119 -0.2732 -0.1217
  381TIP3    H1 1149   4.337   4.624   4.349  0.3030  0.5593 -0.4063
  381TIP3    H2 1150   4.272   4.545   4.237  0.6167 -1.5151  0.8244
  382TIP3   OH2 1151   3.089   0.668   1.125  0.3647  0.2344 -0.7403
  382TIP3    H1 1152   3.104   0.615   1.204 -0.8905  0.4241 -0.3535
  382TIP3    H2 1153   3.041   0.744   1.156 -0.0475  0.3690 -1.6779
  383TIP3   OH2 1154   1.285   1.762   0.469  0.3872 -0.1462 -0.6455
  383TIP3    H1 1155   1.377   1.762   0.442  0.5258 -0.1168 -0.1913
  383TIP3    H2 1156   1.237   1.792   0.392  0.6904 -0.8239 -1.1077
  384TIP3   OH2 1157   2.759   3.865   0.295 -0.0160  0.2852  0.1392
  384TIP3    H1 1158   2.809   3.810   0.235  0.0659  0.7978 -0.2672
  384TIP3    H2 1159   2.795   3.952   0.283 -0.4587  0.5115  0.4421
  385TIP3   OH2 1160   2.947   5.575   2.207  0.3860  0.2657  0.0296
  385TIP3    H1 1161   2.895   5.580   2.127  0.0762  0.1157  0.2196
  385TIP3    H2 1162   3.016   5.512   2.188  0.9115  0.9687 -0.4556
  386TIP3   OH2 1163   4.660   2.045   1.761 -0.3482  0.0047 -0.6299
  386TIP3    H1 1164   4.620   2.022   1.844 -0.6033  1.5040 -0.3184
  386TIP3    H2 1165   4.740   2.092   1.785 -0.4307  0.4604 -1.2129
  387TIP3   OH2 1166   3.095   2.884   3.240 -0.5483  0.0780  0.1723
  387TIP3    H1 1167   3.142   2.805   3.214  0.2661  0.3745  0.6789
  387TIP3    H2 1168   3.142   2.914   3.318 -1.0357  0.8866  0.1594
  388TIP3   OH2 1169   3.520   4.698   0.157 -0.0434 -0.1629 -0.4330
  388TIP3    H1 1170   3.460   4.705   0.082 -2.5751 -1.9050  1.2769
  388TIP3    H2 1171   3.544   4.605   0.159 -0.9148 -0.3837  1.4998
  389TIP3   OH2 1172   1.708   4.778   0.440  0.2577 -0.1299  0.1707
  389TIP3    H1 1173   1.671   4.705   0.490 -0.0724  0.9214  1.4977
  389TIP3    H2 1174   1.717   4.743   0.351 -0.5480 -1.5651  0.6163
  390TIP3   OH2 1175   4.387   3.797   0.356 -0.0573 -0.1829 -0.3434
  390TIP3    H1 1176   4.354   3.709   0.372  0.7146 -0.6546 -1.2687
  390TIP3    H2 1177   4.468   3.785   0.308  0.0262  1.0367 -0.5566
  391TIP3   OH2 1178   1.320   5.814   4.654  0.5096 -0.3669 -0.6737
  391TIP3    H1 1179   1.337   5.821   4.748  1.4798 -0.2228 -0.8492
  391TIP3    H2 1180   1.228   5.790   4.648  0.2572  0.2820  0.3007
  392TIP3   OH2 1181   3.018   0.889   2.544  0.3001 -0.2991 -0.8002
  392TIP3    H1 1182   3.109   0.872   2.571  0.3169  0.9207  0.0059
  392TIP3    H2 1183   2.977   0.924   2.623 -1.8356 -3.8739 -0.0766
  393TIP3   OH2 1184   3.245   3.343   3.611 -0.4302  0.5654 -0.3965
  393TIP3    H1 1185   3.175   3.280   3.626  0.3751 -0.1524  0.4932
  393TIP3    H2 1186   3.201   3.427   3.600 -1.5722 -0.1912 -2.1477
  394TIP3   OH2 1187   5.585   0.764   1.863  0.0943 -0.3326  0.4467
  394TIP3    H1 1188   5.536   0.738   1.941 -0.0646 -0.8030  0.1968
  394TIP3    H2 1189   5.527   0.825   1.817 -0.4575 -1.1985 -0.0573
  395TIP3   OH2 1190   5.794   4.888   4.759  0.0882 -0.0248  0.2935
  395TIP3    H1 1191   5.832   4.812   4.715  0.9577 -0.2282  1.3529
  395TIP3    H2 1192   5.714   4.907   4.710  0.4519 -0.9185 -0.6728
  396TIP3   OH2 1193   1.096   1.885   0.087 -0.3441  0.0748  0.1339
  396TIP3    H1 1194   1.138   1.799   0.088 -0.5514 -0.0221  0.8693
  396TIP3    H2 1195   1.062   1.897   0.176 -0.6461  0.7556 -0.0630
  397TIP3   OH2 1196   2.865  -0.017   1.984 -0.5077  0.3215  0.8534
  397TIP3    H1 1197   2.925   0.050   2.016 -0.5323  0.7866 -0.0451
  397TIP3    H2 1198   2.784   0.031   1.965 -0.7077 -0.0602  0.7271
  398TIP3   OH2 1199   1.112   0.428   3.968  0.2735 -0.0438  0.5462
  398TIP3    H1 1200   1.040   0.453   3.910  0.9001 -0.2673 -0.3452
  398TIP3    H2 1201   1.090   0.339   3.995  0.9905 -0.7351 -1.0198
  399TIP3   OH2 1202   1.513   4.809   0.154 -0.1779 -0.1291 -0.2435
  399TIP3    H1 1203   1.543   4.825   0.065 -1.4283 -2.4874 -1.1639
  399TIP3    H2 1204   1.458   4.885   0.175  1.7870  1.4836 -0.6105
  400TIP3   OH2 1205   2.986   1.767   2.751 -0.4936 -0.1583  0.5076
  400TIP3    H1 1206   2.939   1.703   2.698 -2.1447 -0.4825  2.2617
  400TIP3    H2 1207   3.077   1.759   2.722 -1.3390  0.0488 -2.5789
  401TIP3   OH2 1208   2.357   3.844   4.934  0.0910  0.1080  0.4374
  401TIP3    H1 1209   2.380   3.937   4.935  0.9160 -0.0800  1.4725
  401TIP3    H2 1210   2.442   3.799   4.934 -0.2827 -0.6648 -1.1234
  402TIP3   OH2 1211   2.100   3.186   1.158 -0.1468 -0.6514  0.0027
  402TIP3    H1 1212   2.006   3.175   1.144 -0.4900  0.4595  1.1745
  402TIP3    H2 1213   2.133   3.221   1.075 -0.7578 -1.0871 -0.4286
  403TIP3   OH2 1214   0.972   4.597   1.589  0.2015  0.3268 -0.2472
  403TIP3    H1 1215   1.049   4.546   1.614  1.0668  2.2224  1.2339
  403TIP3    H2 1216   0.987   4.620   1.497 -0.1192 -1.8325 -0.8835
  404TIP3   OH2 1217   1.423   3.679   1.006  0.1366 -0.0146  0.1048
  404TIP3    H1 1218   1.421   3.727   0.923  1.5941 -0.8291 -0.4279
  404TIP3    H2 1219   1.497   3.717   1.054  0.1269 -0.4491  0.4707
  405TIP3   OH2 1220   1.277   1.178   2.531 -0.2099  0.2845 -0.0220
  405TIP3    H1 1221   1.334   1.113   2.570 -2.6295 -2.2445 -0.4316
  405TIP3    H2 1222   1.335   1.232   2.477  2.0158 -0.9574  1.0407
  406TIP3   OH2 1223   2.004   2.927   0.534  0.0501 -0.2748 -0.3201
  406TIP3    H1 1224   2.091   2.902   0.565 -0.2009 -0.0380  0.5912
  406TIP3    H2 1225   2.011   3.021   0.518 -0.4673  0.0699  1.2985
  407TIP3   OH2 1226   5.208   4.450   3.077 -0.0058  0.3438  0.5799
  407TIP3    H1 1227   5.186   4.440   2.984  0.7467  0.0901  0.4230
  407TIP3    H2 1228   5.227   4.361   3.106  2.5488  0.7137  0.2554
  408TIP3   OH2 1229   3.281   3.617   0.992 -0.3395  0.6730 -0.5822
  408TIP3    H1 1230   3.335   3.643   0.917  1.5456 -1.2690 -0.0206
  408TIP3    H2 1231   3.240   3.535   0.964 -0.6821  0.6314  0.0388
  409TIP3   OH2 1232   0.846   5.300   3.197  0.0650  0.0823  0.0344
  409TIP3    H1 1233   0.837   5.208   3.170  0.7211 -0.1015  0.4340
  409TIP3    H2 1234   0.765   5.342   3.165 -0.0673 -0.5472 -0.4847
  410TIP3   OH2 1235   2.010   2.225   4.888  0.3175 -0.6747 -0.5284
  410TIP3    H1 1236   1.983   2.221   4.980  1.1791 -1.0053 -0.2758
  410TIP3    H2 1237   2.057   2.308   4.880 -0.3726 -0.3026 -0.8613
  411TIP3   OH2 1238   3.962   3.977   1.021  0.5228 -0.3214  0.1856
  411TIP3    H1 1239   3.968   4.011   0.932  0.1561  0.9553  0.6239
  411TIP3    H2 1240   3.972   3.882   1.012  1.3230 -0.1307 -1.1139
  412TIP3   OH2 1241   3.760   2.861   1.275  0.3345  0.1682  0.0392
  412TIP3    H1 1242   3.713   2.912   1.209  0.3583 -0.2495 -0.3122
  412TIP3    H2 1243   3.766   2.773   1.236  0.2281 -0.1162  0.6578
  413TIP3   OH2 1244   2.250   5.826   3.149  0.1821 -0.2834 -0.0440
  413TIP3    H1 1245   2.181   5.775   3.106 -0.0737 -0.0627  0.0977
  413TIP3    H2 1246   2.216   5.916   3.150  0.1218 -0.3074  0.7331
  414TIP3   OH2 1247   0.066   1.896   3.638  0.1919 -0.4717 -0.5183
  414TIP3    H1 1248   0.047   1.850   3.720 -0.8206  0.9555  0.0870
  414TIP3    H2 1249   0.132   1.841   3.595  0.9111 -1.1607  1.3335
  415TIP3   OH2 1250   0.049   4.078   4.659 -0.0256 -0.1973 -0.7148
  415TIP3    H1 1251   0.034   4.079   4.753  1.8862 -0.1075 -0.3736
  415TIP3    H2 1252  -0.036   4.100   4.621 -0.8611 -0.3463  0.9641
  416TIP3   OH2 1253   0.696   3.301   4.139 -0.0510 -0.0515  0.1632
  416TIP3    H1 1254   0.695   3.212   4.104 -0.1501  0.4864 -1.2518
  416TIP3    H2 1255   0.605   3.319   4.161  0.0251 -0.4256  0.8074
  417TIP3   OH2 1256   0.938   0.197   4.629  0.0461 -0.4925  0.0034
  417TIP3    H1 1257   1.030   0.216   4.649 -0.0187 -0.5226  0.3296
  417TIP3    H2 1258   0.940   0.113   4.583  0.3330  0.2392 -1.3915
  418TIP3   OH2 1259   2.454   0.891   1.733 -0.3901 -0.2916 -0.0817
  418TIP3    H1 1260   2.468   0.965   1.674  0.3429  1.3626  2.0397
  418TIP3    H2 1261   2.406   0.928   1.807 -1.5183 -2.3428  0.2982
  419TIP3   OH2 1262   6.389   3.103   1.045 -0.3539  0.3755 -0.2490
  419TIP3    H1 1263   6.362   3.080   0.956 -0.8909  0.7171 -0.1793
  419TIP3    H2 1264   6.327   3.172   1.072  0.8138  1.4503 -0.2223
  420TIP3   OH2 1265   3.840   1.085   1.105  0.6030 -0.4692 -0.3067
  420TIP3    H1 1266   3.818   0.992   1.102 -2.5933  0.1860 -0.8891
  420TIP3    H2 1267   3.758   1.129   1.085  1.4185  2.5682  2.3029
  421TIP3   OH2 1268   2.831   2.204   0.616 -0.0769 -0.1942 -0.6845
  421TIP3    H1 1269   2.887   2.222   0.540  1.1599  2.5658  0.7224
  421TIP3    H2 1270   2.751   2.254   0.599  0.1180  0.2614 -0.2824
  422TIP3   OH2 1271   5.959   1.870   4.263  0.2492  0.1517  0.3007
  422TIP3    H1 1272   6.038   1.918   4.238 -0.0218  0.1271 -0.6609
  422TIP3    H2 1273   5.931   1.912   4.344  0.8561  0.6303  0.2745
  423TIP3   OH2 1274   5.259   3.411   2.044 -0.0024 -0.2840 -0.0761
  423TIP3    H1 1275   5.312   3.426   1.966  1.4431  0.0871  0.9316
  423TIP3    H2 1276   5.225   3.322   2.033 -0.0650 -0.1267 -1.2573
  424TIP3   OH2 1277   1.247   2.047   4.339  0.9425  0.2929  0.5027
  424TIP3    H1 1278   1.235   1.952   4.333 -0.6123  0.5340 -1.2717
  424TIP3    H2 1279   1.232   2.068   4.431 -2.1523 -0.8498  0.3718
  425TIP3   OH2 1280   0.244   1.287   1.927 -0.1433 -0.2753 -0.2193
  425TIP3    H1 1281   0.224   1.198   1.897 -0.6643 -0.0874 -0.4437
  425TIP3    H2 1282   0.212   1.344   1.857  0.6658  0.0711 -0.3198
  426TIP3   OH2 1283   5.301   4.437   2.377 -0.3015 -0.0574  0.3703
  426TIP3    H1 1284   5.276   4.525   2.405 -0.3071 -0.0716  0.4097
  426TIP3    H2 1285   5.230   4.411   2.317  0.8817  0.9066 -1.5560
  427TIP3   OH2 1286   5.379   4.234   4.846 -0.2736 -0.1119 -0.8393
  427TIP3    H1 1287   5.303   4.273   4.803 -1.4689 -0.9728  0.3890
  427TIP3    H2 1288   5.387   4.148   4.807  2.0709  1.0590 -3.2086
  428TIP3   OH2 1289   2.887   5.767   4.481  0.2831  0.5221 -0.0627
  428TIP3    H1 1290   2.900   5.682   4.437  2.3049  0.3428  0.7786
  428TIP3    H2 1291   2.870   5.828   4.409  1.2274 -0.1844 -0.9287
  429TIP3   OH2 1292   0.731   1.151   4.880 -0.0652  0.3469 -0.2710
  429TIP3    H1 1293   0.756   1.085   4.816  0.3048  0.1414  0.0874
  429TIP3    H2 1294   0.711   1.102   4.960 -0.9744  0.5574 -0.3510
  430TIP3   OH2 1295   4.434   0.674   2.142  0.4957  0.1305 -0.3191
  430TIP3    H1 1296   4.493   0.703   2.072  0.7337  1.3855  0.3674
  430TIP3    H2 1297   4.407   0.756   2.185 -0.3099 -0.5617  0.5164
  431TIP3   OH2 1298   4.363   4.841   4.861  0.0892  0.3665  0.4369
  431TIP3    H1 1299   4.337   4.900   4.933  1.5385  1.3528  0.1994
  431TIP3    H2 1300   4.458   4.836   4.868  0.0173 -2.1562  0.5476
  432TIP3   OH2 1301   1.428   0.377   4.339 -0.0803 -0.2535 -0.2041
  432TIP3    H1 1302   1.347   0.327   4.340 -0.5187  0.3608  2.1172
  432TIP3    H2 1303   1.497   0.312   4.348 -0.6668 -0.5750  3.2851
  433TIP3   OH2 1304   0.999   1.391   1.153  0.0847 -0.1265  0.1492
  433TIP3    H1 1305   1.026   1.473   1.193  0.1531  0.2845 -0.7185
  433TIP3    H2 1306   1.079   1.357   1.112 -0.5277  0.8104 -1.9364
  434TIP3   OH2 1307   5.868   4.305   3.711 -0.0886  0.9309 -0.4236
  434TIP3    H1 1308   5.782   4.324   3.674 -0.1741  1.2416 -0.0726
  434TIP3    H2 1309   5.880   4.211   3.698  0.3352  1.2055 -2.1857
  435TIP3   OH2 1310   5.644   0.660   3.796  0.3143  0.1182  0.0793
  435TIP3    H1 1311   5.684   0.573   3.797 -0.6395 -0.3567  1.7136
  435TIP3    H2 1312   5.550   0.642   3.799 -0.0155  1.2210 -1.8291
  436TIP3   OH2 1313   0.264   1.411   0.771 -0.3925  0.0199  0.0488
  436TIP3    H1 1314   0.350   1.391   0.807 -0.2964  0.7179  0.2164
  436TIP3    H2 1315   0.282   1.449   0.685 -0.5709 -0.4683 -0.2134
  437TIP3   OH2 1316   1.747   0.314   4.166 -0.8461  0.1503 -0.0633
  437TIP3    H1 1317   1.743   0.280   4.256 -2.0120  0.9452  0.1989
  437TIP3    H2 1318   1.674   0.271   4.121  0.3265 -1.0194 -0.9419
  438TIP3   OH2 1319   1.645   4.518   0.495 -0.1793  0.4268  0.1176
  438TIP3    H1 1320   1.718   4.460   0.473  0.6452  1.2729  0.5428
  438TIP3    H2 1321   1.648   4.526   0.591 -0.2696  1.1766  0.0642
  439TIP3   OH2 1322   4.469   4.705   1.997  0.0155  0.0809  0.0708
  439TIP3    H1 1323   4.395   4.643   1.991  1.7987 -2.1576 -0.3729
  439TIP3    H2 1324   4.483   4.717   2.091  0.6338 -1.5482  0.2216
  440TIP3   OH2 1325   4.351   1.819   5.164  0.2629  0.2221 -0.5058
  440TIP3    H1 1326   4.422   1.756   5.172  0.0009 -0.1080 -0.7833
  440TIP3    H2 1327   4.272   1.769   5.181  0.1745  0.8445  1.0339
  441TIP3   OH2 1328   0.781   1.842   0.808 -0.5351  0.8052  0.1456
  441TIP3    H1 1329   0.839   1.906   0.766  1.6675 -0.2513  1.3887
  441TIP3    H2 1330   0.800   1.851   0.901 -1.3344 -0.5974  0.4688
  442TIP3   OH2 1331   6.102   0.357   3.207 -0.1581  0.2782 -0.4731
  442TIP3    H1 1332   6.087   0.424   3.139 -1.9632  2.0447  1.5077
  442TIP3    H2 1333   6.025   0.300   3.201 -0.6248  0.7988  0.4474
  443TIP3   OH2 1334   4.505   5.043   2.846  0.0601  0.7121 -0.1766
  443TIP3    H1 1335   4.445   4.995   2.904 -1.1429  1.2072 -0.9875
  443TIP3    H2 1336   4.513   5.129   2.886 -2.7323  1.9266 -1.9215
  444TIP3   OH2 1337   2.508   3.896   0.183 -0.4165  0.1028 -0.0189
  444TIP3    H1 1338   2.481   3.988   0.195  0.3184  0.3474 -0.2052
  444TIP3    H2 1339   2.595   3.892   0.222  0.1502 -0.1713 -1.2784
  445TIP3   OH2 1340   2.530   4.142   1.466 -0.1193 -0.4186  0.0037
  445TIP3    H1 1341   2.583   4.220   1.479  2.1493 -1.7993 -0.5088
  445TIP3    H2 1342   2.515   4.138   1.372 -3.7065  1.4538  0.3101
  446TIP3   OH2 1343   4.035   2.057   5.058  0.3387 -0.4371 -0.2903
  446TIP3    H1 1344   4.009   2.018   5.142  0.4478 -1.3335 -0.6662
  446TIP3    H2 1345   4.011   1.992   4.993  0.6510  0.0748 -0.9243
  447TIP3   OH2 1346   3.370   5.834   2.245  0.0366 -0.1591 -0.0679
  447TIP3    H1 1347   3.443   5.852   2.185 -0.2138 -0.0032 -0.3246
  447TIP3    H2 1348   3.300   5.801   2.189 -0.2280  0.0650  0.1278
  448TIP3   OH2 1349   2.949   1.967   0.266  0.3201  0.3728 -0.4394
  448TIP3    H1 1350   3.040   1.992   0.277 -0.2461  2.6130 -0.2397
  448TIP3    H2 1351   2.943   1.936   0.175  1.5501 -1.3702  0.0236
  449TIP3   OH2 1352   6.332   2.997   2.751 -0.2285 -0.8081  0.4792
  449TIP3    H1 1353   6.301   2.973   2.664  0.4336 -0.6683  0.2008
  449TIP3    H2 1354   6.423   2.966   2.754 -0.6744 -2.1253  1.6492
  450TIP3   OH2 1355   5.351   2.739   2.989  0.6286 -0.1935  0.2581
  450TIP3    H1 1356   5.279   2.802   2.983  0.4407 -0.4918 -0.8538
  450TIP3    H2 1357   5.416   2.782   3.045  0.1115  0.6064  0.2610
  451TIP3   OH2 1358   5.150   3.401   0.459  0.3679 -0.0750 -0.1109
  451TIP3    H1 1359   5.170   3.493   0.475  0.1912  0.0555 -0.6228
  451TIP3    H2 1360   5.189   3.355   0.534 -0.9193  0.5513  0.9762
  452TIP3   OH2 1361   4.034   0.007   0.788 -0.2096 -0.1384 -0.2385
  452TIP3    H1 1362   4.003   0.097   0.789 -0.1671 -0.0212 -2.5838
  452TIP3    H2 1363   4.021  -0.025   0.877  0.2179  2.3126  0.7690
  453TIP3   OH2 1364   5.996   3.967   2.633 -0.5196 -0.2458  0.2804
  453TIP3    H1 1365   6.048   4.029   2.684 -0.9703 -0.4151  0.9473
  453TIP3    H2 1366   6.020   3.881   2.667 -0.9775 -0.3456  0.3618
  454TIP3   OH2 1367   5.781   3.620   1.799  0.1382 -0.3901  0.7263
  454TIP3    H1 1368   5.703   3.674   1.815 -0.7552 -0.7529 -1.9796
  454TIP3    H2 1369   5.747   3.530   1.792  1.2854 -1.0411  2.6881
  455TIP3   OH2 1370   1.324   4.424   3.684 -0.2634  0.5091  0.3272
  455TIP3    H1 1371   1.260   4.354   3.695  1.5127 -1.1061  0.8804
  455TIP3    H2 1372   1.287   4.479   3.615 -1.8495 -0.7988  0.0670
  456TIP3   OH2 1373   5.158   5.147   1.656 -0.1845  0.5685 -0.9019
  456TIP3    H1 1374   5.095   5.173   1.724  0.6100 -0.1923  0.1548
  456TIP3    H2 1375   5.139   5.055   1.638  0.7983  0.2328 -0.3363
  457TIP3   OH2 1376   0.671   2.961   1.306  0.6070 -0.1760 -0.6568
  457TIP3    H1 1377   0.753   2.913   1.315 -0.3261 -1.5191  1.4680
  457TIP3    H2 1378   0.641   2.942   1.217  2.4012  0.0883 -1.3474
  458TIP3   OH2 1379   1.733   3.032   0.435 -0.2891  0.0932  0.6265
  458TIP3    H1 1380   1.819   2.995   0.451 -0.1606  0.1057 -0.0088
  458TIP3    H2 1381   1.690   2.970   0.376 -0.7963 -0.0250  1.1171
  459TIP3   OH2 1382   5.817   1.286   2.757 -0.3313  0.1656 -0.1290
  459TIP3    H1 1383   5.850   1.328   2.678  1.8327  0.8866  1.0491
  459TIP3    H2 1384   5.776   1.356   2.807 -1.7810 -0.3063 -0.6291
  460TIP3   OH2 1385   4.822   4.663   3.855  0.4001  0.5163  0.1024
  460TIP3    H1 1386   4.861   4.593   3.803 -0.8058 -0.0131 -0.1221
  460TIP3    H2 1387   4.868   4.659   3.939  1.5151  0.5789 -0.4836
  461TIP3   OH2 1388   5.224   5.497   2.599 -0.9680 -0.6246 -0.2104
  461TIP3    H1 1389   5.269   5.578   2.572 -1.5845 -0.4424 -0.7068
  461TIP3    H2 1390   5.277   5.464   2.672 -0.9528  0.4643  0.3007
  462TIP3   OH2 1391   3.200   0.547   4.301 -0.5869 -0.0807  0.5133
  462TIP3    H1 1392   3.287   0.543   4.260 -0.6038  1.8868  0.1559
  462TIP3    H2 1393   3.149   0.479   4.258  0.2159  0.0705 -0.7127
  463TIP3   OH2 1394   0.444   2.222   3.803  0.2997  0.6185 -0.0979
  463TIP3    H1 1395   0.520   2.239   3.859 -0.0936  2.5209 -0.0809
  463TIP3    H2 1396   0.476   2.232   3.714  0.0975  1.4108 -0.0911
  464TIP3   OH2 1397   2.126   5.354   0.571  0.1036 -0.6252  0.1333
  464TIP3    H1 1398   2.204   5.410   0.565 -0.5752  0.5984  1.9692
  464TIP3    H2 1399   2.117   5.334   0.664 -1.9666 -0.4110  0.0344
  465TIP3   OH2 1400   2.651   5.075   0.567 -0.2480 -0.0945  0.1140
  465TIP3    H1 1401   2.700   5.029   0.499 -0.4201  0.7608 -0.5987
  465TIP3    H2 1402   2.559   5.059   0.546 -0.2988  0.0160  0.2494
  466TIP3   OH2 1403   2.153   2.432   4.258 -0.2029 -0.0216 -0.1504
  466TIP3    H1 1404   2.079   2.393   4.305  0.3322 -0.6726  0.1616
  466TIP3    H2 1405   2.193   2.491   4.322  1.3079 -1.8756  0.6905
  467TIP3   OH2 1406   0.764   0.586   2.125 -0.1523 -0.0089 -0.5956
  467TIP3    H1 1407   0.736   0.500   2.094  1.6276 -0.4695 -1.0472
  467TIP3    H2 1408   0.797   0.570   2.213 -1.4906  0.5746  0.0424
  468TIP3   OH2 1409   5.031   3.671   1.056 -0.7263 -0.1508  0.1661
  468TIP3    H1 1410   4.959   3.698   0.999 -0.1127 -0.5184 -0.8064
  468TIP3    H2 1411   5.107   3.664   0.997  0.9898  3.4631  1.6183
  469TIP3   OH2 1412   5.247   0.963   1.082  0.5134  0.0967 -0.3822
  469TIP3    H1 1413   5.330   0.933   1.046  0.5808 -0.5045  0.2526
  469TIP3    H2 1414   5.187   0.964   1.008  0.5526 -1.4587 -0.4567
  470TIP3   OH2 1415   2.670   5.859   0.212 -0.7328  0.1274 -0.0930
  470TIP3    H1 1416   2.585   5.840   0.172 -0.2264  1.9977 -2.2440
  470TIP3    H2 1417   2.734   5.828   0.149  0.1433  1.3548  0.1530
  471TIP3   OH2 1418   5.256   1.644   0.689  0.6140 -0.1893 -0.1595
  471TIP3    H1 1419   5.198   1.720   0.694 -1.7092 -1.9413  2.6260
  471TIP3    H2 1420   5.264   1.627   0.595 -1.9942  1.1947 -0.7370
  472TIP3   OH2 1421   0.097   0.517   4.380 -0.0572  0.7495  0.2121
  472TIP3    H1 1422   0.099   0.607   4.347 -2.2614  0.5395 -0.6851
  472TIP3    H2 1423   0.047   0.523   4.462  0.8407  0.4933  0.7929
  473TIP3   OH2 1424   6.104   4.485   4.963 -0.5311 -0.5978  0.3020
  473TIP3    H1 1425   6.091   4.400   5.006 -0.5518 -0.3650  0.7624
  473TIP3    H2 1426   6.162   4.466   4.890 -2.5613 -1.4802 -1.1844
  474TIP3   OH2 1427   2.635   4.613   4.521  0.6579  0.0443 -0.2124
  474TIP3    H1 1428   2.710   4.645   4.470  0.5587  1.1537  0.3194
  474TIP3    H2 1429   2.565   4.675   4.502  0.7508  0.7811  1.6415
  475TIP3   OH2 1430   5.651   1.079   1.147 -0.2929 -0.6953  0.1190
  475TIP3    H1 1431   5.633   1.060   1.239  0.0287  0.5902  0.4549
  475TIP3    H2 1432   5.631   1.172   1.136  0.3587 -0.6578 -0.9418
  476TIP3   OH2 1433   0.600   0.656   4.380  0.1891 -0.1053 -0.0162
  476TIP3    H1 1434   0.551   0.647   4.298  1.5021 -0.8087 -0.7496
  476TIP3    H2 1435   0.537   0.631   4.448 -0.4916 -0.9894 -0.9329
  477TIP3   OH2 1436   2.084   0.974   4.423  0.0178  0.0233  0.3037
  477TIP3    H1 1437   2.009   0.917   4.436 -0.7413  1.3016  1.9022
  477TIP3    H2 1438   2.077   1.040   4.493  0.4143  2.5186 -1.8382
  478TIP3   OH2 1439   3.940   4.288   0.980  0.0292  0.0447 -0.7713
  478TIP3    H1 1440   3.894   4.246   0.907 -0.0292 -1.8086  0.2701
  478TIP3    H2 1441   3.990   4.217   1.021  0.8481  1.2431  0.3995
  479TIP3   OH2 1442   0.399   3.630   4.928 -0.0821 -0.0956  0.1325
  479TIP3    H1 1443   0.362   3.551   4.967 -1.2078  1.1479  1.7062
  479TIP3    H2 1444   0.478   3.648   4.980 -0.4381  0.4138  0.5041
  480TIP3   OH2 1445   4.597   5.430   1.012  0.1284 -0.4178  0.0514
  480TIP3    H1 1446   4.685   5.467   1.024 -0.5561  1.7590 -1.0499
  480TIP3    H2 1447   4.587   5.423   0.917 -0.9285 -0.5282  0.1636
  481TIP3   OH2 1448   0.318   2.012   0.156 -0.0566 -0.1026  0.1048
  481TIP3    H1 1449   0.334   1.924   0.190 -0.4235  0.5137  2.0281
  481TIP3    H2 1450   0.222   2.020   0.156 -0.0188  0.3867  0.2522
  482TIP3   OH2 1451   1.625   1.646   0.206  0.3712  0.2259  0.3609
  482TIP3    H1 1452   1.582   1.699   0.274 -1.2482  0.0586 -0.4860
  482TIP3    H2 1453   1.633   1.559   0.246 -1.2823 -0.0732  0.1094
  483TIP3   OH2 1454   5.910   4.154   1.404 -0.5141  0.8059 -0.5977
  483TIP3    H1 1455   5.830   4.116   1.368  0.2984 -0.0259 -1.6107
  483TIP3    H2 1456   5.959   4.079   1.438  0.0699  1.2233 -0.4963
  484TIP3   OH2 1457   3.645   1.833   2.922  0.3014  0.2961 -0.1475
  484TIP3    H1 1458   3.587   1.771   2.966 -2.2234  1.3285 -1.8205
  484TIP3    H2 1459   3.680   1.785   2.847  1.1120 -0.1133  0.4766
  485TIP3   OH2 1460   5.253   3.010   0.380  0.1034  0.7929  0.2382
  485TIP3    H1 1461   5.267   2.942   0.313  1.3471 -1.5194  2.6701
  485TIP3    H2 1462   5.162   3.038   0.366  0.1081 -0.0570 -1.9659
  486TIP3   OH2 1463   4.973   3.436   2.679  0.3559 -0.6336  0.3755
  486TIP3    H1 1464   4.881   3.438   2.706 -0.1210 -1.6301 -1.0492
  486TIP3    H2 1465   5.022   3.441   2.762 -0.9154  1.4559  1.0780
  487TIP3   OH2 1466   0.781   4.538   4.168  0.0200  0.5178 -0.0516
  487TIP3    H1 1467   0.768   4.444   4.183 -3.2072  0.8486 -0.1223
  487TIP3    H2 1468   0.857   4.543   4.109  0.8286 -1.9608  0.6866
  488TIP3   OH2 1469   3.034   4.927   0.503  0.6797  0.3712 -0.6525
  488TIP3    H1 1470   3.005   4.870   0.431 -0.3402  0.1717 -0.0898
  488TIP3    H2 1471   3.096   4.873   0.552  0.0864 -0.0804 -0.4008
  489TIP3   OH2 1472   5.216   0.327   1.581  0.1157 -0.4155 -0.0065
  489TIP3    H1 1473   5.204   0.234   1.600  0.8004 -0.8261 -1.4960
  489TIP3    H2 1474   5.309   0.337   1.563 -0.2004  0.2478 -1.4029
  490TIP3   OH2 1475   4.393   5.934   0.794  0.3031 -0.0652 -0.0836
  490TIP3    H1 1476   4.438   6.014   0.823  1.7117 -0.7125 -0.4178
  490TIP3    H2 1477   4.462   5.869   0.784 -0.4926 -0.7000 -2.0527
  491TIP3   OH2 1478   5.880   4.942   1.096  0.0586 -0.1062 -0.3308
  491TIP3    H1 1479   5.907   4.857   1.132  1.3398  1.4475  2.7148
  491TIP3    H2 1480   5.961   4.989   1.081 -0.6256  0.5525 -2.2705
  492TIP3   OH2 1481   4.949   1.184   4.289  0.1721 -0.1607 -0.2360
  492TIP3    H1 1482   5.011   1.203   4.219 -0.5465  1.3102 -0.5197
  492TIP3    H2 1483   4.866   1.221   4.259 -0.1116  0.6677  1.4488
  493TIP3   OH2 1484   5.823   4.274   0.843 -0.2178  0.3857  0.1424
  493TIP3    H1 1485   5.887   4.327   0.794 -0.2903  0.7133  0.3954
  493TIP3    H2 1486   5.843   4.292   0.935 -1.6592  1.7332  0.2393
  494TIP3   OH2 1487   5.528   4.986   2.659  0.6785  0.1826  0.5410
  494TIP3    H1 1488   5.608   4.954   2.616  0.2953  0.8495 -0.6970
  494TIP3    H2 1489   5.470   4.910   2.661  1.0901 -0.1303  0.8571
  495TIP3   OH2 1490   2.081   0.548   2.607 -1.0784 -0.8606 -0.1127
  495TIP3    H1 1491   2.140   0.592   2.668 -0.6065  0.9309 -1.7516
  495TIP3    H2 1492   1.995   0.588   2.624 -0.6049  1.0262 -1.7650
  496TIP3   OH2 1493   5.722   3.072   3.106 -0.2855  0.2980 -0.7014
  496TIP3    H1 1494   5.788   3.003   3.109  1.2247  1.6798  1.8500
  496TIP3    H2 1495   5.670   3.057   3.185  0.4843  2.3662  0.2606
  497TIP3   OH2 1496   4.463   2.899   2.822  0.0281  0.1108  0.4073
  497TIP3    H1 1497   4.547   2.865   2.792 -0.2133  1.6603 -2.2467
  497TIP3    H2 1498   4.483   2.941   2.906  1.7144 -0.2684  0.2376
  498TIP3   OH2 1499   0.983   1.159   1.560  0.9474  0.0191 -0.9481
  498TIP3    H1 1500   0.959   1.067   1.555  0.7160  0.1581 -4.7275
  498TIP3    H2 1501   0.939   1.201   1.487  2.1969  2.8923 -0.2348
  499TIP3   OH2 1502   0.490   3.187   1.782 -0.6984 -0.0098  0.3053
  499TIP3    H1 1503   0.493   3.201   1.687 -1.8767 -1.5694 -0.0102
  499TIP3    H2 1504   0.528   3.266   1.819  0.5657  0.2919 -1.4902
  500TIP3   OH2 1505   3.098   1.071   3.788  0.1363  0.3603  0.5268
  500TIP3    H1 1506   3.101   1.125   3.867 -0.0423 -1.7057  2.0257
  500TIP3    H2 1507   3.017   1.021   3.796  0.2109 -0.0305 -0.8843
  501TIP3   OH2 1508   2.212   0.194   1.807  0.1846 -0.6041  0.3321
  501TIP3    H1 1509   2.192   0.283   1.837 -1.6954 -0.1215 -2.0436
  501TIP3    H2 1510   2.164   0.138   1.868 -0.5110  0.1452  0.4998
  502TIP3   OH2 1511   3.981   3.872   4.057  0.1688  0.3484 -0.2440
  502TIP3    H1 1512   3.999   3.856   3.965  0.3317 -0.3383 -0.0997
  502TIP3    H2 1513   3.888   3.892   4.061 -0.2291 -1.3523 -0.3533
  503TIP3   OH2 1514   4.970   0.280   0.207 -0.3262 -0.1461 -0.3925
  503TIP3    H1 1515   4.907   0.318   0.146  0.2321 -0.9020 -1.4874
  503TIP3    H2 1516   4.994   0.351   0.266 -2.7090 -0.0092  0.5162
  504TIP3   OH2 1517   2.867   3.256   0.525 -0.3522 -0.2870 -0.1561
  504TIP3    H1 1518   2.862   3.200   0.603  0.9591  0.1524  0.2697
  504TIP3    H2 1519   2.925   3.208   0.465 -0.6159 -0.1905 -0.4906
  505TIP3   OH2 1520   4.037   1.502   2.692  0.5208  0.3164  0.4911
  505TIP3    H1 1521   4.126   1.506   2.659 -0.0340 -0.0615 -1.1330
  505TIP3    H2 1522   4.034   1.423   2.745  1.2787  0.6225  1.0012
  506TIP3   OH2 1523   5.353   3.904   2.751 -0.4409 -0.1005  0.2055
  506TIP3    H1 1524   5.316   3.992   2.754 -3.2261 -1.2106  1.2621
  506TIP3    H2 1525   5.304   3.860   2.681  1.7954 -0.5444 -1.2104
  507TIP3   OH2 1526   1.220   2.660   4.269 -0.2885  0.4761 -0.2184
  507TIP3    H1 1527   1.160   2.734   4.278  0.9302  1.6005 -0.8367
  507TIP3    H2 1528   1.198   2.602   4.341 -2.8985  0.2240 -1.1077
  508TIP3   OH2 1529   2.148   5.962   0.679 -0.0267  0.5752  0.3821
  508TIP3    H1 1530   2.069   5.987   0.727 -0.1782  2.9718 -0.9414
  508TIP3    H2 1531   2.115   5.925   0.596  0.2537 -0.0314  0.5333
  509TIP3   OH2 1532   1.732   2.592   1.752 -0.7781 -0.0973 -0.7513
  509TIP3    H1 1533   1.771   2.525   1.809 -0.7221  0.4343 -0.1615
  509TIP3    H2 1534   1.646   2.609   1.790 -0.6898  0.3510 -0.7512
  510TIP3   OH2 1535   6.276   2.680   2.361  0.6932 -0.3866  0.2554
  510TIP3    H1 1536   6.363   2.706   2.392 -0.7447  1.8690  2.8584
  510TIP3    H2 1537   6.242   2.623   2.430 -0.0029 -1.1057 -0.6512
  511TIP3   OH2 1538   0.504   3.533   2.132 -0.1099  0.7051 -0.1132
  511TIP3    H1 1539   0.516   3.627   2.143  3.0913  0.4133 -0.0838
  511TIP3    H2 1540   0.486   3.499   2.220 -1.7079  1.2672 -0.1878
  512TIP3   OH2 1541   2.143   0.584   2.319 -0.5202 -0.3222 -0.0101
  512TIP3    H1 1542   2.143   0.583   2.415  1.6411  0.4856  0.0474
  512TIP3    H2 1543   2.220   0.533   2.295 -1.5746 -1.3362 -1.3716
  513TIP3   OH2 1544   0.852   0.859   3.290  0.2192 -0.4166 -0.0828
  513TIP3    H1 1545   0.894   0.803   3.356  0.1200  0.5990  0.8692
  513TIP3    H2 1546   0.900   0.941   3.294  0.9718 -0.7038 -2.1408
  514TIP3   OH2 1547   5.120   4.040   4.739  0.0821 -0.4161  0.1510
  514TIP3    H1 1548   5.043   3.983   4.734  1.0970 -1.8020 -0.0834
  514TIP3    H2 1549   5.084   4.128   4.729 -1.7185 -0.8379  2.0962
  515TIP3   OH2 1550   3.910   2.102   0.532  0.1288 -0.3996 -0.1309
  515TIP3    H1 1551   3.825   2.144   0.516  0.3002  0.1520  0.3982
  515TIP3    H2 1552   3.888   2.009   0.543 -0.3297 -0.3581 -0.6326
  516TIP3   OH2 1553   3.915   2.020   3.116  0.0107 -0.0725 -0.2912
  516TIP3    H1 1554   3.964   2.079   3.173  2.6315 -1.9936 -0.3623
  516TIP3    H2 1555   3.968   2.015   3.036 -1.5616 -0.4430 -1.3506
  517TIP3   OH2 1556   5.340   2.827   1.389  0.0159 -0.3291  0.3916
  517TIP3    H1 1557   5.303   2.738   1.386  1.5567 -0.9792 -1.9496
  517TIP3    H2 1558   5.304   2.870   1.311  0.1121  0.7576  0.9415
  518TIP3   OH2 1559   1.787   2.762   3.958  0.4643 -0.4594  0.6486
  518TIP3    H1 1560   1.850   2.712   4.009  0.9763  0.8193  1.2975
  518TIP3    H2 1561   1.833   2.842   3.933 -0.4573 -0.1184 -0.0408
  519TIP3   OH2 1562   5.946   1.439   4.665  0.6346 -0.5187  0.4430
  519TIP3    H1 1563   5.874   1.500   4.649  0.6719 -0.9931 -2.1033
  519TIP3    H2 1564   6.022   1.494   4.680  0.1762  0.0221  0.8072
  520TIP3   OH2 1565   1.567   3.264   4.479 -0.0089  0.6802  0.1055
  520TIP3    H1 1566   1.627   3.286   4.408 -0.8128  0.9164 -0.5184
  520TIP3    H2 1567   1.600   3.181   4.513  0.3079  0.4832 -0.6523
  521TIP3   OH2 1568   1.697   5.735   1.863  0.1213  0.2508 -0.3386
  521TIP3    H1 1569   1.621   5.743   1.806  1.3005  1.0081 -1.8806
  521TIP3    H2 1570   1.750   5.666   1.823  0.5177  0.0938  0.4228
  522TIP3   OH2 1571   0.827   1.139   2.253  0.1511 -0.0116  0.2171
  522TIP3    H1 1572   0.859   1.227   2.272  0.3060 -0.0981  0.3526
  522TIP3    H2 1573   0.765   1.151   2.181  0.5069  0.1490 -0.0612
  523TIP3   OH2 1574   2.664   0.160   4.797 -0.3214 -0.3469 -0.2721
  523TIP3    H1 1575   2.752   0.153   4.834 -0.1769 -0.2364 -0.5899
  523TIP3    H2 1576   2.669   0.236   4.739 -0.2566 -1.1265 -1.3073
  524TIP3   OH2 1577   4.699   2.003   2.860  0.3139 -0.2427 -0.3119
  524TIP3    H1 1578   4.691   2.059   2.783  1.5170 -0.0570 -0.3178
  524TIP3    H2 1579   4.608   1.981   2.884 -0.0624 -1.4624 -2.6101
  525TIP3   OH2 1580   5.927   3.951   3.428  0.1438 -0.2311 -0.0960
  525TIP3    H1 1581   5.879   3.910   3.499 -0.2868  0.9107  0.2874
  525TIP3    H2 1582   5.978   4.020   3.470 -0.8833  1.1246 -0.9924
  526TIP3   OH2 1583   6.203   4.639   3.763 -0.7084  0.0436 -0.5286
  526TIP3    H1 1584   6.190   4.574   3.694  3.5432  0.1380 -1.6905
  526TIP3    H2 1585   6.262   4.704   3.725 -1.6978  2.5536  1.8426
  527TIP3   OH2 1586   5.938   5.435   5.067 -0.0497 -0.1059  0.6294
  527TIP3    H1 1587   5.937   5.344   5.036  2.3449  0.1862 -0.5461
  527TIP3    H2 1588   6.005   5.436   5.136 -1.2471  0.4632  1.8179
  528TIP3   OH2 1589   5.422   4.887   0.800 -0.0291  0.2660  0.3560
  528TIP3    H1 1590   5.515   4.910   0.801  0.1206 -0.2726  1.9943
  528TIP3    H2 1591   5.383   4.947   0.864 -0.4258 -0.8706  1.2206
  529TIP3   OH2 1592   0.211   2.698   5.032 -0.1709 -0.2760 -0.0142
  529TIP3    H1 1593   0.128   2.729   4.997  0.1045  0.7229  0.1655
  529TIP3    H2 1594   0.277   2.755   4.992  0.3736 -0.7186  0.2352
  530TIP3   OH2 1595   2.936   2.022   2.806  0.4254  0.1263 -0.1727
  530TIP3    H1 1596   2.937   1.927   2.809 -0.4979  0.1110 -0.2124
  530TIP3    H2 1597   3.028   2.047   2.815  0.8416 -0.8078 -1.4822
  531TIP3   OH2 1598   5.827   2.775   4.411 -0.2986 -0.1628  0.5268
  531TIP3    H1 1599   5.895   2.712   4.435  0.9197  1.2607  0.9924
  531TIP3    H2 1600   5.835   2.844   4.476 -1.8868  0.2849  0.2862
  532TIP3   OH2 1601   5.600   5.861   4.295 -0.1931 -0.3395  0.5343
  532TIP3    H1 1602   5.565   5.905   4.372 -0.3820 -0.6562  0.6281
  532TIP3    H2 1603   5.665   5.799   4.329 -1.1270 -1.3346  0.5429
  533TIP3   OH2 1604   1.179   3.857   1.554 -0.9133 -0.3798  0.2147
  533TIP3    H1 1605   1.163   3.877   1.462  2.4723 -0.3122 -0.4822
  533TIP3    H2 1606   1.265   3.894   1.572 -0.5286 -2.2796  2.8169
  534TIP3   OH2 1607   1.808   2.256   0.146 -0.4784 -0.5963 -0.2787
  534TIP3    H1 1608   1.840   2.196   0.213  0.8877  3.6707  3.3987
  534TIP3    H2 1609   1.718   2.275   0.172 -0.5103 -0.1911 -0.6774
  535TIP3   OH2 1610   3.736   0.471   2.114 -0.3252 -0.2458 -0.2028
  535TIP3    H1 1611   3.713   0.380   2.094  0.9871 -0.8021  0.6944
  535TIP3    H2 1612   3.728   0.516   2.030 -1.1947 -1.1297 -0.6177
  536TIP3   OH2 1613   1.580   1.176   3.216  0.8614 -0.4918  0.3293
  536TIP3    H1 1614   1.548   1.172   3.126  1.2223  2.1777  0.0104
  536TIP3    H2 1615   1.506   1.144   3.269 -0.1928  0.0771 -0.7668
  537TIP3   OH2 1616   5.407   3.788   4.439  0.1477  0.3327 -0.5330
  537TIP3    H1 1617   5.470   3.854   4.470  0.2028  0.4105 -0.8071
  537TIP3    H2 1618   5.368   3.827   4.361 -0.9704  0.7120  0.1835
  538TIP3   OH2 1619   6.037   5.972   0.039 -0.0652  0.0092  0.0212
  538TIP3    H1 1620   6.100   6.000   0.106  0.1880 -2.2545  0.8215
  538TIP3    H2 1621   5.957   6.021   0.060  0.6320  0.9096  0.6728
  539TIP3   OH2 1622   2.592   2.425   4.296  0.3988  0.4415  0.4562
  539TIP3    H1 1623   2.680   2.405   4.330  0.7189  1.9560  0.5806
  539TIP3    H2 1624   2.598   2.516   4.267 -1.2744  0.7247  0.9222
  540TIP3   OH2 1625   2.131   2.750   2.951 -0.2363  0.3040  0.2312
  540TIP3    H1 1626   2.152   2.832   2.996 -0.8947  1.2723 -1.1625
  540TIP3    H2 1627   2.041   2.761   2.921  0.2643 -0.1401 -1.6030
  541TIP3   OH2 1628   4.324   4.304   3.952 -0.2131 -0.4283 -0.1313
  541TIP3    H1 1629   4.286   4.329   4.036  0.8155  0.2348  0.1639
  541TIP3    H2 1630   4.321   4.209   3.952 -0.9095 -0.4171  0.3213
  542TIP3   OH2 1631   5.774   2.616   1.100 -0.3378 -0.4180  0.2220
  542TIP3    H1 1632   5.734   2.632   1.014 -0.8454  0.5483  0.6303
  542TIP3    H2 1633   5.856   2.571   1.079 -0.3239  0.0340 -0.7871
  543TIP3   OH2 1634   1.503   5.829   2.638  0.2037 -0.3397 -0.4219
  543TIP3    H1 1635   1.557   5.832   2.716  0.1134  0.7597 -0.3766
  543TIP3    H2 1636   1.495   5.736   2.617  0.4289 -0.6295  0.7244
  544TIP3   OH2 1637   6.391   5.986   2.786  0.5238 -0.4861  0.0524
  544TIP3    H1 1638   6.323   5.922   2.764 -0.4935  0.0348  1.5131
  544TIP3    H2 1639   6.343   6.067   2.803  1.4372 -0.2327  1.6278
  545TIP3   OH2 1640   0.668   0.874   3.086  0.0439  0.1516 -0.0595
  545TIP3    H1 1641   0.694   0.852   2.997  0.8399 -1.6202  0.5578
  545TIP3    H2 1642   0.749   0.864   3.137 -0.7623 -0.5796  1.1178
  546TIP3   OH2 1643   0.765   2.443  -0.004 -0.1398  0.5440  0.3144
  546TIP3    H1 1644   0.679   2.483  -0.019 -1.0018 -0.7795  1.4007
  546TIP3    H2 1645   0.779   2.452   0.091  0.5496  0.0257  0.2723
  547TIP3   OH2 1646   1.770   2.401   3.557 -0.2307  0.4548  0.1355
  547TIP3    H1 1647   1.844   2.344   3.537 -1.1362 -0.2627 -1.3432
  547TIP3    H2 1648   1.808   2.472   3.609  1.0370 -1.1222  1.4970
  548TIP3   OH2 1649   0.633   2.961   4.635 -0.5655 -0.2355 -0.6588
  548TIP3    H1 1650   0.635   2.929   4.544  1.3917 -2.3941  0.0502
  548TIP3    H2 1651   0.724   2.957   4.664 -1.1912  0.0905  1.4987
  549TIP3   OH2 1652   2.752   4.725   2.559  0.0072  0.2836 -0.4738
  549TIP3    H1 1653   2.710   4.640   2.545 -0.1794  0.5632 -1.7032
  549TIP3    H2 1654   2.723   4.752   2.646  0.1493 -0.9500 -0.0284
  550TIP3   OH2 1655   5.603   5.851   0.668 -0.3486  0.2476 -0.3885
  550TIP3    H1 1656   5.535   5.851   0.735  0.0979  0.9415  0.0757
  550TIP3    H2 1657   5.616   5.759   0.647 -0.1919 -0.0117  0.7850
  551TIP3   OH2 1658   4.339   2.613   4.842 -0.4346  0.0235  0.6679
  551TIP3    H1 1659   4.299   2.665   4.912  0.1128  0.1153  0.9133
  551TIP3    H2 1660   4.405   2.671   4.804 -0.6373 -0.0745  0.1609
  552TIP3   OH2 1661   2.276   1.809   2.757  0.0047 -0.3667 -0.1686
  552TIP3    H1 1662   2.291   1.894   2.799 -0.3138  0.0663 -0.9207
  552TIP3    H2 1663   2.362   1.768   2.757  0.0947 -0.1969  0.5210
  553TIP3   OH2 1664   2.224   0.879   2.397  0.0741 -0.1168 -0.2402
  553TIP3    H1 1665   2.147   0.822   2.396 -0.8900  1.0230  1.7269
  553TIP3    H2 1666   2.284   0.839   2.460  0.6233 -0.4158 -0.9416
  554TIP3   OH2 1667   4.861   0.349   3.308 -0.1732 -0.2297 -0.1842
  554TIP3    H1 1668   4.854   0.393   3.223 -0.5723 -1.8408 -1.0247
  554TIP3    H2 1669   4.902   0.265   3.289 -0.7940 -0.8628  1.1268
  555TIP3   OH2 1670   3.595   5.280   1.563  0.0695 -0.0061  0.1109
  555TIP3    H1 1671   3.554   5.193   1.563 -1.0394  0.4849 -0.8338
  555TIP3    H2 1672   3.688   5.263   1.576  0.0437 -1.4443 -1.2848
  556TIP3   OH2 1673   0.480   4.655   3.849 -0.4505  0.5068 -0.2055
  556TIP3    H1 1674   0.469   4.745   3.879 -0.1471  0.6469 -0.5183
  556TIP3    H2 1675   0.524   4.662   3.765  0.3244  0.0333  0.1476
  557TIP3   OH2 1676   0.505   5.729   4.690  0.1578 -0.6626  0.1105
  557TIP3    H1 1677   0.569   5.791   4.723 -0.3345  0.9769 -1.7929
  557TIP3    H2 1678   0.556   5.663   4.643  0.5308  0.0688 -0.5273
  558TIP3   OH2 1679   3.353   0.650   0.745 -0.1399 -0.2556  0.1762
  558TIP3    H1 1680   3.426   0.601   0.782 -0.3644 -0.3266  0.5309
  558TIP3    H2 1681   3.393   0.712   0.684  0.3626  0.7728  1.4968
  559TIP3   OH2 1682   1.458   1.679   3.628 -0.3185 -0.2075  0.3404
  559TIP3    H1 1683   1.417   1.749   3.577  0.5546  0.2116  0.1882
  559TIP3    H2 1684   1.523   1.641   3.569  0.0323 -0.3576  0.8127
  560TIP3   OH2 1685   0.926   3.429   3.451  0.1245 -0.1562 -0.7615
  560TIP3    H1 1686   0.908   3.475   3.368  0.1244 -0.8765 -1.1648
  560TIP3    H2 1687   0.961   3.497   3.508 -3.3580  1.2920 -0.0644
  561TIP3   OH2 1688   2.475   2.932   3.368  0.1584 -0.2811  0.2053
  561TIP3    H1 1689   2.417   2.990   3.417  2.1433  0.5981  1.6622
  561TIP3    H2 1690   2.563   2.959   3.393  1.2297 -1.8524 -1.5528
  562TIP3   OH2 1691   1.925   0.337   1.125 -0.0158 -0.3799  0.6583
  562TIP3    H1 1692   1.988   0.282   1.078  1.6370  1.2299  0.8781
  562TIP3    H2 1693   1.845   0.332   1.073  1.7586  1.4149 -2.5371
  563TIP3   OH2 1694   2.525   2.168   1.631  0.3246  0.0680  0.3016
  563TIP3    H1 1695   2.562   2.249   1.597  1.2232  0.1680  1.4336
  563TIP3    H2 1696   2.556   2.164   1.722 -1.1748 -0.6575  0.8176
  564TIP3   OH2 1697   1.805   4.816   2.013  0.2505  0.4624 -0.5849
  564TIP3    H1 1698   1.809   4.896   1.960  0.6283 -0.4555 -1.9938
  564TIP3    H2 1699   1.894   4.804   2.045  0.1347  0.7422 -0.1517
  565TIP3   OH2 1700   1.591   2.011   0.142 -0.1696  0.3232  0.0505
  565TIP3    H1 1701   1.661   2.020   0.207 -1.0451 -0.1934  1.0788
  565TIP3    H2 1702   1.513   2.047   0.185 -1.1665 -1.6156 -0.0192
  566TIP3   OH2 1703   4.497   3.832   0.021 -0.1714  0.0505 -0.1245
  566TIP3    H1 1704   4.526   3.786  -0.058 -0.4253 -1.7345  0.7534
  566TIP3    H2 1705   4.550   3.794   0.092 -0.8023  0.7155  0.7315
  567TIP3   OH2 1706   3.766   4.840   0.019  0.0668  0.0114 -0.1856
  567TIP3    H1 1707   3.769   4.934   0.001 -0.7453  0.0127 -0.3730
  567TIP3    H2 1708   3.693   4.830   0.081  1.4769 -0.2506  1.5021
  568TIP3   OH2 1709   5.988   0.353   2.047  0.2083  0.0015 -0.3832
  568TIP3    H1 1710   5.901   0.374   2.013  0.4338 -0.2188 -1.1127
  568TIP3    H2 1711   6.001   0.261   2.026  0.0425 -0.3568  1.0094
  569TIP3   OH2 1712   1.193   4.298   0.370 -0.3150  0.0489  0.1073
  569TIP3    H1 1713   1.101   4.276   0.358 -0.0522 -1.4870  0.6238
  569TIP3    H2 1714   1.193   4.388   0.402 -1.5746  0.3675 -0.7365
  570TIP3   OH2 1715   0.585   2.074   0.774  0.1058 -0.1163 -0.4622
  570TIP3    H1 1716   0.503   2.099   0.732  0.7681 -1.1373 -2.4835
  570TIP3    H2 1717   0.636   2.032   0.705  0.7521 -3.1477  1.6522
  571TIP3   OH2 1718   2.862   4.839   1.784  0.0812 -0.0737  0.2262
  571TIP3    H1 1719   2.838   4.756   1.743 -0.5298  0.9593 -1.6205
  571TIP3    H2 1720   2.926   4.815   1.852 -0.8827 -2.1339  0.4737
  572TIP3   OH2 1721   3.597   0.726   0.238 -0.3952 -0.3025  0.5605
  572TIP3    H1 1722   3.569   0.817   0.228 -0.8912 -0.6451 -1.9257
  572TIP3    H2 1723   3.536   0.677   0.182  0.2575 -2.0825  1.3666
  573TIP3   OH2 1724   0.239   0.942   4.646  0.2779  0.0700  0.2438
  573TIP3    H1 1725   0.318   0.915   4.600 -0.2424 -1.4080  0.1530
  573TIP3    H2 1726   0.198   0.860   4.673 -1.8651  0.7205 -0.7775
  574TIP3   OH2 1727   5.677   1.730   1.102  0.2040 -0.0899 -0.1261
  574TIP3    H1 1728   5.625   1.733   1.022  0.8527  1.5351 -0.5163
  574TIP3    H2 1729   5.706   1.820   1.115  2.9918 -0.9153  0.0113
  575TIP3   OH2 1730   4.410   0.084   0.898  0.2830  0.1857 -0.1651
  575TIP3    H1 1731   4.506   0.075   0.903  0.2382 -0.0326  0.3443
  575TIP3    H2 1732   4.393   0.097   0.805  1.0690  3.2800  0.0225
  576TIP3   OH2 1733   4.853   4.372   0.921  0.4102  0.4015 -0.5945
  576TIP3    H1 1734   4.816   4.297   0.967  2.1010 -0.3331 -0.3693
  576TIP3    H2 1735   4.782   4.402   0.864 -0.3532 -1.2647 -0.5876
  577TIP3   OH2 1736   3.308   4.066   3.899  0.3642  0.5296  0.0753
  577TIP3    H1 1737   3.341   3.990   3.946 -0.4404 -0.9439 -1.6332
  577TIP3    H2 1738   3.385   4.104   3.857  0.6356  0.1166  0.1952
  578TIP3   OH2 1739   1.820   5.947   0.529 -0.6113  0.2039 -0.5754
  578TIP3    H1 1740   1.851   5.986   0.611 -0.3693 -0.8834 -0.1376
  578TIP3    H2 1741   1.873   5.868   0.518 -1.2779 -0.1540 -1.3069
  579TIP3   OH2 1742   0.573   5.070   1.838  0.1817  0.4578  0.0773
  579TIP3    H1 1743   0.662   5.102   1.843  0.5253 -0.2128 -1.3022
  579TIP3    H2 1744   0.579   4.988   1.789 -0.7874 -1.2440  2.5828
  580TIP3   OH2 1745   4.862   0.693   2.146  0.4305  0.1898  0.1205
  580TIP3    H1 1746   4.879   0.714   2.054  0.8700  0.8528  0.3455
  580TIP3    H2 1747   4.829   0.603   2.144  0.3198  0.2367 -0.6937
  581TIP3   OH2 1748   5.099   0.428   4.148  0.3074  0.1763  0.1035
  581TIP3    H1 1749   5.031   0.470   4.200  1.4799  1.6852  0.5010
  581TIP3    H2 1750   5.075   0.336   4.147 -1.7577  0.6553  0.1826
  582TIP3   OH2 1751   4.002   2.798   4.159 -0.2904 -0.6304  0.2082
  582TIP3    H1 1752   4.034   2.716   4.197 -0.5619 -1.5088 -1.3155
  582TIP3    H2 1753   3.907   2.795   4.174 -0.1133  0.1766  1.5178
  583TIP3   OH2 1754   5.058   2.563   3.114 -0.0240 -0.6417 -0.1166
  583TIP3    H1 1755   5.079   2.610   3.033  1.8818 -1.2469 -0.0414
  583TIP3    H2 1756   5.050   2.632   3.180  2.0824 -0.3079 -0.1340
  584TIP3   OH2 1757   0.773   0.908   2.829 -0.3433  0.3219 -0.2641
  584TIP3    H1 1758   0.739   0.910   2.739 -0.9673 -0.8052 -0.0637
  584TIP3    H2 1759   0.867   0.923   2.819 -0.6475  1.9905 -0.9496
  585TIP3   OH2 1760   0.261   0.186   3.055 -0.4140  0.3105  0.5096
  585TIP3    H1 1761   0.320   0.114   3.035  0.0000  0.7807  0.0459
  585TIP3    H2 1762   0.208   0.197   2.976  0.6438  1.5989 -0.0503
  586TIP3   OH2 1763   2.841   5.045   2.306  0.0119 -0.0468 -0.2792
  586TIP3    H1 1764   2.857   5.097   2.385  0.7556  0.4432 -0.7381
  586TIP3    H2 1765   2.878   5.098   2.235  0.4688 -1.0410 -0.8008
  587TIP3   OH2 1766   1.834   1.388   4.513 -0.2291 -0.2417 -0.6347
  587TIP3    H1 1767   1.920   1.399   4.473  0.3939 -2.3917 -0.0313
  587TIP3    H2 1768   1.798   1.310   4.472 -0.8779 -0.7372  0.7942
  588TIP3   OH2 1769   6.133   3.065   3.523 -0.8743 -0.0596  0.4423
  588TIP3    H1 1770   6.182   3.013   3.587 -0.2772  1.0749  0.9391
  588TIP3    H2 1771   6.187   3.063   3.444 -1.1982 -0.7601  0.2320
  589TIP3   OH2 1772   4.377   4.445   0.337 -0.1852 -0.3278 -0.6449
  589TIP3    H1 1773   4.284   4.468   0.346  0.0731  0.9285 -0.9643
  589TIP3    H2 1774   4.388   4.368   0.393 -1.3551 -0.3232 -0.3736
  590TIP3   OH2 1775   1.823   3.550   2.944 -0.0103 -0.1017  0.0793
  590TIP3    H1 1776   1.789   3.637   2.923  1.4685  1.0234  1.9779
  590TIP3    H2 1777   1.850   3.514   2.860 -3.5430 -0.1428 -1.2187
  591TIP3   OH2 1778   1.549   1.628   1.983 -0.2896  0.5322 -0.0281
  591TIP3    H1 1779   1.644   1.624   1.985 -0.3278 -1.9524  1.9762
  591TIP3    H2 1780   1.526   1.616   1.891  1.2938  0.3140 -0.4209
  592TIP3   OH2 1781   5.294   3.829   1.490 -0.1060 -0.5776 -0.2163
  592TIP3    H1 1782   5.213   3.818   1.538 -1.9498  0.1253 -2.9246
  592TIP3    H2 1783   5.322   3.918   1.509 -0.5765 -0.4568 -0.0794
  593TIP3   OH2 1784   3.382   4.254   2.476 -0.2346 -0.0586  0.4810
  593TIP3    H1 1785   3.396   4.264   2.570  1.9657 -0.8343  0.2885
  593TIP3    H2 1786   3.387   4.343   2.440 -0.8712  0.2144  1.0595
  594TIP3   OH2 1787   0.887   3.843   2.605  0.1216 -0.2413  0.3471
  594TIP3    H1 1788   0.828   3.896   2.553 -0.1749 -1.7369 -0.9145
  594TIP3    H2 1789   0.842   3.832   2.689 -0.4700  0.2775  0.1031
  595TIP3   OH2 1790   5.569   2.536   0.093  0.2966 -0.0689  0.1527
  595TIP3    H1 1791   5.632   2.465   0.080  2.3031  1.8933 -1.6888
  595TIP3    H2 1792   5.505   2.525   0.023  1.1507  0.4473 -0.7272
  596TIP3   OH2 1793   0.841   3.977   4.207 -0.2297  0.5938 -0.0803
  596TIP3    H1 1794   0.811   3.927   4.131 -0.9973  0.0166  0.5879
  596TIP3    H2 1795   0.908   3.921   4.246  0.0714  0.8322 -0.2493
  597TIP3   OH2 1796   1.773   5.860   5.138  0.4043 -0.4228  0.1096
  597TIP3    H1 1797   1.867   5.865   5.119  0.0081  2.0449 -1.7896
  597TIP3    H2 1798   1.732   5.911   5.068 -2.1124  1.0727  2.4845
  598TIP3   OH2 1799   2.853   4.051   0.936  0.4740 -0.2120  0.2162
  598TIP3    H1 1800   2.838   3.968   0.890  2.0725 -0.2953 -0.2290
  598TIP3    H2 1801   2.938   4.080   0.904 -0.7297  2.4493 -0.8974
  599TIP3   OH2 1802   1.222   2.914   0.060 -0.0562 -0.7010 -0.1121
  599TIP3    H1 1803   1.307   2.890   0.097  0.5998 -0.4469 -1.3772
  599TIP3    H2 1804   1.244   2.957  -0.023 -1.4437 -1.1753 -0.7522
  600TIP3   OH2 1805   0.639   2.671   5.117 -0.0361 -0.0773  0.3196
  600TIP3    H1 1806   0.605   2.718   5.041 -0.5833  1.4770  1.4628
  600TIP3    H2 1807   0.732   2.659   5.098  0.2288  1.8974  0.1298
  601TIP3   OH2 1808   0.083   0.293   2.530 -0.0272 -0.1168 -0.0034
  601TIP3    H1 1809  -0.001   0.248   2.515 -0.5107  0.9948 -0.7330
  601TIP3    H2 1810   0.144   0.250   2.471 -0.2129 -0.5266  0.0922
  602TIP3   OH2 1811   6.275   5.265   1.404  0.5153 -0.0746  0.0011
  602TIP3    H1 1812   6.254   5.294   1.315  2.0811 -1.2793 -0.8064
  602TIP3    H2 1813   6.211   5.309   1.459 -1.2151 -0.1470 -1.8341
  603TIP3   OH2 1814   0.904   3.307   4.913 -0.6552 -0.0510 -0.2309
  603TIP3    H1 1815   0.948   3.277   4.833 -0.4107 -1.0036  0.2418
  603TIP3    H2 1816   0.948   3.390   4.935  1.4059 -1.2629  0.5725
  604TIP3   OH2 1817   0.611   5.641   4.105  0.3235 -0.0970  0.5103
  604TIP3    H1 1818   0.577   5.642   4.195 -0.8594 -1.7447  0.1125
  604TIP3    H2 1819   0.661   5.723   4.098 -1.0561  0.9512  2.0858
  605TIP3   OH2 1820   0.911   4.758   2.166  0.2105  0.2858  0.4198
  605TIP3    H1 1821   0.918   4.684   2.105 -0.3429  0.3276  0.2939
  605TIP3    H2 1822   0.847   4.729   2.231 -1.8116  1.4955 -0.9195
  606TIP3   OH2 1823   1.078   4.931   1.072  0.0336  0.2744 -0.7403
  606TIP3    H1 1824   1.046   4.945   0.983 -1.5072  1.2984 -0.0591
  606TIP3    H2 1825   1.116   5.015   1.097  1.8297 -0.4405 -0.9247
  607TIP3   OH2 1826   2.904   4.130   2.589  0.0365 -0.2524  0.3636
  607TIP3    H1 1827   2.835   4.162   2.647  0.0322  0.1217  0.1544
  607TIP3    H2 1828   2.968   4.201   2.586 -0.6971  0.3845 -1.3070
  608TIP3   OH2 1829   3.440   2.942   3.684  0.0616  0.3187 -0.3023
  608TIP3    H1 1830   3.442   2.849   3.662 -1.6367  0.3616 -0.7386
  608TIP3    H2 1831   3.350   2.959   3.712  0.3094  1.8559 -0.3435
  609TIP3   OH2 1832   5.814   0.589   2.761  0.1556 -0.1935  0.7282
  609TIP3    H1 1833   5.852   0.501   2.773 -0.3717 -0.7568 -1.2778
  609TIP3    H2 1834   5.721   0.573   2.748  0.2307  0.5092 -0.8792
  610TIP3   OH2 1835   3.106   4.065   4.136  0.2079 -1.1288 -0.8267
  610TIP3    H1 1836   3.123   3.981   4.178 -1.7606 -0.8100  0.7741
  610TIP3    H2 1837   3.083   4.042   4.045 -1.5252 -2.5001 -0.1052
  611TIP3   OH2 1838   0.920   3.446   4.092 -0.6394  0.1506  0.4101
  611TIP3    H1 1839   1.000   3.408   4.128 -0.2961  1.2794  0.8869
  611TIP3    H2 1840   0.849   3.397   4.135 -0.2174 -0.3431  0.5577
  612TIP3   OH2 1841   5.530   3.892   2.031  0.7530  0.2113  0.3339
  612TIP3    H1 1842   5.450   3.892   2.084 -0.0215  0.3697 -0.7897
  612TIP3    H2 1843   5.567   3.979   2.042  3.0644 -1.0366  4.0941
  613TIP3   OH2 1844   3.287   4.898   2.980  0.1059  0.4069 -0.5552
  613TIP3    H1 1845   3.357   4.889   3.044 -0.8605  1.0233  0.6421
  613TIP3    H2 1846   3.316   4.846   2.904  1.0508 -0.7645  0.5683
  614TIP3   OH2 1847   3.586   2.080   2.631  0.1517  0.0284 -0.0040
  614TIP3    H1 1848   3.571   2.034   2.548  1.8189  0.9305 -0.8553
  614TIP3    H2 1849   3.657   2.032   2.673 -0.7033 -0.4369  0.9367
  615TIP3   OH2 1850   1.450   2.525   3.235 -0.6152  0.3330  0.2350
  615TIP3    H1 1851   1.539   2.493   3.246 -1.1682 -1.1559  0.7144
  615TIP3    H2 1852   1.431   2.516   3.142 -0.3397  0.4700  0.1657
  616TIP3   OH2 1853   5.253   3.223   3.029  0.3474 -0.3797 -0.4710
  616TIP3    H1 1854   5.304   3.275   2.968  0.1909  0.7868  0.3520
  616TIP3    H2 1855   5.163   3.253   3.018 -0.0091 -1.6267 -1.1165
  617TIP3   OH2 1856   0.855   4.430   4.810 -0.3833  0.1751  0.1135
  617TIP3    H1 1857   0.777   4.385   4.841  0.9549 -4.1783 -2.0688
  617TIP3    H2 1858   0.925   4.403   4.870  0.2041  0.7837 -0.2672
  618TIP3   OH2 1859   2.071   3.541   1.896  0.0401  0.7494  0.1640
  618TIP3    H1 1860   2.022   3.485   1.956  0.1358  0.6281  0.1287
  618TIP3    H2 1861   2.014   3.551   1.820 -0.1173  0.9727  0.3098
  619TIP3   OH2 1862   4.713   1.046   3.874  0.0310 -0.9672 -0.8449
  619TIP3    H1 1863   4.788   1.042   3.933  0.3313  1.9066 -0.9006
  619TIP3    H2 1864   4.651   0.982   3.910  0.6164 -0.0732  2.0081
  620TIP3   OH2 1865   3.141   4.823   4.117 -0.2885 -0.5326  0.0592
  620TIP3    H1 1866   3.219   4.811   4.172  0.7874 -1.7895 -1.5971
  620TIP3    H2 1867   3.123   4.736   4.082 -1.7720 -0.0431 -0.4830
  621TIP3   OH2 1868   3.886   4.603   3.895 -0.0887  0.3046  0.1140
  621TIP3    H1 1869   3.968   4.595   3.944  0.2893 -0.0723 -0.5583
  621TIP3    H2 1870   3.908   4.571   3.808 -0.4882  1.8792 -0.5966
  622TIP3   OH2 1871   2.176   0.156   1.533 -0.3326  0.2941  0.9116
  622TIP3    H1 1872   2.219   0.232   1.493 -1.8752  0.9099  0.3738
  622TIP3    H2 1873   2.197   0.163   1.626 -0.2933  1.2652  0.8351
  623TIP3   OH2 1874   1.291   3.756   4.786  0.1392 -0.0471 -0.0803
  623TIP3    H1 1875   1.314   3.708   4.866 -0.6362 -1.0438 -0.4411
  623TIP3    H2 1876   1.330   3.843   4.798 -0.4559  0.0035  1.6276
  624TIP3   OH2 1877   4.655   1.783   0.629 -0.4056 -0.2435 -0.4630
  624TIP3    H1 1878   4.719   1.854   0.624  0.2019 -0.7588 -0.1157
  624TIP3    H2 1879   4.593   1.812   0.696  0.8767 -0.8405  1.0475
  625TIP3   OH2 1880   5.344   4.376   0.598  0.5686 -0.2619 -0.6059
  625TIP3    H1 1881   5.252   4.369   0.572 -0.1233 -0.9317  1.7791
  625TIP3    H2 1882   5.355   4.467   0.623  0.3082 -0.3495 -0.1518
  626TIP3   OH2 1883   4.570   0.858   1.551 -0.1764 -0.0219  0.2388
  626TIP3    H1 1884   4.648   0.857   1.495  0.1602 -0.6862  0.7166
  626TIP3    H2 1885   4.551   0.766   1.568  0.4245  0.1764  2.1841
  627TIP3   OH2 1886   2.428   4.468   1.544  0.0663  0.7930  0.5973
  627TIP3    H1 1887   2.422   4.441   1.636  0.3257 -0.0564  0.3696
  627TIP3    H2 1888   2.338   4.469   1.513  0.1478 -2.0353 -0.0005
  628TIP3   OH2 1889   3.436   3.502   0.466 -0.0499  0.2125 -0.3242
  628TIP3    H1 1890   3.446   3.597   0.464  0.6077  0.1740  0.7801
  628TIP3    H2 1891   3.491   3.471   0.394  0.6866  0.5910  0.0702
  629TIP3   OH2 1892   3.479   1.666   3.073 -0.4710  0.2850 -0.0885
  629TIP3    H1 1893   3.488   1.695   3.164  0.1214 -1.7939  0.5568
  629TIP3    H2 1894   3.429   1.585   3.078 -2.1691  1.1237 -1.8392
  630TIP3   OH2 1895   4.422   0.363   2.838 -0.0731 -0.9888 -0.2071
  630TIP3    H1 1896   4.357   0.378   2.769 -0.1677  1.2973  0.2996
  630TIP3    H2 1897   4.505   0.350   2.792 -0.5891 -2.3482 -0.8016
  631TIP3   OH2 1898   2.381   3.726   1.386  0.1148  1.0217  0.0944
  631TIP3    H1 1899   2.443   3.776   1.439  0.5301  1.0445 -0.4070
  631TIP3    H2 1900   2.394   3.635   1.413  0.7118  0.9712 -0.3515
  632TIP3   OH2 1901   0.730   5.159   4.740 -0.0205 -0.0022 -0.0357
  632TIP3    H1 1902   0.637   5.173   4.721  0.3013  0.9801 -0.9098
  632TIP3    H2 1903   0.743   5.199   4.826 -0.1549  0.9117 -0.4334
  633TIP3   OH2 1904   1.780   4.126   4.106  0.1167  0.8114  0.1159
  633TIP3    H1 1905   1.702   4.079   4.137  0.1506  0.4802 -0.2864
  633TIP3    H2 1906   1.836   4.134   4.183  0.7125 -1.0142 -0.0859
  634TIP3   OH2 1907   0.281   5.099   0.360 -0.1807  0.0818 -0.1731
  634TIP3    H1 1908   0.252   5.016   0.323 -0.9651  0.6005 -0.7772
  634TIP3    H2 1909   0.373   5.086   0.381  0.2178 -0.3588 -2.0063
  635TIP3   OH2 1910   3.220   3.231   0.630 -0.1908  0.3878  0.4905
  635TIP3    H1 1911   3.305   3.231   0.676 -0.0765 -1.1630  0.3345
  635TIP3    H2 1912   3.201   3.139   0.616 -1.1850  0.7690 -0.8449
  636TIP3   OH2 1913   2.417   1.441   2.369 -0.4734  0.4330 -0.7857
  636TIP3    H1 1914   2.359   1.492   2.426 -0.3289  0.2392 -0.4644
  636TIP3    H2 1915   2.362   1.371   2.334 -0.3593  0.0656 -0.2384
  637TIP3   OH2 1916   2.045   0.357   4.742  0.1734  0.1469 -0.2665
  637TIP3    H1 1917   2.141   0.353   4.749  0.3786  0.6104 -2.2866
  637TIP3    H2 1918   2.016   0.270   4.767  1.3199 -0.7726 -1.9722
  638TIP3   OH2 1919   1.118   0.579   4.290  0.1404 -0.0933  0.5206
  638TIP3    H1 1920   1.054   0.626   4.238 -0.3002  1.6879  2.4971
  638TIP3    H2 1921   1.148   0.507   4.234 -0.5771  1.4190 -1.9526
  639TIP3   OH2 1922   6.022   1.639   4.049 -0.2157 -0.7113  0.4606
  639TIP3    H1 1923   6.076   1.716   4.071  0.3373 -0.0434 -2.7404
  639TIP3    H2 1924   5.937   1.659   4.087 -0.3402  2.0035 -0.9628
  640TIP3   OH2 1925   4.507   5.712   1.879  0.1820  0.1259  0.3258
  640TIP3    H1 1926   4.465   5.635   1.918 -0.1499  0.3013  0.3154
  640TIP3    H2 1927   4.438   5.755   1.829  0.2897  0.5872  0.5628
  641TIP3   OH2 1928   2.516   4.208   0.163 -0.7075  0.4755 -0.5474
  641TIP3    H1 1929   2.609   4.216   0.186 -0.1804 -1.1294 -1.8872
  641TIP3    H2 1930   2.475   4.285   0.203  1.4719  2.1936 -1.3781
  642TIP3   OH2 1931   5.933   1.840   0.225  0.4221  0.4655  0.0109
  642TIP3    H1 1932   5.838   1.847   0.219  0.5205  1.3069 -1.0188
  642TIP3    H2 1933   5.964   1.871   0.139  1.6447  0.7907  0.5522
  643TIP3   OH2 1934   5.917   0.116   0.218 -0.0472 -0.2988 -0.0770
  643TIP3    H1 1935   5.924   0.095   0.125  0.2545  1.0992 -0.4007
  643TIP3    H2 1936   5.950   0.039   0.264 -0.5534 -1.1499 -1.1140
  644TIP3   OH2 1937   5.492   1.664   2.455 -0.7887 -0.8960 -0.0702
  644TIP3    H1 1938   5.557   1.607   2.497 -1.1313 -0.8827  0.4942
  644TIP3    H2 1939   5.458   1.613   2.382  0.0216 -0.8170 -0.5138
  645TIP3   OH2 1940   0.840   3.723   1.406 -0.4338  0.0282 -0.0177
  645TIP3    H1 1941   0.922   3.762   1.376  0.4583  0.3006  2.5291
  645TIP3    H2 1942   0.797   3.794   1.454 -1.6146 -0.4682 -0.3181
  646TIP3   OH2 1943   1.612   3.771   3.286 -0.2077  0.6359 -0.2940
  646TIP3    H1 1944   1.580   3.822   3.361 -0.7147  0.6036 -0.4890
  646TIP3    H2 1945   1.697   3.810   3.267  1.1467 -0.9810  1.9030
  647TIP3   OH2 1946   6.291   3.832   0.959  0.3593 -0.0388  0.0105
  647TIP3    H1 1947   6.235   3.907   0.976 -1.9211 -1.4629 -0.7665
  647TIP3    H2 1948   6.264   3.766   1.024 -0.4852 -1.5070 -1.7252
  648TIP3   OH2 1949   0.824   2.519   3.601 -0.1762 -0.4085  0.5818
  648TIP3    H1 1950   0.904   2.567   3.580  0.4357 -0.8366  1.8553
  648TIP3    H2 1951   0.810   2.462   3.525  0.8807 -0.5237  0.4588
  649TIP3   OH2 1952   1.393   3.277   0.061 -0.4767 -0.6607  0.6587
  649TIP3    H1 1953   1.418   3.308   0.148  1.3374 -1.3179  0.4157
  649TIP3    H2 1954   1.368   3.185   0.075  0.2065 -0.8837  0.4309
  650TIP3   OH2 1955   5.917   0.056   2.880  0.3748 -0.4499 -0.2012
  650TIP3    H1 1956   5.856  -0.000   2.832  1.5014 -1.0158 -1.0340
  650TIP3    H2 1957   6.004   0.022   2.856  1.0730  1.3112 -0.3113
  651TIP3   OH2 1958   0.446   0.279   2.379  0.0411  0.0547  0.8664
  651TIP3    H1 1959   0.532   0.274   2.338 -0.4015 -1.1974  0.0180
  651TIP3    H2 1960   0.390   0.320   2.313 -0.3770 -0.6941  0.7467
  652TIP3   OH2 1961   2.612   2.760   0.130  0.3670  0.3817 -0.1396
  652TIP3    H1 1962   2.635   2.810   0.052 -0.5708 -1.5058 -1.7041
  652TIP3    H2 1963   2.516   2.765   0.135  0.4327  0.7699  1.1179
  653TIP3   OH2 1964   6.205   1.875   4.772  0.2105 -0.2797  0.3033
  653TIP3    H1 1965   6.214   1.858   4.678 -0.1718  1.3372 -0.0600
  653TIP3    H2 1966   6.294   1.896   4.801  0.0232  1.2828 -0.1708
  654TIP3   OH2 1967   0.234   2.138   5.165 -0.1232  0.7028  0.1019
  654TIP3    H1 1968   0.307   2.120   5.106  0.3977  1.4529  0.4915
  654TIP3    H2 1969   0.156   2.134   5.109  0.3757  1.6623 -0.7165
  655TIP3   OH2 1970   0.229   1.752   2.622 -0.3543  0.0589  0.2734
  655TIP3    H1 1971   0.253   1.840   2.651  0.2998 -0.0970  0.2125
  655TIP3    H2 1972   0.228   1.758   2.526  2.1960 -0.6004  0.1190
  656TIP3   OH2 1973   1.329   1.198   0.245  1.0950 -0.0478 -0.6448
  656TIP3    H1 1974   1.332   1.232   0.335 -0.0271 -0.2806 -0.5168
  656TIP3    H2 1975   1.258   1.135   0.245  1.6670 -0.7153 -1.4866
  657TIP3   OH2 1976   5.584   2.542   5.149  0.7030 -0.1288  0.1759
  657TIP3    H1 1977   5.603   2.505   5.236 -0.6951 -0.1459  0.5155
  657TIP3    H2 1978   5.491   2.566   5.154  0.9395  1.1129 -0.8820
  658TIP3   OH2 1979   6.092   3.187   2.953 -0.1928 -0.2346 -0.3249
  658TIP3    H1 1980   6.177   3.206   2.913 -0.1099 -1.0766 -0.5862
  658TIP3    H2 1981   6.095   3.093   2.972  0.3352  0.3336  3.0183
  659TIP3   OH2 1982   4.860   0.646   1.869  0.0172  0.2561  0.3632
  659TIP3    H1 1983   4.862   0.679   1.780 -0.3711  1.2547  0.7071
  659TIP3    H2 1984   4.905   0.562   1.865  3.5169  1.9506 -0.0916
  660TIP3   OH2 1985   3.396   0.389   3.126  0.6382 -0.6241 -0.0327
  660TIP3    H1 1986   3.444   0.335   3.064 -0.1299 -0.7051 -0.5813
  660TIP3    H2 1987   3.339   0.444   3.071 -0.9053 -1.5107  0.5977
  661TIP3   OH2 1988   5.430   0.495   1.904  0.4747 -0.0211  0.9281
  661TIP3    H1 1989   5.372   0.425   1.937  0.6722 -1.0011 -0.7068
  661TIP3    H2 1990   5.453   0.545   1.982 -1.2574 -0.5971  1.8667
  662TIP3   OH2 1991   1.204   5.870   5.125  0.4955  0.1243 -0.6617
  662TIP3    H1 1992   1.208   5.950   5.073 -0.2631 -0.2735 -1.3363
  662TIP3    H2 1993   1.296   5.853   5.149  0.5602  1.8533  0.5466
  663TIP3   OH2 1994   4.347   4.103   3.189 -0.0715  0.2890 -0.3767
  663TIP3    H1 1995   4.361   4.018   3.231  1.2970  1.1455  0.9795
  663TIP3    H2 1996   4.419   4.111   3.126 -0.4292  0.2855 -0.7928
  664TIP3   OH2 1997   5.682   5.440   4.748  0.2538 -0.2200  0.0750
  664TIP3    H1 1998   5.689   5.530   4.781  0.8046 -0.8869  1.9169
  664TIP3    H2 1999   5.752   5.433   4.683  1.2055  0.2530  1.0166
  665TIP3   OH2 2000   5.807   3.581   3.947  0.3426  0.3918 -0.0782
  665TIP3    H1 2001   5.759   3.562   3.867 -0.6080  0.6427  0.4134
  665TIP3    H2 2002   5.739   3.596   4.013  1.0788  1.4038  0.4897
  666TIP3   OH2 2003   6.342   4.837   2.168  0.6855 -0.1332 -0.1947
  666TIP3    H1 2004   6.367   4.745   2.157  1.4343  0.0135  0.1934
  666TIP3    H2 2005   6.361   4.856   2.260 -1.4108 -0.1515  0.2885
  667TIP3   OH2 2006   4.614   2.596   4.487 -0.1417 -0.2795  0.1549
  667TIP3    H1 2007   4.675   2.590   4.560 -0.3103 -1.4179  0.2154
  667TIP3    H2 2008   4.664   2.567   4.411  0.8997  3.4551 -0.7872
  668TIP3   OH2 2009   2.802   4.572   3.031  0.8177 -0.1244  0.6773
  668TIP3    H1 2010   2.827   4.497   2.977  1.2680  1.6860 -1.8380
  668TIP3    H2 2011   2.885   4.603   3.069  1.0679  0.5516 -0.3648
  669TIP3   OH2 2012   5.964   4.716   5.051 -0.2753 -0.6480 -0.1477
  669TIP3    H1 2013   6.036   4.664   5.016  0.3022  0.1087 -0.1331
  669TIP3    H2 2014   5.888   4.692   4.999  0.8872  1.7773 -3.3182
  670TIP3   OH2 2015   0.532   5.629   4.366  0.1077  0.2017  0.3530
  670TIP3    H1 2016   0.473   5.566   4.409  0.0271 -1.1524 -1.6146
  670TIP3    H2 2017   0.486   5.713   4.374 -1.0256 -0.4310  0.8201
  671TIP3   OH2 2018   5.856   5.914   4.969 -0.3649 -0.2163 -0.6509
  671TIP3    H1 2019   5.852   6.010   4.970 -1.1713 -0.2417 -0.2478
  671TIP3    H2 2020   5.945   5.893   4.998 -0.8329  0.3958  1.4390
  672TIP3   OH2 2021   6.002   3.835   0.756  0.7153 -0.1432 -0.4112
  672TIP3    H1 2022   6.047   3.829   0.841  0.3525 -0.2264 -0.2227
  672TIP3    H2 2023   6.030   3.918   0.719 -0.2455  0.5763  0.4358
  673TIP3   OH2 2024   4.108   1.490   3.302 -0.2037 -0.3225  0.6208
  673TIP3    H1 2025   4.029   1.486   3.356 -0.2457 -0.7974  0.5298
  673TIP3    H2 2026   4.084   1.444   3.222  0.7672 -2.2596  1.3666
  674TIP3   OH2 2027   4.469   3.575   1.348 -0.4059  0.0518 -0.5707
  674TIP3    H1 2028   4.387   3.529   1.328 -0.1438 -0.8547  0.3851
  674TIP3    H2 2029   4.473   3.645   1.282 -1.1844 -0.8144 -1.5780
  675TIP3   OH2 2030   3.801   2.012   4.751 -0.1632 -0.2867 -0.1770
  675TIP3    H1 2031   3.752   2.045   4.826  1.8099  0.7673  0.7007
  675TIP3    H2 2032   3.858   1.944   4.787  0.4548 -0.1182 -0.8246
  676TIP3   OH2 2033   3.737   2.081   0.870 -0.6668 -0.1597 -0.1431
  676TIP3    H1 2034   3.672   2.012   0.858 -1.3743  0.4934 -0.1706
  676TIP3    H2 2035   3.737   2.098   0.964  0.6517 -1.2665  0.0824
  677TIP3   OH2 2036   4.000   0.521   3.957 -0.7825 -0.1308 -0.1689
  677TIP3    H1 2037   3.943   0.584   3.913  1.0144  1.4020 -0.4306
  677TIP3    H2 2038   3.997   0.546   4.049 -0.2781  0.1783 -0.2340
  678TIP3   OH2 2039   2.168   2.075   0.927  0.0748 -0.2088  0.0449
  678TIP3    H1 2040   2.259   2.051   0.942  0.1940  0.3290  0.1951
  678TIP3    H2 2041   2.152   2.149   0.986  0.4498  1.7091 -2.1171
  679TIP3   OH2 2042   4.675   4.584   5.149 -0.4773 -0.3301  0.3201
  679TIP3    H1 2043   4.614   4.658   5.152 -0.7549 -0.6023  2.1259
  679TIP3    H2 2044   4.757   4.618   5.184  0.2575 -0.1743 -1.4103
  680TIP3   OH2 2045   3.531   5.198   4.187  0.3056  0.1437 -0.1242
  680TIP3    H1 2046   3.573   5.113   4.174 -0.2888 -0.3450  0.9633
  680TIP3    H2 2047   3.550   5.220   4.278  0.0161  0.9359 -0.2467
  681TIP3   OH2 2048   4.921   0.188   1.859  1.0608 -0.3012 -0.3648
  681TIP3    H1 2049   4.954   0.112   1.810  0.3392 -1.0870  0.3256
  681TIP3    H2 2050   4.826   0.176   1.860  0.8610  1.0520 -0.9130
  682TIP3   OH2 2051   4.677  -0.003   2.480  0.5749 -0.1583  0.5664
  682TIP3    H1 2052   4.685   0.085   2.443 -1.1256  0.3346  1.2701
  682TIP3    H2 2053   4.737  -0.003   2.555  0.7825  0.3016  0.4039
  683TIP3   OH2 2054   0.174   0.185   2.789  0.3404 -0.0082 -0.0929
  683TIP3    H1 2055   0.215   0.145   2.712  2.7593  0.8260  0.6799
  683TIP3    H2 2056   0.154   0.274   2.762 -0.7037 -0.3075 -0.3534
  684TIP3   OH2 2057   3.804   1.629   3.057  0.2168  0.1144 -0.5123
  684TIP3    H1 2058   3.802   1.561   3.124  0.0929 -0.0298 -0.6614
  684TIP3    H2 2059   3.861   1.697   3.093  1.1926 -0.5328 -0.8257
  685TIP3   OH2 2060   3.543   0.151   0.563 -1.1397 -0.3217 -0.0782
  685TIP3    H1 2061   3.480   0.209   0.520 -0.0376 -0.7118 -2.3523
  685TIP3    H2 2062   3.560   0.193   0.647 -2.3568  1.2395 -0.5609
  686TIP3   OH2 2063   4.901   0.745   0.293  0.4202  0.1172 -0.4674
  686TIP3    H1 2064   4.943   0.661   0.279  1.2678  0.5205 -0.3833
  686TIP3    H2 2065   4.808   0.728   0.277  0.2187 -1.3739  1.9183
  687TIP3   OH2 2066   0.834   5.562   4.290 -0.2558  0.4660 -0.3891
  687TIP3    H1 2067   0.757   5.613   4.316  0.5930  0.9208  1.3686
  687TIP3    H2 2068   0.839   5.573   4.195 -2.5222  0.1595 -0.6083
  688TIP3   OH2 2069   6.327   0.759   2.094 -0.2906  0.4100  0.2345
  688TIP3    H1 2070   6.314   0.734   2.185  0.2648 -0.1992  0.1564
  688TIP3    H2 2071   6.240   0.753   2.054 -0.0976 -2.3145  0.0149
  689TIP3   OH2 2072   4.229   4.229   2.756 -0.1982 -0.2645 -0.1021
  689TIP3    H1 2073   4.218   4.186   2.841  0.3592  1.2173  0.7587
  689TIP3    H2 2074   4.290   4.173   2.709  1.8502  0.3666  1.6302
  690TIP3   OH2 2075   4.350   4.937   3.646  0.2004 -0.7302  0.1263
  690TIP3    H1 2076   4.269   4.982   3.669 -0.8517 -3.0889  1.4789
  690TIP3    H2 2077   4.354   4.941   3.551 -2.0578 -1.3699 -0.0535
  691TIP3   OH2 2078   3.855   2.559   4.943 -0.3756  0.1994 -0.3587
  691TIP3    H1 2079   3.897   2.607   5.014 -0.3919  0.6187 -0.6314
  691TIP3    H2 2080   3.903   2.476   4.939  1.0719  1.0378 -1.2936
  692TIP3   OH2 2081   3.244   4.121   3.417 -0.3432 -0.4097 -0.5848
  692TIP3    H1 2082   3.296   4.180   3.362  0.3855 -2.1128 -1.8172
  692TIP3    H2 2083   3.235   4.041   3.365 -2.8416 -0.7778  0.2813
  693TIP3   OH2 2084   1.185   0.273   4.932 -0.3391  0.0546 -0.1178
  693TIP3    H1 2085   1.202   0.266   4.838 -0.1037  1.1308 -0.1721
  693TIP3    H2 2086   1.220   0.359   4.956  1.1780 -0.9026  1.3162
  694TIP3   OH2 2087   1.955   0.144   0.162  0.0207  0.4144  0.2286
  694TIP3    H1 2088   2.025   0.193   0.206  0.4435 -0.8256  0.9880
  694TIP3    H2 2089   1.951   0.182   0.074  1.6461  0.5418  0.1803
  695TIP3   OH2 2090   5.319   3.026   4.741 -0.2434 -0.3491  0.1631
  695TIP3    H1 2091   5.280   2.949   4.782 -1.9916  0.9199  0.9794
  695TIP3    H2 2092   5.400   3.041   4.790  0.1144 -1.6332  0.0012
  696TIP3   OH2 2093   3.258   0.707   4.813  0.5182 -0.2251 -0.1106
  696TIP3    H1 2094   3.275   0.634   4.873 -1.0102 -0.4694  0.0638
  696TIP3    H2 2095   3.297   0.680   4.730 -1.4490 -2.0326 -0.5285
  697TIP3   OH2 2096   2.998   3.101   0.334  0.4153  0.1970 -0.0673
  697TIP3    H1 2097   3.066   3.064   0.278  0.4937  0.2462 -0.0038
  697TIP3    H2 2098   2.936   3.142   0.273  1.0279  1.1436 -0.0563
  698TIP3   OH2 2099   2.314   4.528   0.503 -0.2100  0.7094  0.3609
  698TIP3    H1 2100   2.269   4.550   0.584 -0.8425 -1.5736  0.7019
  698TIP3    H2 2101   2.405   4.515   0.530 -0.6897 -1.5547  1.0711
  699TIP3   OH2 2102   2.465   2.177   3.090 -0.4887 -0.0391  0.0277
  699TIP3    H1 2103   2.448   2.266   3.119 -0.2792 -0.0849  0.2885
  699TIP3    H2 2104   2.560   2.167   3.094 -0.4887 -0.1865 -0.2584
  700TIP3   OH2 2105   2.175   0.540   4.513  0.2281 -0.3762 -0.3040
  700TIP3    H1 2106   2.164   0.502   4.599 -1.3532 -1.3576 -0.9146
  700TIP3    H2 2107   2.173   0.635   4.528 -0.3735 -0.5382  0.6793
  701TIP3   OH2 2108   5.018   0.921   1.254  0.4989  0.1176  0.3706
  701TIP3    H1 2109   5.043   0.851   1.193  0.1917 -0.4925  0.9267
  701TIP3    H2 2110   5.030   1.002   1.205  0.3242 -0.3608 -0.4729
  702TIP3   OH2 2111   4.577   3.206   3.531  0.4401  0.0912  0.0863
  702TIP3    H1 2112   4.603   3.294   3.559 -0.2891  0.3262  0.0528
  702TIP3    H2 2113   4.574   3.212   3.435  0.9409 -0.1342  0.0542
  703TIP3   OH2 2114   2.183   4.567   2.950 -0.0590  0.0202 -0.3102
  703TIP3    H1 2115   2.166   4.615   3.031  2.2141  2.0658 -0.9303
  703TIP3    H2 2116   2.275   4.585   2.930 -1.0508  1.5218 -4.4866
  704TIP3   OH2 2117   4.485   5.165   3.866 -0.2572 -0.1574 -0.1801
  704TIP3    H1 2118   4.506   5.187   3.957 -1.0796 -0.3322  0.0601
  704TIP3    H2 2119   4.547   5.096   3.843  0.2376  0.1850  0.1035
  705TIP3   OH2 2120   0.040   2.080   0.205  0.0676  0.3045  0.0116
  705TIP3    H1 2121   0.011   2.076   0.114 -0.6803 -1.4973  0.2895
  705TIP3    H2 2122  -0.040   2.077   0.257  0.4911 -4.0359  0.7807
  706TIP3   OH2 2123   2.099   2.417   0.038  0.4107  0.4712 -0.1785
  706TIP3    H1 2124   2.143   2.371   0.109  1.4183  0.5300 -0.7553
  706TIP3    H2 2125   2.103   2.510   0.063 -2.3085  0.2757  1.3726
  707TIP3   OH2 2126   1.133   1.649   1.973  0.0334  0.2359 -0.0780
  707TIP3    H1 2127   1.170   1.666   1.887  0.5382  1.8047  0.4211
  707TIP3    H2 2128   1.046   1.690   1.970 -0.4863 -0.8415 -0.2520
  708TIP3   OH2 2129   5.990   3.232   4.942 -0.4487  0.0429 -0.0843
  708TIP3    H1 2130   6.025   3.173   5.009 -2.6067 -1.3008 -0.0127
  708TIP3    H2 2131   6.039   3.313   4.952  1.1866 -1.0569  1.2428
  709TIP3   OH2 2132   0.488   0.184   1.477  0.2723  0.2328  0.2164
  709TIP3    H1 2133   0.509   0.256   1.418  0.6757  0.1694  0.2788
  709TIP3    H2 2134   0.556   0.118   1.459  0.7101  0.4236  1.1181
  710TIP3   OH2 2135   4.057   1.062   3.180  0.2058 -0.0243 -0.5088
  710TIP3    H1 2136   4.136   1.117   3.178  0.4892 -0.3338  0.8503
  710TIP3    H2 2137   3.988   1.122   3.208  0.4685 -0.2702  0.7375
  711TIP3   OH2 2138   2.414   4.776   0.784 -0.0513 -0.1921  0.1247
  711TIP3    H1 2139   2.407   4.815   0.871 -0.6360 -0.0352  0.0083
  711TIP3    H2 2140   2.356   4.700   0.788  0.4346 -0.5680  0.0811
  712TIP3   OH2 2141   1.337   4.102   0.113  0.0875  0.4399  0.3176
  712TIP3    H1 2142   1.413   4.121   0.169 -0.5724  1.1667  0.9859
  712TIP3    H2 2143   1.310   4.014   0.140 -1.3531  1.4753  2.5400
  713TIP3   OH2 2144   3.229   5.915   1.151  0.0996  0.4629  0.2826
  713TIP3    H1 2145   3.239   5.870   1.067 -2.8000  1.4251 -0.7058
  713TIP3    H2 2146   3.184   5.997   1.129 -3.1882 -0.3725  2.9220
  714TIP3   OH2 2147   5.993   2.900   5.072  0.1406 -0.7287 -0.1031
  714TIP3    H1 2148   6.062   2.928   5.132 -1.1152  0.4854  0.8548
  714TIP3    H2 2149   5.915   2.947   5.102 -0.6698 -0.5107 -2.3868
  715TIP3   OH2 2150   1.724   5.672   3.049  0.3484 -0.4900 -0.2674
  715TIP3    H1 2151   1.696   5.581   3.040  2.2216 -1.0732 -0.4773
  715TIP3    H2 2152   1.812   5.667   3.086  0.6945  1.2139 -0.7889
  716TIP3   OH2 2153   4.532   5.182   2.597 -0.2146  0.0742 -0.1568
  716TIP3    H1 2154   4.497   5.145   2.516 -0.1749 -1.3855  0.4665
  716TIP3    H2 2155   4.501   5.123   2.666 -0.1285  1.2006  0.8906
  717TIP3   OH2 2156   3.726   1.390   3.148  0.9463 -0.3711 -0.0189
  717TIP3    H1 2157   3.697   1.405   3.058 -1.3255 -0.8181  0.5705
  717TIP3    H2 2158   3.650   1.352   3.192  2.5574 -1.8898  1.6534
  718TIP3   OH2 2159   0.192   3.644   3.076  0.1163  0.0711 -0.0840
  718TIP3    H1 2160   0.155   3.732   3.062 -3.2309 -1.3099 -0.8781
  718TIP3    H2 2161   0.204   3.638   3.171  1.7414  1.8015 -0.1192
  719TIP3   OH2 2162   4.172   1.986   3.436  0.2212  0.1817  0.5955
  719TIP3    H1 2163   4.235   1.942   3.493 -0.5104 -1.7836 -0.0297
  719TIP3    H2 2164   4.092   1.993   3.489  0.4404  1.1284  0.8164
  720TIP3   OH2 2165   4.015   0.101   2.454  0.0237  0.6030  0.2081
  720TIP3    H1 2166   3.960   0.024   2.439  0.9694  0.2631 -1.9215
  720TIP3    H2 2167   3.962   0.175   2.424  0.0247  0.4970 -0.0555
  721TIP3   OH2 2168   4.782   3.310   4.942  0.1510  0.2797 -0.0567
  721TIP3    H1 2169   4.868   3.293   4.981 -0.7004  0.8537  2.3022
  721TIP3    H2 2170   4.725   3.245   4.981 -0.3270 -0.9210 -2.5762
  722TIP3   OH2 2171   0.403   1.116   3.469 -0.0280 -0.3327 -0.3305
  722TIP3    H1 2172   0.452   1.194   3.497  1.4762 -1.1621 -0.5637
  722TIP3    H2 2173   0.392   1.128   3.375 -0.2535 -0.1575 -0.2826
  723TIP3   OH2 2174   2.296   3.287   2.681  0.3771  0.2838 -0.3030
  723TIP3    H1 2175   2.260   3.265   2.767 -1.3590  1.5636 -0.6473
  723TIP3    H2 2176   2.336   3.205   2.651 -0.5861 -0.7123  0.9493
  724TIP3   OH2 2177   2.278   0.130   4.689  0.4161  0.2526 -0.0870
  724TIP3    H1 2178   2.358   0.147   4.638  0.7348 -2.0663 -0.4923
  724TIP3    H2 2179   2.307   0.072   4.759 -0.5906  1.0010  0.9867
  725TIP3   OH2 2180   0.549   4.463   0.102 -0.7598 -0.4599 -0.4874
  725TIP3    H1 2181   0.600   4.510   0.036  1.6381 -1.3719  0.5895
  725TIP3    H2 2182   0.458   4.480   0.079 -0.0039  0.7991 -2.8793
  726TIP3   OH2 2183   1.322   5.672   1.204 -0.5217 -0.0382  0.2403
  726TIP3    H1 2184   1.373   5.751   1.188  0.2316 -0.1391  1.8869
  726TIP3    H2 2185   1.384   5.600   1.194 -0.8621 -0.3213  0.1414
  727TIP3   OH2 2186   0.140   2.207   1.856 -0.4528 -0.2533 -0.2163
  727TIP3    H1 2187   0.102   2.119   1.847 -0.3094 -0.1741 -1.8236
  727TIP3    H2 2188   0.087   2.249   1.924 -0.4276 -1.6147  0.6961
  728TIP3   OH2 2189   0.438   0.604   0.980 -0.3964 -0.2121 -0.7227
  728TIP3    H1 2190   0.367   0.607   1.044  0.8890  0.2279  0.7267
  728TIP3    H2 2191   0.472   0.515   0.986 -1.0918 -0.5689 -1.7579
  729TIP3   OH2 2192   6.137   3.420   5.109 -0.1213 -0.5362 -0.2147
  729TIP3    H1 2193   6.138   3.496   5.050  0.7318 -0.0629  0.3887
  729TIP3    H2 2194   6.063   3.436   5.167  1.2444  0.8963  1.2243
  730TIP3   OH2 2195   2.732   2.943   1.040  0.3841  0.1078  0.5407
  730TIP3    H1 2196   2.816   2.962   1.082  0.4910  1.1428 -0.0989
  730TIP3    H2 2197   2.693   3.029   1.024 -1.3494 -0.3618  1.8781
  731TIP3   OH2 2198   1.731   2.404   4.647  0.4324 -0.2690  0.2821
  731TIP3    H1 2199   1.738   2.461   4.723  0.7475  0.6900 -0.4531
  731TIP3    H2 2200   1.656   2.347   4.666  1.3514 -1.0025  1.9202
  732TIP3   OH2 2201   4.196   0.029   1.088 -0.3211 -0.0474  0.3101
  732TIP3    H1 2202   4.199   0.124   1.098  1.3663  0.0357 -0.6632
  732TIP3    H2 2203   4.273   0.008   1.035 -0.9171 -1.9133  0.1189
  733TIP3   OH2 2204   6.283   0.798   1.494  0.2650  0.4177  0.1746
  733TIP3    H1 2205   6.220   0.858   1.455 -0.5316  1.0525  2.3006
  733TIP3    H2 2206   6.362   0.851   1.507  0.0419  0.6062  0.7532
  734TIP3   OH2 2207   4.474   5.536   5.169  0.1404  0.0289 -0.2129
  734TIP3    H1 2208   4.403   5.515   5.109  0.5837  1.0433 -1.1142
  734TIP3    H2 2209   4.551   5.547   5.113  0.1197  3.1993  0.2212
  735TIP3   OH2 2210   3.862   5.886   4.739 -0.5129  0.2184 -0.5314
  735TIP3    H1 2211   3.813   5.940   4.801  0.4680  0.9335 -0.3517
  735TIP3    H2 2212   3.887   5.947   4.669  3.0961  0.8284  1.0444
  736TIP3   OH2 2213   5.713   5.945   1.141  0.2712 -0.0801  0.0410
  736TIP3    H1 2214   5.747   6.034   1.155  1.7765 -0.5849 -0.2349
  736TIP3    H2 2215   5.635   5.957   1.087  0.4205  1.0804  0.0635
  737TIP3   OH2 2216   1.044   4.168   3.092 -0.1618 -0.1652 -0.0675
  737TIP3    H1 2217   0.972   4.123   3.136  0.2426 -0.6844  0.0760
  737TIP3    H2 2218   1.095   4.097   3.052 -0.3083  0.2764 -1.0397
  738TIP3   OH2 2219   4.612   3.457   2.007 -0.3989  0.1657  0.5774
  738TIP3    H1 2220   4.686   3.482   1.953 -1.9561 -0.7489 -2.1690
  738TIP3    H2 2221   4.564   3.539   2.021 -0.1639  0.3540  0.2936
  739TIP3   OH2 2222   4.566   4.232   1.766  0.2246 -0.2592  1.0054
  739TIP3    H1 2223   4.497   4.186   1.718  0.3328  0.9028 -0.3348
  739TIP3    H2 2224   4.574   4.185   1.849 -0.7237 -1.6812  0.3180
  740TIP3   OH2 2225   0.024   1.818   2.084 -0.1834  0.2470  0.2084
  740TIP3    H1 2226   0.106   1.863   2.067 -1.4668  2.9141  0.5986
  740TIP3    H2 2227  -0.009   1.795   1.997  0.6067 -0.2224  0.0205
  741TIP3   OH2 2228   3.896   0.793   2.138  0.3335 -0.2195  0.5571
  741TIP3    H1 2229   3.879   0.785   2.044  1.4669  1.5109  0.1508
  741TIP3    H2 2230   3.810   0.815   2.176  0.2176  1.1652 -0.4093
  742TIP3   OH2 2231   2.060   1.199   3.547  0.3205 -0.8265 -0.3291
  742TIP3    H1 2232   1.980   1.161   3.584  1.0041 -1.4557  0.5199
  742TIP3    H2 2233   2.065   1.161   3.459 -0.6422 -0.2808 -0.6450
  743TIP3   OH2 2234   4.116   4.483   0.380  0.4660  0.0829  0.8556
  743TIP3    H1 2235   4.088   4.549   0.444  1.9648  0.1001  1.5332
  743TIP3    H2 2236   4.097   4.523   0.295  0.5001  1.0155  1.2704
  744TIP3   OH2 2237   5.794   5.660   4.351  0.1380 -0.8929 -0.1284
  744TIP3    H1 2238   5.771   5.576   4.311 -0.9352 -1.0329  0.7392
  744TIP3    H2 2239   5.883   5.678   4.320 -0.3658 -1.3604 -1.9518
  745TIP3   OH2 2240   2.138   3.559   4.718  0.1951 -0.5621  0.0600
  745TIP3    H1 2241   2.117   3.528   4.630  1.0842 -1.2513  0.0813
  745TIP3    H2 2242   2.192   3.636   4.705  0.3991 -0.7151 -0.0020
  746TIP3   OH2 2243   3.998   5.313   3.818 -0.1347  0.7919 -0.2703
  746TIP3    H1 2244   3.908   5.327   3.789  0.1355  1.5063 -0.8130
  746TIP3    H2 2245   3.991   5.285   3.909 -0.8763  1.4379 -0.1228
  747TIP3   OH2 2246   2.519   2.312   2.755 -0.0567 -0.2172  0.3684
  747TIP3    H1 2247   2.461   2.252   2.708  0.3920  0.4325 -1.0593
  747TIP3    H2 2248   2.606   2.293   2.721 -0.0381  1.9773 -0.9920
  748TIP3   OH2 2249   5.580   1.342   1.507 -0.3196 -0.0014 -0.1243
  748TIP3    H1 2250   5.575   1.271   1.442 -1.8235 -0.7085  0.7110
  748TIP3    H2 2251   5.563   1.422   1.456 -0.6271 -0.4494 -0.7375
  749TIP3   OH2 2252   2.979   0.880   4.773 -0.2125  0.1364 -0.2934
  749TIP3    H1 2253   2.916   0.938   4.817  0.2011  0.2190  0.1966
  749TIP3    H2 2254   2.960   0.891   4.680 -0.5829  0.5539 -0.1730
  750TIP3   OH2 2255   1.507   2.958   1.742 -0.1975  0.0215 -0.1818
  750TIP3    H1 2256   1.560   2.903   1.685  1.5905 -1.4834  2.6532
  750TIP3    H2 2257   1.522   3.047   1.712  2.0164 -0.5802 -1.0008
  751TIP3   OH2 2258   5.023   2.854   3.517 -0.2912  0.6342 -0.2159
  751TIP3    H1 2259   5.006   2.866   3.611 -2.0364 -2.7615  0.0583
  751TIP3    H2 2260   4.940   2.875   3.475 -0.6646 -1.2634 -0.5370
  752TIP3   OH2 2261   2.488   0.708   5.015 -0.0843 -0.3174 -0.5904
  752TIP3    H1 2262   2.505   0.669   4.929  2.9789 -1.3044  0.3723
  752TIP3    H2 2263   2.573   0.714   5.057 -1.5729 -0.9223  2.8825
  753TIP3   OH2 2264   3.598   0.404   4.832 -0.3188 -0.5233  0.3007
  753TIP3    H1 2265   3.618   0.336   4.896 -1.0854 -0.4905  0.5838
  753TIP3    H2 2266   3.591   0.484   4.884 -0.1599 -0.3545  0.0658
  754TIP3   OH2 2267   5.245   4.914   1.069  0.1057 -0.3746 -0.0721
  754TIP3    H1 2268   5.181   4.968   1.115  1.5850  0.6938  0.8207
  754TIP3    H2 2269   5.330   4.950   1.095  1.0585 -0.3985 -2.8500
  755TIP3   OH2 2270   5.000   2.908   1.283 -0.5730  0.3777  0.5443
  755TIP3    H1 2271   4.920   2.858   1.297  0.6319 -1.2863  1.8766
  755TIP3    H2 2272   4.994   2.980   1.346 -0.6523 -0.2325  1.2503
  756TIP3   OH2 2273   0.857   1.649   1.707  0.1661 -0.1234 -0.2026
  756TIP3    H1 2274   0.787   1.621   1.648 -0.1394  0.5022 -0.1462
  756TIP3    H2 2275   0.812   1.673   1.788 -0.0768  3.6914 -1.2580
  757TIP3   OH2 2276   0.024   2.381   2.046  0.0840  0.0021  0.4107
  757TIP3    H1 2277  -0.069   2.388   2.067 -0.4020  0.6136 -1.6986
  757TIP3    H2 2278   0.069   2.399   2.129 -1.6353 -2.0253  1.9052
  758TIP3   OH2 2279   0.803   1.751   0.131  0.5396 -0.2706 -0.0289
  758TIP3    H1 2280   0.779   1.842   0.114 -0.3627 -0.0439  2.0537
  758TIP3    H2 2281   0.881   1.757   0.187  0.6694 -0.7833 -0.1500
  759TIP3   OH2 2282   5.463   0.013   2.775 -0.5132 -0.8200 -0.0675
  759TIP3    H1 2283   5.385  -0.009   2.723  0.2407 -3.6517 -0.1817
  759TIP3    H2 2284   5.434   0.005   2.866 -0.9881  0.8398 -0.0402
  760TIP3   OH2 2285   5.491   1.083   4.063 -0.2760 -0.0040 -0.1405
  760TIP3    H1 2286   5.499   1.167   4.018 -1.2909 -0.7304 -1.7366
  760TIP3    H2 2287   5.580   1.062   4.091  0.5521  0.1165 -2.5247
  761TIP3   OH2 2288   3.167   4.369   4.576 -0.1155  0.2064 -0.1753
  761TIP3    H1 2289   3.223   4.291   4.580  1.5350  1.3456 -0.0623
  761TIP3    H2 2290   3.137   4.373   4.485  1.1970  0.3560 -0.6257
  762TIP3   OH2 2291   5.152   2.326   4.302 -0.2822 -0.2363 -0.3948
  762TIP3    H1 2292   5.111   2.253   4.348 -0.6925  0.3369  0.1698
  762TIP3    H2 2293   5.106   2.404   4.334 -0.2466  0.2253 -1.4193
  763TIP3   OH2 2294   4.344   2.281   4.395  0.1122 -0.0656  0.5188
  763TIP3    H1 2295   4.368   2.203   4.344 -1.4728 -0.4450  0.3148
  763TIP3    H2 2296   4.376   2.355   4.343  0.7182 -0.5403  0.2055
  764TIP3   OH2 2297   5.133   3.509   1.262  0.0262 -0.8790 -0.6004
  764TIP3    H1 2298   5.221   3.534   1.289 -1.3295  0.7336  2.8746
  764TIP3    H2 2299   5.103   3.581   1.206  0.3312 -0.6140 -0.4208
  765TIP3   OH2 2300   2.859   5.667   3.286  0.5580  0.0418 -0.3024
  765TIP3    H1 2301   2.806   5.695   3.211 -0.1329  1.3618  0.6288
  765TIP3    H2 2302   2.946   5.651   3.250 -0.2471 -1.4320 -1.7368
  766TIP3   OH2 2303   2.182   1.953   4.785 -0.1091 -0.0082 -0.0060
  766TIP3    H1 2304   2.114   2.021   4.793 -0.7598 -0.7073  0.5872
  766TIP3    H2 2305   2.186   1.934   4.692  1.0526  1.7929 -0.3847
  767TIP3   OH2 2306   1.472   2.935   4.692  0.6145  0.1540 -0.3264
  767TIP3    H1 2307   1.549   2.938   4.748 -0.1996 -0.0726  0.8448
  767TIP3    H2 2308   1.495   2.874   4.622  0.7676 -1.5768  1.1642
  768TIP3   OH2 2309   5.444   0.606   0.157 -0.2178  0.4151  0.7428
  768TIP3    H1 2310   5.464   0.536   0.219  2.6096  1.0267  0.6635
  768TIP3    H2 2311   5.368   0.650   0.194 -0.3384 -0.9657  2.2592
  769TIP3   OH2 2312   4.959   4.064   1.578 -0.2355  0.1188  0.0103
  769TIP3    H1 2313   4.900   4.083   1.651  0.4249 -2.1125  1.1895
  769TIP3    H2 2314   5.012   4.143   1.569 -1.3905  1.0304  0.8813
  770TIP3   OH2 2315   4.205   0.794   3.566 -0.5525  0.7060  0.1421
  770TIP3    H1 2316   4.164   0.722   3.612  0.3896 -0.8632 -1.3234
  770TIP3    H2 2317   4.137   0.829   3.508 -1.2097  1.4901  1.3609
  771TIP3   OH2 2318   4.544   2.407   0.902 -0.3975 -0.1823 -0.8068
  771TIP3    H1 2319   4.622   2.359   0.873 -0.3524  0.2999 -1.5171
  771TIP3    H2 2320   4.474   2.341   0.899  0.0021 -0.6599 -0.0034
  772TIP3   OH2 2321   3.784   2.818   0.776 -0.4588  0.8054  0.0782
  772TIP3    H1 2322   3.698   2.780   0.757 -0.5481  1.0694 -0.0424
  772TIP3    H2 2323   3.808   2.863   0.695 -0.6672  1.6123  0.4617
  773TIP3   OH2 2324   0.238   5.597   0.836 -0.0181  0.2704 -0.2577
  773TIP3    H1 2325   0.280   5.511   0.832 -1.4065 -0.4784  0.5316
  773TIP3    H2 2326   0.195   5.606   0.751  3.0079  1.7987 -1.7801
  774TIP3   OH2 2327   4.161   0.254   3.880  0.4116  0.3516  0.4441
  774TIP3    H1 2328   4.140   0.190   3.811  1.8899 -2.3070  2.3130
  774TIP3    H2 2329   4.246   0.289   3.856  0.0603  0.9094 -0.0354
  775TIP3   OH2 2330   0.753   4.943   1.677 -0.5112 -0.3921  0.6477
  775TIP3    H1 2331   0.745   5.038   1.663 -0.9060 -0.2828  1.5869
  775TIP3    H2 2332   0.681   4.905   1.627  0.2164 -0.2851 -0.5252
  776TIP3   OH2 2333   3.643   3.240   0.702 -0.3078 -0.4023  0.4092
  776TIP3    H1 2334   3.547   3.241   0.699 -0.3363 -1.6781 -2.2015
  776TIP3    H2 2335   3.664   3.169   0.763 -1.0224 -0.2978  0.7865
  777TIP3   OH2 2336   2.353   4.005   0.676  0.1667 -0.1861  0.0699
  777TIP3    H1 2337   2.331   4.096   0.660 -0.1604 -0.0047  1.3991
  777TIP3    H2 2338   2.430   4.008   0.732 -0.2506 -0.6876  0.6958
  778TIP3   OH2 2339   5.767   0.502   0.312  0.3605 -0.3250 -0.6114
  778TIP3    H1 2340   5.756   0.408   0.305 -0.2381 -0.3552  0.5111
  778TIP3    H2 2341   5.679   0.538   0.298  0.6518  0.1045 -1.4315
  779TIP3   OH2 2342   1.320   5.489   3.803 -0.2539 -0.2154 -0.5865
  779TIP3    H1 2343   1.329   5.571   3.753 -0.0235 -0.4802 -0.9882
  779TIP3    H2 2344   1.406   5.447   3.795  0.7517  1.0294  2.3754
  780TIP3   OH2 2345   1.287   1.799   1.191  0.2910  0.0063  0.1060
  780TIP3    H1 2346   1.355   1.750   1.236  1.3576  0.3376 -1.0804
  780TIP3    H2 2347   1.319   1.808   1.101  0.6073  3.6502  0.4402
  781TIP3   OH2 2348   4.163   1.977   0.438  0.1142  0.3540  0.1902
  781TIP3    H1 2349   4.198   2.051   0.389  0.1512  2.5398  3.2355
  781TIP3    H2 2350   4.083   2.011   0.478 -0.0871 -1.4004  1.3614
  782TIP3   OH2 2351   5.822   0.967   2.525  0.0280 -0.2278  0.5121
  782TIP3    H1 2352   5.742   1.015   2.544 -0.1729  0.6969 -2.2473
  782TIP3    H2 2353   5.794   0.875   2.519 -1.2115  0.2288 -1.8268
  783TIP3   OH2 2354   1.756   3.398   4.313 -0.0962 -0.4676  0.0046
  783TIP3    H1 2355   1.777   3.486   4.281  1.0432 -0.9157 -0.5011
  783TIP3    H2 2356   1.803   3.391   4.396 -0.2243 -0.5883  0.0675
  784TIP3   OH2 2357   4.548   5.274   4.185  0.3968 -0.4882 -0.0982
  784TIP3    H1 2358   4.496   5.195   4.201 -0.4036  0.4041  1.9641
  784TIP3    H2 2359   4.607   5.280   4.259  1.0821  0.3762 -0.6936
  785TIP3   OH2 2360   4.199   5.074   2.803  0.6573  0.0080  0.1371
  785TIP3    H1 2361   4.266   5.039   2.863  0.2398 -0.8315  0.1283
  785TIP3    H2 2362   4.224   5.041   2.717  0.1937 -0.3862  0.1461
  786TIP3   OH2 2363   4.299   1.487   2.575  0.1603  0.7257 -0.0257
  786TIP3    H1 2364   4.349   1.569   2.577  0.2634  0.6528  2.0631
  786TIP3    H2 2365   4.354   1.423   2.619 -1.0231  0.2168  0.7714
  787TIP3   OH2 2366   3.512   1.607   2.122  0.0363 -0.4419  0.2925
  787TIP3    H1 2367   3.501   1.580   2.214  1.6213 -0.5339  0.4722
  787TIP3    H2 2368   3.606   1.608   2.108 -0.1824 -2.2800 -1.9171
  788TIP3   OH2 2369   4.281   3.471   3.072  0.3764  0.0749  0.0865
  788TIP3    H1 2370   4.299   3.490   3.165  1.2766  2.4935 -0.5119
  788TIP3    H2 2371   4.340   3.399   3.051 -0.1090 -0.7660  1.4636
  789TIP3   OH2 2372   5.473   2.463   1.035 -0.6917 -0.1760  0.2030
  789TIP3    H1 2373   5.530   2.527   0.992 -1.2131 -0.1372 -0.4531
  789TIP3    H2 2374   5.474   2.387   0.977  0.6953 -1.1726  1.4588
  790TIP3   OH2 2375   5.757   4.493   5.161  0.0897  0.1696 -0.4224
  790TIP3    H1 2376   5.701   4.479   5.084  2.2431 -1.3065 -1.8497
  790TIP3    H2 2377   5.830   4.431   5.149  2.0314  1.9549  1.2995
  791TIP3   OH2 2378   6.352   4.276   3.417  0.1376 -0.4407  0.2321
  791TIP3    H1 2379   6.268   4.234   3.438 -1.3735  2.1417 -0.2599
  791TIP3    H2 2380   6.410   4.247   3.487 -1.5251 -1.3239  1.3336
  792TIP3   OH2 2381   6.247   2.215   2.365 -0.0769  0.0582  0.0279
  792TIP3    H1 2382   6.226   2.305   2.344  0.1710  0.0294 -0.3498
  792TIP3    H2 2383   6.233   2.208   2.460 -2.0102 -0.0274 -0.2148
  793TIP3   OH2 2384   6.174   1.558   4.727  0.3874  0.3031 -0.3204
  793TIP3    H1 2385   6.217   1.603   4.654 -0.6227 -0.8172 -1.6363
  793TIP3    H2 2386   6.216   1.596   4.805  1.7881  1.2292 -1.4580
  794TIP3   OH2 2387   4.607   3.060   3.966 -0.1755 -0.2354 -0.1509
  794TIP3    H1 2388   4.580   3.075   3.875 -0.6849 -0.7815 -0.0916
  794TIP3    H2 2389   4.529   3.026   4.009 -0.4500  1.5822  0.9166
  795TIP3   OH2 2390   3.552   5.109   3.629  0.0711 -0.3958  0.0691
  795TIP3    H1 2391   3.465   5.120   3.667  0.1501 -1.6342  0.6664
  795TIP3    H2 2392   3.546   5.150   3.543 -0.7188  0.6480  0.5950
  796TIP3   OH2 2393   1.051   3.325   2.812  0.2044  0.0508  0.2183
  796TIP3    H1 2394   1.096   3.319   2.896  0.9636  0.1825 -0.1639
  796TIP3    H2 2395   1.052   3.418   2.790 -1.6967  0.2920  0.9360
  797TIP3   OH2 2396   2.948   0.254   2.057  0.2932  0.1292  0.0494
  797TIP3    H1 2397   3.005   0.330   2.060  0.7826 -0.2575  1.2864
  797TIP3    H2 2398   2.871   0.279   2.108  0.2104 -0.0125 -0.0034
  798TIP3   OH2 2399   6.083   0.567   3.030 -0.1684 -0.1579 -0.4083
  798TIP3    H1 2400   6.105   0.524   2.948  0.4445  0.2770 -0.4799
  798TIP3    H2 2401   6.161   0.618   3.052 -0.8373  0.8370 -0.2805
  799TIP3   OH2 2402   6.192   2.990   3.244  0.0236  0.1299  1.0880
  799TIP3    H1 2403   6.190   3.085   3.234  1.0667 -0.0050 -0.9891
  799TIP3    H2 2404   6.205   2.957   3.155 -1.2279 -2.0195  1.6200
  800TIP3   OH2 2405   1.643   3.982   4.478  0.1350 -0.7559  0.5736
  800TIP3    H1 2406   1.607   4.011   4.394  1.0691  1.6056  0.9339
  800TIP3    H2 2407   1.658   3.888   4.465 -0.9973 -0.7407 -1.4184
  801TIP3   OH2 2408   4.336   3.063   2.026  0.1796  0.4156 -0.2084
  801TIP3    H1 2409   4.360   3.044   1.935  1.7119  3.0816 -0.4635
  801TIP3    H2 2410   4.410   3.113   2.060 -0.6273  0.0085  2.3560
  802TIP3   OH2 2411   2.829   1.392   2.472 -0.3116  0.0699 -0.3314
  802TIP3    H1 2412   2.827   1.331   2.546 -2.0758 -0.6269 -0.8997
  802TIP3    H2 2413   2.826   1.479   2.513 -0.3976 -0.2869  0.4332
  803TIP3   OH2 2414   6.075   4.948   3.211 -0.2035  0.1845  0.8350
  803TIP3    H1 2415   6.142   4.979   3.272 -0.5863 -0.8866  1.8254
  803TIP3    H2 2416   6.070   4.854   3.225  1.5331 -0.6079 -2.7144
  804TIP3   OH2 2417   4.572   4.585   3.827  0.0027  0.6620 -0.0058
  804TIP3    H1 2418   4.512   4.657   3.847  0.3226  1.0296 -0.3631
  804TIP3    H2 2419   4.659   4.623   3.834  0.2751 -0.1587  1.6800
  805TIP3   OH2 2420   2.334   5.171   3.934 -0.4319  0.1385 -0.2096
  805TIP3    H1 2421   2.383   5.090   3.947  0.0439  0.6398  1.3235
  805TIP3    H2 2422   2.378   5.215   3.862  1.6152  0.6950  1.2885
  806TIP3   OH2 2423   0.494   4.973   4.432 -0.0622 -0.0599 -0.1439
  806TIP3    H1 2424   0.444   4.951   4.511 -0.3526 -0.5992 -0.4738
  806TIP3    H2 2425   0.521   5.063   4.446  0.4374 -0.3445  0.8682
  807TIP3   OH2 2426   3.817   1.607   1.625  0.5454  0.0914 -0.0881
  807TIP3    H1 2427   3.848   1.523   1.660  1.2499  0.1166 -0.6320
  807TIP3    H2 2428   3.885   1.633   1.562  0.0341  0.7741 -0.3646
  808TIP3   OH2 2429   3.948   4.437   1.353  0.2449 -0.0105  0.2792
  808TIP3    H1 2430   4.009   4.445   1.280  0.7628 -1.5288  0.4989
  808TIP3    H2 2431   4.003   4.445   1.431  0.0699 -0.6582  0.4801
  809TIP3   OH2 2432   1.281   4.428   1.674 -0.1037 -0.0274  0.0416
  809TIP3    H1 2433   1.336   4.506   1.677  0.9031 -0.6005 -1.8079
  809TIP3    H2 2434   1.210   4.446   1.736  0.6963  1.8691  0.4808
  810TIP3   OH2 2435   4.786   0.196   4.821 -0.2786  0.1556 -0.0781
  810TIP3    H1 2436   4.879   0.208   4.804 -0.0055  0.4788  1.4762
  810TIP3    H2 2437   4.764   0.115   4.775  0.8902 -0.1885 -0.0744
  811TIP3   OH2 2438   5.371   3.116   1.153 -0.1912  0.2369 -0.2500
  811TIP3    H1 2439   5.324   3.034   1.136 -2.0362  1.2316 -0.1992
  811TIP3    H2 2440   5.424   3.097   1.231 -0.3617 -0.9889 -0.4140
  812TIP3   OH2 2441   0.305   3.308   3.998 -0.1008 -0.0164 -0.2541
  812TIP3    H1 2442   0.374   3.337   4.058  0.0431 -0.8921  0.0154
  812TIP3    H2 2443   0.229   3.296   4.054 -0.2173  0.0412 -0.4015
  813TIP3   OH2 2444   4.789   4.185   3.787 -0.2162  0.8356  0.1953
  813TIP3    H1 2445   4.721   4.208   3.850 -0.6538  0.1841 -0.0336
  813TIP3    H2 2446   4.745   4.130   3.723  0.7679 -0.4749  0.6098
  814TIP3   OH2 2447   1.003   2.781   0.761  0.2546  0.2845  0.3677
  814TIP3    H1 2448   1.098   2.788   0.754  0.2885  1.2237  1.3474
  814TIP3    H2 2449   0.985   2.688   0.756  0.9809  0.2257 -2.2097
  815TIP3   OH2 2450   4.541   2.851   3.484  0.0121 -0.0770  0.4291
  815TIP3    H1 2451   4.539   2.765   3.526 -1.1905 -0.0964  0.3473
  815TIP3    H2 2452   4.542   2.914   3.557 -2.0546 -0.1109  0.5436
  816TIP3   OH2 2453   5.753   1.764   4.112 -0.0232 -0.3604  0.4281
  816TIP3    H1 2454   5.732   1.833   4.049  0.8906 -1.2196 -0.8559
  816TIP3    H2 2455   5.813   1.806   4.174 -0.9743  0.5089  0.8003
  817TIP3   OH2 2456   3.768   1.093   3.309 -0.7108  0.0299  0.4244
  817TIP3    H1 2457   3.772   1.007   3.267 -0.1174 -0.0152  0.5605
  817TIP3    H2 2458   3.679   1.124   3.293 -0.6625 -0.2278 -0.3891
  818TIP3   OH2 2459   0.752   4.223   2.670  0.1471  0.2183  0.1341
  818TIP3    H1 2460   0.774   4.211   2.577 -0.5711 -0.7573  0.0679
  818TIP3    H2 2461   0.829   4.266   2.707  0.0988  1.4509 -1.0842
  819TIP3   OH2 2462   0.032   0.924   0.776  0.2497  0.0122  0.3991
  819TIP3    H1 2463   0.065   0.990   0.714  0.6029 -1.7035 -1.3420
  819TIP3    H2 2464   0.065   0.952   0.861  1.0117  1.6757 -0.3900
  820TIP3   OH2 2465   1.181   1.652   2.594 -0.1230  0.3741 -0.0461
  820TIP3    H1 2466   1.115   1.718   2.613 -0.3552  0.3696 -0.8083
  820TIP3    H2 2467   1.179   1.642   2.498  0.8540  0.2464 -0.0645
  821TIP3   OH2 2468   1.027   4.573   4.054  0.7158  1.0539  0.4369
  821TIP3    H1 2469   1.051   4.663   4.076  0.0155  0.9937  1.5015
  821TIP3    H2 2470   1.109   4.524   4.059  0.5566  0.9345  3.5563
  822TIP3   OH2 2471   5.403   3.494   3.067 -0.2126 -0.1435 -0.3946
  822TIP3    H1 2472   5.406   3.461   2.977 -0.0063  0.8620 -0.7669
  822TIP3    H2 2473   5.493   3.516   3.088 -0.4839  1.2089 -0.5555
  823TIP3   OH2 2474   4.658   5.978   3.935 -0.8669  0.0024  0.4308
  823TIP3    H1 2475   4.612   5.917   3.877 -0.5553 -1.0826  1.3028
  823TIP3    H2 2476   4.618   6.063   3.916 -2.7487 -0.7917  0.6575
  824TIP3   OH2 2477   6.329   1.700   0.269 -0.3691  0.0279  0.1639
  824TIP3    H1 2478   6.272   1.625   0.254  0.1822 -0.6474  1.3414
  824TIP3    H2 2479   6.375   1.713   0.186  0.6843 -1.9451  0.3908
  825TIP3   OH2 2480   5.917   5.867   0.419  0.4318  0.5920  0.2575
  825TIP3    H1 2481   5.968   5.947   0.403  0.1882  0.4398 -1.3891
  825TIP3    H2 2482   5.874   5.883   0.504  1.7048  1.4981  0.7682
  826TIP3   OH2 2483   2.310   1.610   2.080  0.2234  0.5465  0.0145
  826TIP3    H1 2484   2.245   1.678   2.098 -2.3606 -1.8483  0.4924
  826TIP3    H2 2485   2.390   1.641   2.122 -1.0939  2.8196  1.0261
  827TIP3   OH2 2486   4.318   1.822   1.083 -0.7568  0.1542  0.8008
  827TIP3    H1 2487   4.292   1.852   0.996 -0.2544 -0.1704  0.5349
  827TIP3    H2 2488   4.268   1.742   1.097  0.2724 -0.6259  0.1719
  828TIP3   OH2 2489   5.440   0.159   4.525  0.4827  0.3167 -0.0169
  828TIP3    H1 2490   5.391   0.102   4.465  0.0813 -0.1589  0.7409
  828TIP3    H2 2491   5.528   0.164   4.487  0.2626 -0.0538 -0.5891
  829TIP3   OH2 2492   5.112   1.551   2.556  0.7173  0.0697 -0.3058
  829TIP3    H1 2493   5.203   1.526   2.575  0.4866  0.0640  0.9013
  829TIP3    H2 2494   5.077   1.579   2.641 -0.7632 -1.0659 -0.4941
  830TIP3   OH2 2495   0.929   0.548   2.543  0.2201  0.2419  0.0324
  830TIP3    H1 2496   0.916   0.457   2.514 -0.0012  0.5077 -0.7233
  830TIP3    H2 2497   0.868   0.599   2.490  2.7447  1.2769 -2.0484
  831TIP3   OH2 2498   2.197   5.426   1.094 -0.4418 -0.0764  0.3996
  831TIP3    H1 2499   2.183   5.463   1.181 -0.6477 -0.9490  0.7474
  831TIP3    H2 2500   2.291   5.435   1.078 -0.1899 -1.0707  1.2541
  832TIP3   OH2 2501   2.537   2.939   4.590 -0.2171  0.1940 -0.0751
  832TIP3    H1 2502   2.489   2.964   4.511  0.5314 -0.0954 -0.6289
  832TIP3    H2 2503   2.556   3.022   4.634  0.8983  0.5130 -1.1028
  833TIP3   OH2 2504   4.488   0.946   4.878 -0.0740  0.1674  0.0240
  833TIP3    H1 2505   4.400   0.914   4.861 -0.3698  1.3621 -0.7462
  833TIP3    H2 2506   4.479   1.041   4.887  0.7542  0.0970  2.4335
  834TIP3   OH2 2507   1.398   2.682   1.142  0.6108  0.3467 -0.1052
  834TIP3    H1 2508   1.395   2.766   1.188  1.9021 -0.3189  1.2777
  834TIP3    H2 2509   1.306   2.664   1.120  0.1865  1.6349  0.4726
  835TIP3   OH2 2510   4.608   4.483   4.267 -0.2690 -0.3534  0.3224
  835TIP3    H1 2511   4.527   4.534   4.264  0.2295  0.4207 -0.9131
  835TIP3    H2 2512   4.579   4.392   4.269 -1.1648 -0.0798  0.5098
  836TIP3   OH2 2513  -0.004   4.730   0.403  0.0583  0.2654 -0.3664
  836TIP3    H1 2514  -0.022   4.808   0.351 -1.5295  0.3112  0.1950
  836TIP3    H2 2515   0.042   4.763   0.481 -1.0804  0.7329  0.1251
  837TIP3   OH2 2516   0.410   5.363   0.165 -0.6504  0.1920 -0.3391
  837TIP3    H1 2517   0.391   5.307   0.089  1.9826 -0.1015 -0.8794
  837TIP3    H2 2518   0.448   5.303   0.230 -1.6815  0.6734  0.7600
  838TIP3   OH2 2519   4.111   5.111   3.119  0.0354 -0.1084  0.2388
  838TIP3    H1 2520   4.164   5.037   3.091  0.1866  0.4806 -1.1063
  838TIP3    H2 2521   4.115   5.173   3.046  0.8618  1.7516  1.7722
  839TIP3   OH2 2522   6.138   0.166   2.254  0.1697  0.5750  0.4070
  839TIP3    H1 2523   6.115   0.075   2.233 -0.2978  0.9624 -0.8379
  839TIP3    H2 2524   6.207   0.158   2.320  0.5718 -0.7087 -0.1260
  840TIP3   OH2 2525   3.740   4.465   1.757  0.5040  0.4929  0.7479
  840TIP3    H1 2526   3.755   4.425   1.671 -0.0539 -0.5260  1.1108
  840TIP3    H2 2527   3.805   4.536   1.762  1.2136 -0.0789 -0.1006
  841TIP3   OH2 2528   4.521   1.870   0.848  0.3253 -0.3572 -0.5059
  841TIP3    H1 2529   4.521   1.849   0.942 -0.7030  0.2565 -0.3619
  841TIP3    H2 2530   4.433   1.902   0.830  0.0525 -1.8100 -1.9938
  842TIP3   OH2 2531   1.029   5.834   3.486 -0.1727  0.2110 -0.0951
  842TIP3    H1 2532   0.963   5.903   3.483 -0.6488 -0.2715 -1.2212
  842TIP3    H2 2533   1.111   5.878   3.465 -0.1746  0.7416  0.9241
  843TIP3   OH2 2534   4.655   4.796   4.543  0.1582  0.4063 -0.1942
  843TIP3    H1 2535   4.731   4.739   4.548  0.0403  0.2261 -0.4568
  843TIP3    H2 2536   4.687   4.881   4.574  0.0501 -0.0650  1.2649
  844TIP3   OH2 2537   4.707   1.449   1.827  0.3219  0.0203 -0.0579
  844TIP3    H1 2538   4.628   1.503   1.829 -0.5374 -1.0958 -1.5163
  844TIP3    H2 2539   4.771   1.498   1.879 -0.9563  1.5286  0.1768
  845TIP3   OH2 2540   3.222   3.338   0.953  0.0088  0.1852 -0.7474
  845TIP3    H1 2541   3.168   3.262   0.976  1.4589 -0.6046  0.2204
  845TIP3    H2 2542   3.260   3.315   0.868 -1.9455  1.2073 -1.9546
  846TIP3   OH2 2543   3.880   3.213   0.104 -0.6122  0.1997  0.0882
  846TIP3    H1 2544   3.829   3.283   0.144 -3.8326 -1.4792 -0.7461
  846TIP3    H2 2545   3.917   3.165   0.178  0.2956  1.7720  0.7010
  847TIP3   OH2 2546   4.507   2.034   1.996  0.2270  0.0827  0.0922
  847TIP3    H1 2547   4.525   2.127   2.010  0.0871  0.1291 -0.0296
  847TIP3    H2 2548   4.532   1.992   2.078 -0.4244  0.3301  0.4215
  848TIP3   OH2 2549   4.781   4.424   4.702  0.1733  0.2554  0.4056
  848TIP3    H1 2550   4.705   4.404   4.647 -0.3286  0.2916  1.0725
  848TIP3    H2 2551   4.813   4.338   4.730 -0.0711  0.2604  0.7129
  849TIP3   OH2 2552   4.980   2.158   1.491  0.3020  0.3119 -0.4922
  849TIP3    H1 2553   4.917   2.221   1.526 -3.1147 -2.9754 -0.1407
  849TIP3    H2 2554   4.974   2.168   1.396 -0.2459  0.5083 -0.4405
  850TIP3   OH2 2555   4.184   4.626   0.138 -0.3557 -0.1993 -0.1839
  850TIP3    H1 2556   4.261   4.681   0.145  0.1856 -1.0463  0.9174
  850TIP3    H2 2557   4.179   4.602   0.046 -1.1193  2.3439 -0.9040
  851TIP3   OH2 2558   3.862   0.318   2.754  0.0878 -0.0420 -0.4924
  851TIP3    H1 2559   3.810   0.297   2.832  0.0355 -0.6376 -0.6889
  851TIP3    H2 2560   3.858   0.239   2.700  2.4730 -0.6987  0.1680
  852TIP3   OH2 2561   4.013   0.822   4.183 -0.2586 -0.7634  0.1129
  852TIP3    H1 2562   4.104   0.830   4.212  0.0372 -0.1171 -0.9571
  852TIP3    H2 2563   3.998   0.727   4.178  1.1654 -0.9336 -2.0904
  853TIP3   OH2 2564   1.840   1.106   2.876  0.1018 -0.3636  0.3293
  853TIP3    H1 2565   1.750   1.139   2.878  0.2995  0.2506 -0.4338
  853TIP3    H2 2566   1.894   1.182   2.898  0.5498 -0.1626 -1.3140
  854TIP3   OH2 2567   0.147   1.728   0.059  0.2253 -0.7468  0.0917
  854TIP3    H1 2568   0.171   1.635   0.052 -1.1000 -1.0272 -1.1531
  854TIP3    H2 2569   0.140   1.758  -0.031 -0.6070  0.2201  0.4585
  855TIP3   OH2 2570   2.085   4.722   2.562  0.4962  0.2306 -0.3788
  855TIP3    H1 2571   2.011   4.729   2.622  1.2839  0.9581  0.5522
  855TIP3    H2 2572   2.132   4.644   2.591 -0.2304 -0.6012 -1.3744
  856TIP3   OH2 2573   1.591   2.842   1.497 -0.3235  0.1882 -0.0706
  856TIP3    H1 2574   1.677   2.803   1.510  0.0218  1.1851  0.7331
  856TIP3    H2 2575   1.603   2.906   1.428 -0.7238 -0.5639 -0.8610
  857TIP3   OH2 2576   1.887   0.300   1.399  0.0048  0.0182 -0.1219
  857TIP3    H1 2577   1.893   0.313   1.305 -0.8810 -3.9624 -0.8905
  857TIP3    H2 2578   1.977   0.312   1.430  1.0740 -2.0092 -2.1189
  858TIP3   OH2 2579   2.718   3.320   2.054 -0.0357 -0.0348  0.0005
  858TIP3    H1 2580   2.683   3.383   1.992 -1.0061 -0.0494  0.5128
  858TIP3    H2 2581   2.779   3.370   2.108  1.7198 -0.2560 -1.6422
  859TIP3   OH2 2582   1.996   0.900   2.807  0.5512 -0.4256  0.1859
  859TIP3    H1 2583   1.935   0.957   2.854 -0.2985  0.6445 -2.1164
  859TIP3    H2 2584   1.941   0.829   2.773  1.1264 -1.0576  0.5309
  860TIP3   OH2 2585   2.221   0.547   0.741  0.3216  0.4409 -0.5798
  860TIP3    H1 2586   2.267   0.528   0.822  0.8152  0.1392 -0.9254
  860TIP3    H2 2587   2.177   0.464   0.719  1.4330  0.0482 -1.4140
  861TIP3   OH2 2588   0.473   1.095   5.062 -0.3624  0.0836  0.0786
  861TIP3    H1 2589   0.460   1.003   5.040  0.3062  0.1160 -0.4792
  861TIP3    H2 2590   0.556   1.098   5.109 -0.4171  0.3847  0.1595
  862TIP3   OH2 2591   0.857   4.726   2.724 -0.1533  0.1488  0.4690
  862TIP3    H1 2592   0.926   4.724   2.790  0.3468  1.6740  0.0152
  862TIP3    H2 2593   0.895   4.773   2.650 -1.6662  1.0593  0.2239
  863TIP3   OH2 2594   1.805   2.239   2.586  0.1799 -0.6084 -0.1923
  863TIP3    H1 2595   1.868   2.308   2.568 -0.4086 -0.1650 -0.5779
  863TIP3    H2 2596   1.808   2.183   2.509 -0.8175  0.1291 -0.7930
  864TIP3   OH2 2597   5.390   2.037   4.223  0.1445  0.4990 -0.6562
  864TIP3    H1 2598   5.410   1.950   4.257 -1.3817 -0.4570 -2.0902
  864TIP3    H2 2599   5.407   2.031   4.129 -0.0551  1.7368 -0.7871
  865TIP3   OH2 2600   5.994   4.570   2.560 -0.5776  0.6235 -0.4779
  865TIP3    H1 2601   6.051   4.643   2.538  1.0720 -0.0986  1.1475
  865TIP3    H2 2602   5.911   4.590   2.515  0.3470  2.6082 -1.4331
  866TIP3   OH2 2603   1.075   3.495   1.099  0.5507 -0.2098  0.4592
  866TIP3    H1 2604   1.140   3.500   1.169  0.3410  0.0335  0.6384
  866TIP3    H2 2605   1.126   3.498   1.019  0.6907  1.0800  0.5858
  867TIP3   OH2 2606   4.068   3.056   2.060  0.0922  0.1404 -0.4153
  867TIP3    H1 2607   4.038   3.122   1.998  2.9708  1.4033 -0.5752
  867TIP3    H2 2608   4.163   3.065   2.062  0.2526 -0.7239  3.2074
  868TIP3   OH2 2609   0.313   0.953   3.687  0.1328 -0.0824 -0.3366
  868TIP3    H1 2610   0.363   0.871   3.688 -0.1067 -0.2358 -0.8697
  868TIP3    H2 2611   0.361   1.010   3.628  1.4830  0.9286  1.6124
  869TIP3   OH2 2612   6.115   2.605   1.990 -0.4349  0.2115 -0.0808
  869TIP3    H1 2613   6.121   2.635   1.899 -2.0757  0.2301 -0.2244
  869TIP3    H2 2614   6.139   2.682   2.042  0.9800  0.0605 -0.4913
  870TIP3   OH2 2615   4.865   1.393   4.536 -0.2329 -0.4545 -0.0979
  870TIP3    H1 2616   4.785   1.370   4.583  0.0480  0.3300  0.7846
  870TIP3    H2 2617   4.905   1.308   4.515 -0.6908 -0.8261  0.5068
  871TIP3   OH2 2618   4.661   0.769   0.135  0.0179  0.1300 -0.1237
  871TIP3    H1 2619   4.567   0.761   0.125  0.1142 -2.0258  0.2242
  871TIP3    H2 2620   4.698   0.720   0.062  0.9084  1.7511 -0.8146
  872TIP3   OH2 2621   3.390   3.005   2.891  0.4193  0.6748  0.1882
  872TIP3    H1 2622   3.447   2.937   2.925 -1.3219 -0.9574  0.0102
  872TIP3    H2 2623   3.322   2.958   2.843  0.5547  2.6759 -2.1811
  873TIP3   OH2 2624   2.307   1.917   0.096  0.0692  0.7348  0.1205
  873TIP3    H1 2625   2.248   1.930   0.171 -0.3086 -1.5111  0.2822
  873TIP3    H2 2626   2.388   1.961   0.122  0.1483 -0.4858  2.1604
  874TIP3   OH2 2627   3.723   2.153   1.144 -0.2998  0.5373 -0.0599
  874TIP3    H1 2628   3.647   2.164   1.201  0.7362 -0.7198  1.6595
  874TIP3    H2 2629   3.795   2.194   1.191  0.7193 -1.1174 -0.0872
  875TIP3   OH2 2630   2.778   1.630   1.579 -0.0984 -0.4924  0.5851
  875TIP3    H1 2631   2.714   1.676   1.524 -0.8389 -0.8856  1.0960
  875TIP3    H2 2632   2.729   1.557   1.616  1.0038 -1.5977 -0.0639
  876TIP3   OH2 2633   2.981   2.564  -0.011 -0.0010 -0.3961  0.0581
  876TIP3    H1 2634   2.974   2.555   0.084 -0.1030  2.9845  0.4670
  876TIP3    H2 2635   3.066   2.606  -0.025  0.0369 -0.9020 -1.3863
  877TIP3   OH2 2636   3.530   3.120   1.326 -0.1955 -0.2612 -0.1476
  877TIP3    H1 2637   3.508   3.133   1.234 -1.0738 -2.6856 -0.3592
  877TIP3    H2 2638   3.480   3.043   1.352  0.8079 -0.2432  2.1073
  878TIP3   OH2 2639   4.551   3.742   4.157 -0.0670 -0.0196 -0.3234
  878TIP3    H1 2640   4.575   3.783   4.074 -0.6935  1.9596  0.4303
  878TIP3    H2 2641   4.455   3.742   4.156 -0.0779 -0.9368 -0.0366
  879TIP3   OH2 2642   0.283   3.291   1.655 -0.3193 -0.4959 -0.2604
  879TIP3    H1 2643   0.339   3.367   1.642 -0.9699  0.0168 -0.1256
  879TIP3    H2 2644   0.307   3.259   1.742 -1.5824  0.8976  0.6392
  880TIP3   OH2 2645   5.691   2.643   4.075 -0.4909 -0.4206  0.4538
  880TIP3    H1 2646   5.647   2.599   4.147  0.1818 -1.6012  0.1717
  880TIP3    H2 2647   5.645   2.613   3.997  0.4461 -1.2774  0.1979
  881TIP3   OH2 2648   3.747   2.800   4.217 -0.6391 -1.1168 -0.3449
  881TIP3    H1 2649   3.721   2.883   4.179  0.5861  0.8719  2.7202
  881TIP3    H2 2650   3.668   2.767   4.260 -0.0216  1.5263  3.2762
  882TIP3   OH2 2651   1.780   0.805   4.115  0.0833  0.1563 -0.4329
  882TIP3    H1 2652   1.828   0.876   4.159 -0.7373  0.2639  0.3066
  882TIP3    H2 2653   1.694   0.805   4.156 -0.6796  0.1865 -1.9860
  883TIP3   OH2 2654   6.071   3.741   2.745  0.2467 -0.1062  0.0567
  883TIP3    H1 2655   6.050   3.648   2.741 -1.5939  0.2567  0.3769
  883TIP3    H2 2656   6.156   3.745   2.787  1.7020 -1.7846 -2.4677
  884TIP3   OH2 2657   0.774   0.411   4.682  0.1439  0.2057  0.4455
  884TIP3    H1 2658   0.816   0.494   4.659  0.6182 -0.3884 -0.9239
  884TIP3    H2 2659   0.838   0.344   4.658 -0.0690 -0.5686  1.9147
  885TIP3   OH2 2660   1.070   2.901   1.131  0.6691  0.4622 -0.5039
  885TIP3    H1 2661   1.096   2.991   1.149 -1.7094  1.1094  0.1053
  885TIP3    H2 2662   0.993   2.909   1.074 -0.2014 -1.1387  0.3813
  886TIP3   OH2 2663   5.743   5.106   0.631  0.2815 -0.0274  0.3179
  886TIP3    H1 2664   5.759   5.197   0.657  0.1623  0.3022 -0.7321
  886TIP3    H2 2665   5.712   5.111   0.541 -1.0286 -1.0181  0.6696
  887TIP3   OH2 2666   1.618   4.195   1.172  0.2341 -0.0022 -0.2739
  887TIP3    H1 2667   1.676   4.267   1.198 -2.4297  1.4675  2.1351
  887TIP3    H2 2668   1.588   4.219   1.084  1.9482  0.0096 -0.9020
  888TIP3   OH2 2669   0.896   2.612   1.483 -0.0702 -0.7166 -0.4844
  888TIP3    H1 2670   0.923   2.616   1.575 -1.4453 -0.5431 -0.0719
  888TIP3    H2 2671   0.872   2.521   1.469  2.1585 -1.2646 -1.3190
  889TIP3   OH2 2672   3.260   0.986   4.721  0.0938 -0.1724  0.0216
  889TIP3    H1 2673   3.323   0.947   4.661  1.5569 -0.1902  1.4830
  889TIP3    H2 2674   3.250   1.076   4.689 -0.6261 -0.7142 -1.3329
  890TIP3   OH2 2675   2.362   3.768   3.656  0.5015 -0.4720  0.4648
  890TIP3    H1 2676   2.295   3.719   3.610  0.5132 -1.8922  1.8749
  890TIP3    H2 2677   2.314   3.835   3.704 -0.0113 -1.7408  1.8002
  891TIP3   OH2 2678   1.104   4.266   3.397  0.0221 -0.4819 -0.4923
  891TIP3    H1 2679   1.156   4.198   3.355  0.1095  0.2360 -1.5683
  891TIP3    H2 2680   1.061   4.312   3.325  0.2916  0.8700  0.1888
  892TIP3   OH2 2681   1.215   5.810   0.367  0.0014  0.1806  0.0288
  892TIP3    H1 2682   1.306   5.795   0.342  0.5733  1.1824  1.3620
  892TIP3    H2 2683   1.208   5.905   0.379 -0.1558 -0.1172  3.4456
  893TIP3   OH2 2684   0.187   5.070   3.222 -0.2371  0.1515 -0.1602
  893TIP3    H1 2685   0.217   4.980   3.239 -1.1619 -0.2783 -0.7260
  893TIP3    H2 2686   0.122   5.060   3.152  1.9630  1.5739 -2.6007
  894TIP3   OH2 2687   3.592   4.106   3.791  0.1090 -0.1182  0.2709
  894TIP3    H1 2688   3.635   4.039   3.844  1.1167  0.7124  0.5339
  894TIP3    H2 2689   3.583   4.066   3.705  0.2840 -0.7440  0.5361
  895TIP3   OH2 2690   1.210   5.504   4.322 -0.1370 -0.4699 -0.4115
  895TIP3    H1 2691   1.296   5.486   4.360  0.3583  0.1296 -1.2215
  895TIP3    H2 2692   1.208   5.453   4.242 -0.0726  0.3793 -0.9715
  896TIP3   OH2 2693   3.096   2.444   2.772  0.1688 -0.5300 -0.0541
  896TIP3    H1 2694   3.092   2.540   2.775  0.8404 -0.4678 -0.8155
  896TIP3    H2 2695   3.005   2.416   2.785  0.1411  0.1486  1.5262
  897TIP3   OH2 2696   4.236   0.342   0.103 -0.0790  0.2342  0.0495
  897TIP3    H1 2697   4.195   0.309   0.183 -0.3516 -0.8672 -0.5275
  897TIP3    H2 2698   4.173   0.325   0.034  1.5769 -2.2416 -0.9964
  898TIP3   OH2 2699   2.804   3.425   4.616 -0.2031  0.3177  0.0412
  898TIP3    H1 2700   2.842   3.410   4.529 -0.9155  0.4143 -0.2906
  898TIP3    H2 2701   2.828   3.516   4.637  1.7528 -0.3296  0.8676
  899TIP3   OH2 2702   1.184   5.371   4.088  0.3008 -0.0328 -0.0200
  899TIP3    H1 2703   1.172   5.453   4.039 -0.4716 -0.7330 -1.0424
  899TIP3    H2 2704   1.203   5.305   4.021 -0.2144 -0.9092  0.6751
  900TIP3   OH2 2705   2.252   5.565   2.402 -0.5105  0.1758  0.7650
  900TIP3    H1 2706   2.334   5.535   2.365 -0.8656 -0.6273  0.6179
  900TIP3    H2 2707   2.185   5.531   2.344 -0.9886  0.1769  1.3052
  901TIP3   OH2 2708   3.044   0.123   4.317  1.1092 -0.1634 -0.4192
  901TIP3    H1 2709   2.951   0.128   4.339  0.8083 -1.3949 -1.2804
  901TIP3    H2 2710   3.068   0.212   4.294  0.4637  0.4053  1.0209
  902TIP3   OH2 2711   1.264   4.834   3.624 -0.1666  0.4982 -0.0899
  902TIP3    H1 2712   1.175   4.836   3.587  0.1688 -0.7305 -1.0201
  902TIP3    H2 2713   1.251   4.811   3.716 -0.8191  0.4392 -0.1904
  903TIP3   OH2 2714   2.682   4.229   2.736 -0.4879 -0.0132  0.0414
  903TIP3    H1 2715   2.605   4.201   2.685  0.1737 -1.3514 -0.2822
  903TIP3    H2 2716   2.654   4.222   2.827 -1.1844  0.8623 -0.0974
  904TIP3   OH2 2717   3.114   4.383   2.021 -0.1973  0.6602  0.3512
  904TIP3    H1 2718   3.162   4.460   1.991 -2.1999  1.5892 -0.6131
  904TIP3    H2 2719   3.110   4.326   1.944  0.7558 -0.1824  0.8965
  905TIP3   OH2 2720   4.613   1.366   2.445  0.4404 -0.0074 -0.4231
  905TIP3    H1 2721   4.613   1.314   2.365 -0.7123 -1.0152  0.1973
  905TIP3    H2 2722   4.704   1.363   2.475  0.4953 -1.3132 -0.6430
  906TIP3   OH2 2723   0.519   0.826   3.970 -0.3727 -0.4762 -0.0595
  906TIP3    H1 2724   0.546   0.901   3.916 -0.6629 -0.3007  0.0373
  906TIP3    H2 2725   0.446   0.787   3.922 -1.4815  0.4474  0.8343
  907TIP3   OH2 2726   2.809   3.507   3.967 -0.5100  0.4598 -0.4728
  907TIP3    H1 2727   2.838   3.462   3.889  0.3212  2.8476 -1.6379
  907TIP3    H2 2728   2.780   3.438   4.026  1.4025 -1.5874 -1.8181
  908TIP3   OH2 2729   6.027   4.419   0.722 -0.5322 -0.4286 -0.2848
  908TIP3    H1 2730   6.097   4.471   0.760 -0.9698 -0.4860  0.6171
  908TIP3    H2 2731   6.072   4.342   0.687 -0.0499 -0.0853 -0.4351
  909TIP3   OH2 2732   4.740   1.027   2.567  0.1112  0.0321 -0.1497
  909TIP3    H1 2733   4.748   1.118   2.537 -2.4935  0.2863 -0.3614
  909TIP3    H2 2734   4.770   0.974   2.493 -1.5916  0.7277 -1.4064
  910TIP3   OH2 2735   2.837   0.757   2.373 -0.0792 -0.3082 -0.1256
  910TIP3    H1 2736   2.896   0.796   2.437 -1.3940  0.7852  0.4782
  910TIP3    H2 2737   2.812   0.830   2.316 -0.1328 -0.9528 -0.9504
  911TIP3   OH2 2738   5.792   1.154   2.997 -0.0414  0.0005  0.1721
  911TIP3    H1 2739   5.791   1.211   2.920  1.3117  1.5181  1.2254
  911TIP3    H2 2740   5.791   1.065   2.961  1.3843  0.6588 -1.6184
  912TIP3   OH2 2741   5.781   5.402   0.581  0.1578  0.1124 -0.1397
  912TIP3    H1 2742   5.854   5.411   0.642  0.2211  1.3243 -0.3717
  912TIP3    H2 2743   5.822   5.390   0.496  0.1454  2.0302 -0.4605
  913TIP3   OH2 2744   0.923   0.384   3.730 -0.0390  0.4263 -0.4133
  913TIP3    H1 2745   0.851   0.432   3.688 -0.2672 -0.2771 -0.8580
  913TIP3    H2 2746   0.880   0.307   3.768  0.3209  0.5624  0.2704
  914TIP3   OH2 2747   5.381   1.719   2.839 -0.2385 -0.1430 -0.0821
  914TIP3    H1 2748   5.332   1.798   2.861 -0.8166 -0.8898  1.5680
  914TIP3    H2 2749   5.313   1.654   2.819  0.0451 -0.9661  1.4144
  915TIP3   OH2 2750   3.114   3.826   4.261 -0.6648  0.2028  0.3039
  915TIP3    H1 2751   3.104   3.840   4.355  2.5755  1.9580  0.5355
  915TIP3    H2 2752   3.152   3.738   4.254 -2.2046 -0.5089  0.4574
  916TIP3   OH2 2753   2.166   0.040   3.685  0.3144 -0.4084 -0.3113
  916TIP3    H1 2754   2.227   0.013   3.754 -2.3632  0.2288  2.5104
  916TIP3    H2 2755   2.174   0.136   3.683 -0.4045 -0.3428 -0.1113
  917TIP3   OH2 2756   2.321   0.283   2.715  0.2327  0.3881 -0.3932
  917TIP3    H1 2757   2.236   0.270   2.671  0.0132 -0.1166  0.1730
  917TIP3    H2 2758   2.385   0.282   2.643 -0.3011  1.5532 -0.9167
  918TIP3   OH2 2759   1.256   1.239   1.495  0.0641 -0.2166  0.2814
  918TIP3    H1 2760   1.276   1.151   1.526 -0.1109 -0.6741 -0.8531
  918TIP3    H2 2761   1.160   1.243   1.495  0.0822  0.2766  1.1415
  919TIP3   OH2 2762   1.952   1.543   0.591  0.0258 -0.6150  0.8265
  919TIP3    H1 2763   1.961   1.500   0.506 -2.1087  0.0643  0.1835
  919TIP3    H2 2764   2.035   1.588   0.605  0.5150 -0.9826 -0.7715
  920TIP3   OH2 2765   1.969   1.780   4.864  0.5986 -0.0550 -0.2285
  920TIP3    H1 2766   2.031   1.840   4.906  0.6725 -0.5753  0.4120
  920TIP3    H2 2767   1.925   1.834   4.798 -0.6560  1.2041  1.5619
  921TIP3   OH2 2768   5.004   1.579   2.262  0.1438 -0.2854 -0.0401
  921TIP3    H1 2769   5.033   1.488   2.265 -1.1042 -0.6768  2.3806
  921TIP3    H2 2770   5.060   1.624   2.325 -1.2596 -0.0656  1.1045
  922TIP3   OH2 2771   0.737   4.487   1.692 -0.2788 -0.4118  0.0122
  922TIP3    H1 2772   0.828   4.517   1.679  0.0365 -0.6775  1.4153
  922TIP3    H2 2773   0.702   4.479   1.603  1.0669 -0.2978 -0.5651
  923TIP3   OH2 2774   5.679   0.083   3.917 -0.2483 -0.3709 -0.2376
  923TIP3    H1 2775   5.756   0.114   3.964  1.2304 -1.7798 -1.6059
  923TIP3    H2 2776   5.618   0.156   3.920  0.5955  0.3382  1.9832
  924TIP3   OH2 2777   3.222   2.980   0.505  0.4064 -0.4754  0.4023
  924TIP3    H1 2778   3.152   2.996   0.441  0.5868 -0.8251  0.1180
  924TIP3    H2 2779   3.301   3.013   0.463  0.5819 -1.0238  0.3049
  925TIP3   OH2 2780   4.059   1.481   4.803  0.1891 -0.2092 -0.1537
  925TIP3    H1 2781   4.074   1.533   4.882  1.8987 -1.2609  0.2675
  925TIP3    H2 2782   4.021   1.399   4.835 -0.2301 -0.1798 -0.5620
  926TIP3   OH2 2783   2.820   5.094   2.799  0.2982  0.1382 -0.2123
  926TIP3    H1 2784   2.813   5.163   2.864  2.2074  0.5529 -0.3900
  926TIP3    H2 2785   2.888   5.036   2.833 -0.0615 -0.7165 -0.9071
  927TIP3   OH2 2786   1.896   0.365   4.482 -0.4645 -0.2855  0.4167
  927TIP3    H1 2787   1.956   0.298   4.514 -0.9040 -0.9776 -0.1894
  927TIP3    H2 2788   1.931   0.447   4.518  0.4186 -0.7607  0.6697
  928TIP3   OH2 2789   2.329   2.223   4.614  0.3724 -0.3773 -0.0880
  928TIP3    H1 2790   2.350   2.291   4.677 -0.3353 -0.8093  0.6298
  928TIP3    H2 2791   2.248   2.254   4.571  1.5616  0.5672 -1.7791
  929TIP3   OH2 2792   6.275   5.462   3.275  0.1403  0.2285 -0.6037
  929TIP3    H1 2793   6.362   5.472   3.312  0.7115  0.4065 -1.9581
  929TIP3    H2 2794   6.216   5.475   3.350  1.1096  3.4904 -0.2565
  930TIP3   OH2 2795   3.021   2.420   3.959  0.4925 -0.1179  0.4586
  930TIP3    H1 2796   2.976   2.430   4.043  0.4006 -0.2565  0.4256
  930TIP3    H2 2797   2.955   2.442   3.894  0.3265 -0.7966  0.3900
  931TIP3   OH2 2798   5.411   0.779   0.444 -0.0867 -0.1262 -0.6909
  931TIP3    H1 2799   5.324   0.781   0.483  0.7226  0.2134  1.1734
  931TIP3    H2 2800   5.439   0.688   0.451  0.8877  0.2909  1.5356
  932TIP3   OH2 2801   1.317   3.170   4.612 -0.0683  0.2557  0.4915
  932TIP3    H1 2802   1.363   3.094   4.648  0.5624  0.7485  0.7587
  932TIP3    H2 2803   1.383   3.213   4.556  0.2386  1.6978  1.8895
  933TIP3   OH2 2804   5.091   2.672   2.371  0.3195 -0.0997 -0.3259
  933TIP3    H1 2805   5.180   2.635   2.373  0.2793 -0.1843  0.2447
  933TIP3    H2 2806   5.097   2.745   2.310  1.3490  1.2520  1.2836
  934TIP3   OH2 2807   2.242   4.891   3.634  0.5474  0.1072 -0.6574
  934TIP3    H1 2808   2.311   4.916   3.695  0.7562 -0.0672 -0.8236
  934TIP3    H2 2809   2.288   4.869   3.553  0.3883 -1.0785 -0.4314
  935TIP3   OH2 2810   5.806   4.369   4.203 -0.1639 -0.7483  0.1582
  935TIP3    H1 2811   5.761   4.394   4.284 -0.4736 -0.8100  0.0069
  935TIP3    H2 2812   5.747   4.306   4.161  0.1024 -0.8920 -0.0025
  936TIP3   OH2 2813   0.895   3.516   2.179  0.2505 -0.4513 -0.3657
  936TIP3    H1 2814   0.898   3.607   2.150  0.0237 -0.6824 -1.1124
  936TIP3    H2 2815   0.821   3.513   2.240 -1.0693 -0.5891 -1.9249
  937TIP3   OH2 2816   3.555   4.823   2.359  0.0302  0.2903  0.1894
  937TIP3    H1 2817   3.542   4.830   2.453 -1.4368 -1.7773  0.2110
  937TIP3    H2 2818   3.632   4.768   2.349 -0.4141 -0.3505  0.2173
  938TIP3   OH2 2819   3.367   4.145   2.015 -0.0862  0.0132 -0.1612
  938TIP3    H1 2820   3.379   4.052   1.995 -1.8169 -0.4376  0.6792
  938TIP3    H2 2821   3.393   4.153   2.106 -0.5699  0.2091 -0.0385
  939TIP3   OH2 2822   1.907   4.834   2.777 -0.1795  0.8240  0.3693
  939TIP3    H1 2823   1.852   4.789   2.840  0.2106 -0.4059 -0.1394
  939TIP3    H2 2824   1.846   4.879   2.719 -0.8350 -2.0031 -1.3188
  940TIP3   OH2 2825   2.642   4.830   2.803 -0.3202 -0.6378 -0.1153
  940TIP3    H1 2826   2.620   4.913   2.760 -0.0119 -0.0382  0.8749
  940TIP3    H2 2827   2.655   4.853   2.895  0.4712 -1.6699  0.0416
  941TIP3   OH2 2828   4.249   4.288   1.722 -0.4135 -0.3187 -0.1414
  941TIP3    H1 2829   4.242   4.333   1.806 -3.1415  0.6010 -0.7506
  941TIP3    H2 2830   4.209   4.202   1.737 -2.6197  0.4958 -0.7983
  942TIP3   OH2 2831   1.008   0.574   1.942 -0.4468 -0.2653 -0.0805
  942TIP3    H1 2832   0.936   0.612   1.891 -1.4643  0.3680  1.7299
  942TIP3    H2 2833   0.982   0.588   2.034  1.5623 -0.8461  0.6251
  943TIP3   OH2 2834   0.443   3.139   4.668  0.2598 -0.2193 -0.1864
  943TIP3    H1 2835   0.400   3.144   4.582 -0.5542 -0.2944  0.2059
  943TIP3    H2 2836   0.510   3.072   4.657 -0.8526 -1.3442 -0.3460
  944TIP3   OH2 2837   2.888   1.159   0.430  0.1904 -0.0252 -0.2814
  944TIP3    H1 2838   2.912   1.183   0.519 -1.0364  0.4687 -0.0556
  944TIP3    H2 2839   2.795   1.184   0.423  0.5302  0.9217 -2.0093
  945TIP3   OH2 2840   1.675   4.934   3.218 -0.4585  0.3653 -0.0884
  945TIP3    H1 2841   1.742   4.880   3.260  0.7372  1.6660 -0.2270
  945TIP3    H2 2842   1.705   4.944   3.128  0.7139  3.1475  0.4773
  946TIP3   OH2 2843   0.438   5.897   4.349  0.2828 -0.0705  0.0694
  946TIP3    H1 2844   0.394   5.971   4.392  1.6146  0.6746  0.2049
  946TIP3    H2 2845   0.394   5.890   4.264  0.6118  1.3816 -0.2583
  947TIP3   OH2 2846   1.519   0.603   5.132 -0.0452  0.3640  0.1535
  947TIP3    H1 2847   1.611   0.617   5.110 -0.0626 -0.5858 -0.5717
  947TIP3    H2 2848   1.487   0.690   5.157  1.4391  0.4571  1.9679
  948TIP3   OH2 2849   3.928   4.914   5.060 -0.3013 -0.0306  0.0323
  948TIP3    H1 2850   3.855   4.897   5.000  1.7314 -3.1004 -1.8445
  948TIP3    H2 2851   3.933   4.836   5.115  0.6409  0.7987  1.1634
  949TIP3   OH2 2852   0.891   4.564   1.981  0.3689  0.1219 -0.1228
  949TIP3    H1 2853   0.919   4.638   1.928  1.1218  0.4125  0.6482
  949TIP3    H2 2854   0.798   4.579   1.996  0.6287  1.2618  0.5306
  950TIP3   OH2 2855   3.485   0.070   4.565  0.3616 -0.5154  0.1883
  950TIP3    H1 2856   3.444   0.127   4.630  2.4113  0.9659  0.2983
  950TIP3    H2 2857   3.450  -0.017   4.583  0.0085  0.0488  2.5536
  951TIP3   OH2 2858   4.351   1.045   2.951 -0.4342  0.6176  0.1894
  951TIP3    H1 2859   4.300   1.046   2.870 -2.2944  1.8349  1.3021
  951TIP3    H2 2860   4.368   0.952   2.967  1.5568  0.4116 -2.4606
  952TIP3   OH2 2861   1.959   4.830   0.969  0.5086  0.1818  0.1399
  952TIP3    H1 2862   1.933   4.877   0.889  2.0578 -0.3705 -0.7405
  952TIP3    H2 2863   1.964   4.739   0.942 -1.1250 -0.3348  1.4774
  953TIP3   OH2 2864   3.862   2.541   1.777 -0.0377 -0.1964 -0.4087
  953TIP3    H1 2865   3.803   2.480   1.734  0.1386  0.1173 -1.0972
  953TIP3    H2 2866   3.948   2.523   1.737  0.0635  0.3263 -0.4231
  954TIP3   OH2 2867   3.334   5.163   0.205 -0.0533  0.6116 -0.3612
  954TIP3    H1 2868   3.424   5.167   0.174  0.2641 -0.2125  0.4003
  954TIP3    H2 2869   3.324   5.241   0.260 -0.1422  1.2582 -1.2814
  955TIP3   OH2 2870   1.309   3.399   3.825  0.5872  0.7458 -0.1584
  955TIP3    H1 2871   1.337   3.394   3.733  0.2611 -0.4952 -0.2148
  955TIP3    H2 2872   1.328   3.489   3.851 -1.5408  1.8782 -2.1622
  956TIP3   OH2 2873   0.711   4.850   2.407  0.2582  0.2492  0.3920
  956TIP3    H1 2874   0.802   4.866   2.430  0.1551  2.4879 -0.4796
  956TIP3    H2 2875   0.663   4.864   2.489  0.5645  0.5784  0.5178
  957TIP3   OH2 2876   0.351   3.427   1.413 -0.0682 -0.0279  0.2064
  957TIP3    H1 2877   0.362   3.462   1.324  0.1700  1.2042  0.7018
  957TIP3    H2 2878   0.258   3.407   1.420  0.1389 -1.6066 -0.8216
  958TIP3   OH2 2879   1.632   0.881   3.017 -0.3329  0.5561 -0.1642
  958TIP3    H1 2880   1.581   0.867   3.097  0.3365 -0.3217  0.1149
  958TIP3    H2 2881   1.591   0.958   2.977 -1.6012  0.1453  0.2759
  959TIP3   OH2 2882   4.633   3.212   0.989 -0.6846 -0.0520 -0.1070
  959TIP3    H1 2883   4.616   3.157   1.066  1.1868 -0.1329  0.3016
  959TIP3    H2 2884   4.716   3.179   0.954  0.1710  2.0754 -0.2371
  960TIP3   OH2 2885   0.879   4.968   2.919  0.6860 -0.0721  0.0054
  960TIP3    H1 2886   0.825   5.021   2.860 -1.2767 -1.5137  0.3850
  960TIP3    H2 2887   0.962   4.956   2.872 -0.5317 -0.5407 -2.1621
  961TIP3   OH2 2888   4.310   0.397   3.635  0.0611 -0.0593  0.0592
  961TIP3    H1 2889   4.264   0.479   3.653 -1.7382 -0.9763 -0.1942
  961TIP3    H2 2890   4.291   0.378   3.544 -0.6404 -1.4098  0.4596
  962TIP3   OH2 2891   1.684   2.011   4.229 -0.0741  0.0816  0.4323
  962TIP3    H1 2892   1.712   2.030   4.319 -1.6283  0.1635  0.9380
  962TIP3    H2 2893   1.663   2.096   4.192  2.2179  0.2480 -0.6603
  963TIP3   OH2 2894   3.667   2.241   4.620  0.0514  0.2640  0.4742
  963TIP3    H1 2895   3.709   2.168   4.573 -1.8229  0.7133 -2.1389
  963TIP3    H2 2896   3.658   2.210   4.710  1.7381 -1.6400  0.0486
  964TIP3   OH2 2897   1.272   4.013   4.168  0.4899  0.3852 -1.2677
  964TIP3    H1 2898   1.249   3.999   4.076 -1.7067  1.6048 -0.9926
  964TIP3    H2 2899   1.207   4.077   4.199 -0.4878 -1.8559  1.7829
  965TIP3   OH2 2900   0.843   2.547   2.237 -0.1052  0.1401 -0.0954
  965TIP3    H1 2901   0.775   2.550   2.304  0.5931 -1.3894  0.7326
  965TIP3    H2 2902   0.907   2.484   2.270  0.0133 -1.0739 -2.4224
  966TIP3   OH2 2903   4.396   3.512   4.452 -0.2064  0.6284  0.3582
  966TIP3    H1 2904   4.370   3.423   4.475  0.3967  0.5900  0.9468
  966TIP3    H2 2905   4.485   3.503   4.418 -1.1315  0.6730 -2.2413
  967TIP3   OH2 2906   2.639   0.082   1.114  0.2817 -0.1340  0.6341
  967TIP3    H1 2907   2.660   0.095   1.206 -0.9529  1.1341  0.7594
  967TIP3    H2 2908   2.557   0.033   1.114 -0.3352  0.8734  0.2361
  968TIP3   OH2 2909   5.383   5.748   1.523  0.5422  0.3914 -0.0383
  968TIP3    H1 2910   5.383   5.828   1.576 -0.3759  1.6795 -1.9034
  968TIP3    H2 2911   5.436   5.769   1.447 -0.2889 -0.5098 -0.8976
  969TIP3   OH2 2912   2.446   4.835   1.928 -0.2396  0.2891  0.7547
  969TIP3    H1 2913   2.357   4.801   1.936  0.1682 -0.9338  0.2973
  969TIP3    H2 2914   2.502   4.757   1.928  0.8410  1.0384  1.0767
  970TIP3   OH2 2915   5.370   2.565   2.770 -0.4813 -0.1350  0.5675
  970TIP3    H1 2916   5.291   2.516   2.748 -0.3369 -0.8117  1.4914
  970TIP3    H2 2917   5.349   2.609   2.853 -0.0551  0.0618  0.5775
  971TIP3   OH2 2918   0.889   4.635   0.621 -0.5482 -0.6037 -0.0391
  971TIP3    H1 2919   0.894   4.644   0.716 -1.5358  3.0080 -0.2044
  971TIP3    H2 2920   0.967   4.584   0.598  0.9267  0.2944  2.5273
  972TIP3   OH2 2921   5.450   3.203   0.440 -0.2493  0.0580 -0.1256
  972TIP3    H1 2922   5.382   3.137   0.425 -0.3290  0.0225  0.3952
  972TIP3    H2 2923   5.524   3.154   0.475 -0.3208  0.2471  0.2988
  973TIP3   OH2 2924   6.268   0.162   0.583 -0.7045  0.7098  0.1273
  973TIP3    H1 2925   6.295   0.075   0.555 -1.7219  0.0346  1.1720
  973TIP3    H2 2926   6.221   0.198   0.508  0.4100  0.7082 -0.6042
  974TIP3   OH2 2927   5.558   3.695   0.244 -0.0434 -0.5686  0.1593
  974TIP3    H1 2928   5.521   3.779   0.273  0.1832 -0.1513 -0.7186
  974TIP3    H2 2929   5.521   3.631   0.304 -1.0422  0.0257  0.2072
  975TIP3   OH2 2930   3.784   2.904   0.530  0.0326  0.5410  0.1674
  975TIP3    H1 2931   3.809   2.976   0.471 -0.1321  0.5436  0.0998
  975TIP3    H2 2932   3.709   2.863   0.487  0.3851  0.0632 -0.0044
  976TIP3   OH2 2933   1.762   3.042   3.659 -0.0870  0.3118  0.2051
  976TIP3    H1 2934   1.760   3.107   3.590 -0.4652 -1.8369 -1.9263
  976TIP3    H2 2935   1.675   3.004   3.660  0.4857 -1.0735  0.4426
  977TIP3   OH2 2936   2.839   3.066   2.336  0.5666 -0.4322  0.0336
  977TIP3    H1 2937   2.796   3.052   2.421 -2.4938 -0.5101 -1.4105
  977TIP3    H2 2938   2.853   3.161   2.332 -1.9459 -0.0305 -0.4926
  978TIP3   OH2 2939   6.015   5.406   1.946 -0.6300  0.3456  0.0447
  978TIP3    H1 2940   6.078   5.373   1.882 -0.1599 -1.5342  1.3843
  978TIP3    H2 2941   6.005   5.499   1.924 -0.3696 -0.1768 -2.5954
  979TIP3   OH2 2942   2.209   2.639   1.276  0.1104  0.2658 -0.2783
  979TIP3    H1 2943   2.132   2.618   1.329  0.5265  0.1468  0.3004
  979TIP3    H2 2944   2.174   2.668   1.192 -0.6025  1.2950  0.3546
  980TIP3   OH2 2945   0.997   3.269   0.731  0.2401 -0.2004  0.0929
  980TIP3    H1 2946   0.998   3.204   0.660 -1.6883  0.0909 -0.2632
  980TIP3    H2 2947   1.082   3.311   0.726  1.3646 -2.3467  0.0113
  981TIP3   OH2 2948   2.207   0.961   5.052 -0.0792 -0.3994 -0.4754
  981TIP3    H1 2949   2.270   0.938   5.120  1.1872  2.0664 -0.6979
  981TIP3    H2 2950   2.122   0.945   5.092  0.4899  3.1584  2.7726
  982TIP3   OH2 2951   0.675   0.635   2.415 -0.5486 -0.2200  0.2213
  982TIP3    H1 2952   0.669   0.730   2.425  0.3352 -0.1892  0.6141
  982TIP3    H2 2953   0.597   0.611   2.365  0.3294  1.0119 -1.9101
  983TIP3   OH2 2954   1.841   2.327   1.892 -0.3875 -0.2233  0.2863
  983TIP3    H1 2955   1.865   2.234   1.886  2.5721  0.2494  2.6213
  983TIP3    H2 2956   1.813   2.339   1.983  1.2471  1.5245  0.6175
  984TIP3   OH2 2957   3.700   3.305   3.355  0.0687 -0.2675 -0.0703
  984TIP3    H1 2958   3.722   3.303   3.448  0.4240  0.4334 -0.1335
  984TIP3    H2 2959   3.681   3.214   3.333  0.4389 -0.5082  0.5820
  985TIP3   OH2 2960   5.737   2.376   0.710 -0.1312 -0.1317 -0.4027
  985TIP3    H1 2961   5.656   2.329   0.733 -0.0233 -0.4070 -0.5871
  985TIP3    H2 2962   5.797   2.355   0.782 -0.3184  0.3204 -0.1061
  986TIP3   OH2 2963   4.243   2.488   0.758 -0.2100 -0.2866  0.4394
  986TIP3    H1 2964   4.204   2.525   0.679 -1.3920  1.1450  1.6384
  986TIP3    H2 2965   4.245   2.393   0.742 -2.2528 -0.2119 -0.5195
  987TIP3   OH2 2966   2.299   3.827   0.378 -0.1686 -0.3975 -0.3392
  987TIP3    H1 2967   2.355   3.777   0.437 -0.0324  0.2358  0.0805
  987TIP3    H2 2968   2.356   3.849   0.305 -0.5588 -1.8929 -1.1333
  988TIP3   OH2 2969   5.098   5.375   0.137  0.2780  0.7375  0.1394
  988TIP3    H1 2970   5.113   5.349   0.046  1.1211  0.5801  0.3244
  988TIP3    H2 2971   5.003   5.364   0.149  0.0342  1.4877 -0.9431
  989TIP3   OH2 2972   5.296   2.925   3.686  0.2719 -0.4851 -0.3911
  989TIP3    H1 2973   5.256   2.849   3.644 -0.0249 -0.7795  0.4061
  989TIP3    H2 2974   5.289   2.907   3.780 -0.8805  1.0640 -0.1470
  990TIP3   OH2 2975   0.888   4.206   3.566 -0.3242 -0.5951  0.2232
  990TIP3    H1 2976   0.836   4.270   3.516 -1.1638 -1.1609  0.3407
  990TIP3    H2 2977   0.978   4.223   3.540 -0.5327  0.5966  0.2116
  991TIP3   OH2 2978   3.345   2.893   1.979 -0.4186 -0.0827  0.4259
  991TIP3    H1 2979   3.270   2.833   1.972  0.1753 -0.9015  0.9483
  991TIP3    H2 2980   3.395   2.878   1.898 -1.2615  1.1066 -0.3459
  992TIP3   OH2 2981   6.240   2.933   2.507  0.2764  0.4068 -0.0503
  992TIP3    H1 2982   6.197   2.970   2.430  1.4421 -0.2828 -1.0700
  992TIP3    H2 2983   6.222   2.839   2.502  1.7105  0.1229 -0.4067
  993TIP3   OH2 2984   3.652   4.742   3.824 -0.2731  0.3136 -0.1671
  993TIP3    H1 2985   3.732   4.706   3.860  1.4083  2.8251 -1.1493
  993TIP3    H2 2986   3.587   4.673   3.837  2.5211 -2.8401 -1.4976
  994TIP3   OH2 2987   3.970   5.559   3.468  0.1749  0.3871  0.0630
  994TIP3    H1 2988   4.054   5.572   3.422  0.6370  1.7207  1.2059
  994TIP3    H2 2989   3.911   5.525   3.401  1.7130 -0.9294 -0.6943
  995TIP3   OH2 2990   4.494   5.779   2.478 -0.1976 -0.3902 -0.1921
  995TIP3    H1 2991   4.557   5.711   2.455 -1.5260 -2.8813  2.8772
  995TIP3    H2 2992   4.488   5.776   2.573 -2.4309  2.1509 -0.1119
  996TIP3   OH2 2993   4.768   0.050   4.304 -0.1851 -0.6666 -0.1993
  996TIP3    H1 2994   4.691   0.057   4.360 -0.6505 -1.7372 -0.6705
  996TIP3    H2 2995   4.761  -0.037   4.264  1.0094 -0.5866 -0.6345
  997TIP3   OH2 2996   1.977   4.948   1.798 -0.0794 -0.2310  0.0897
  997TIP3    H1 2997   2.041   5.004   1.840 -2.2924  1.3507  1.5573
  997TIP3    H2 2998   1.962   4.989   1.712  1.7449 -1.3807 -0.8519
  998TIP3   OH2 2999   2.711   5.313   2.163  0.2436  0.3686 -0.1805
  998TIP3    H1 3000   2.778   5.249   2.140  0.2003  0.2817 -0.0684
  998TIP3    H2 3001   2.720   5.383   2.099 -1.6570 -1.1221 -2.2250
  999TIP3   OH2 3002   1.346   1.353   4.211  0.1076 -0.9598  0.0348
  999TIP3    H1 3003   1.362   1.383   4.301  0.8751 -0.0385 -0.3984
  999TIP3    H2 3004   1.433   1.338   4.175 -0.1038  0.3679 -1.1209
 1000TIP3   OH2 3005   2.142   4.470   1.779 -0.3198  0.1561  0.1483
 1000TIP3    H1 3006   2.217   4.411   1.776 -0.0070  0.5927 -1.2197
 1000TIP3    H2 3007   2.066   4.412   1.777 -0.0408 -0.2661  1.0204
 1001TIP3   OH2 3008   5.142   3.314   1.071  0.5830 -0.0965 -0.0516
 1001TIP3    H1 3009   5.142   3.368   1.150  1.4272  1.0069 -0.7745
 1001TIP3    H2 3010   5.146   3.224   1.103  0.4132  0.3102  1.1643
 1002TIP3   OH2 3011   3.163   2.572   2.244 -0.6818  0.3864  0.3726
 1002TIP3    H1 3012   3.188   2.508   2.177  0.9682  0.7611  0.5883
 1002TIP3    H2 3013   3.220   2.552   2.318 -0.3191  1.9311  0.5369
 1003TIP3   OH2 3014   4.537   2.671   1.646  0.0972 -0.1729 -0.2602
 1003TIP3    H1 3015   4.450   2.644   1.676 -0.1296  0.6970 -0.0924
 1003TIP3    H2 3016   4.594   2.597   1.666 -0.7579 -1.1086 -1.1634
 1004TIP3   OH2 3017   6.227   3.043   4.691  0.1681  0.1685  0.0790
 1004TIP3    H1 3018   6.154   2.994   4.728  1.7114 -1.8059  0.6854
 1004TIP3    H2 3019   6.196   3.073   4.606 -2.5815  2.6218  1.7775
 1005TIP3   OH2 3020   5.637   2.124   1.426 -0.1026  0.4248  0.0164
 1005TIP3    H1 3021   5.585   2.064   1.372 -0.9226  0.1289  1.0974
 1005TIP3    H2 3022   5.673   2.069   1.496  0.6296  0.8732  0.0126
 1006TIP3   OH2 3023   4.453   0.600   1.067  0.0531  0.2092 -0.1091
 1006TIP3    H1 3024   4.514   0.566   1.001  0.2157 -1.3824  0.8283
 1006TIP3    H2 3025   4.367   0.586   1.029  0.1719  0.0498 -0.3217
 1007TIP3   OH2 3026   3.717   3.672   0.675 -0.1468 -0.2578 -0.0792
 1007TIP3    H1 3027   3.772   3.629   0.609 -0.3239  0.5449 -0.7655
 1007TIP3    H2 3028   3.733   3.622   0.755 -0.4576 -1.7171 -0.8705
 1008TIP3   OH2 3029   3.866   3.406   2.663 -0.3010  1.2856 -0.0796
 1008TIP3    H1 3030   3.932   3.399   2.733 -1.4504  1.3963  1.0586
 1008TIP3    H2 3031   3.810   3.479   2.690 -0.6878  1.4220 -1.2067
 1009TIP3   OH2 3032   5.294   3.434   4.209  0.2395  0.5192 -0.0872
 1009TIP3    H1 3033   5.320   3.458   4.298  1.5462 -0.5933 -0.1406
 1009TIP3    H2 3034   5.279   3.518   4.165 -0.6092  1.0770  1.2239
 1010TIP3   OH2 3035   3.231   3.400   3.120  0.1273 -0.5585 -0.0039
 1010TIP3    H1 3036   3.270   3.370   3.202  0.0867  0.4955  0.4200
 1010TIP3    H2 3037   3.164   3.462   3.147  0.6814  0.4511 -0.8552
 1011TIP3   OH2 3038   2.363   4.858   2.699  0.4974 -0.0782  0.3940
 1011TIP3    H1 3039   2.426   4.929   2.711 -1.8031  2.2682 -0.6195
 1011TIP3    H2 3040   2.283   4.889   2.742 -0.2620 -2.6601  1.0424
 1012TIP3   OH2 3041   3.752   0.480   1.381 -0.4036  0.2284 -0.6391
 1012TIP3    H1 3042   3.836   0.437   1.366  1.6915  3.9058 -0.6352
 1012TIP3    H2 3043   3.723   0.446   1.466  1.1603 -0.9810 -0.5414
 1013TIP3   OH2 3044   4.191   5.637   3.246  0.0534 -0.3321  0.1036
 1013TIP3    H1 3045   4.109   5.683   3.228 -0.1887 -1.1329 -0.9016
 1013TIP3    H2 3046   4.194   5.567   3.181  0.7859 -1.2702  1.1155
 1014TIP3   OH2 3047   5.285   4.132   3.919  0.0971 -0.1065  0.0426
 1014TIP3    H1 3048   5.314   4.202   3.977  1.3070 -0.5301 -0.0225
 1014TIP3    H2 3049   5.356   4.067   3.922  0.2203 -0.1232 -1.9568
 1015TIP3   OH2 3050   5.577   4.061   2.889  0.9030  0.6401 -0.5477
 1015TIP3    H1 3051   5.493   4.021   2.909  1.5740  0.3200  1.9695
 1015TIP3    H2 3052   5.598   4.031   2.800 -1.4484  0.5034 -1.1120
 1016TIP3   OH2 3053   1.131   4.124   2.812  0.2136 -0.2523 -0.3719
 1016TIP3    H1 3054   1.089   4.066   2.875  1.2567  0.6760  1.2412
 1016TIP3    H2 3055   1.133   4.074   2.730 -1.3210 -1.4224  0.2714
 1017TIP3   OH2 3056   1.416   0.933   1.792  0.2337  0.3271 -0.0834
 1017TIP3    H1 3057   1.471   0.981   1.729  2.2998 -0.3456  1.1068
 1017TIP3    H2 3058   1.386   1.000   1.853 -1.3498  0.8990 -1.4147
 1018TIP3   OH2 3059   6.163   1.630   3.779  0.4454  0.3169  0.1228
 1018TIP3    H1 3060   6.072   1.640   3.807  0.4682 -0.8340  0.6921
 1018TIP3    H2 3061   6.178   1.535   3.780  1.2665  0.4109 -1.2366
 1019TIP3   OH2 3062   0.434   4.261   4.124 -0.4391 -0.4105 -0.2042
 1019TIP3    H1 3063   0.444   4.334   4.063 -2.0499  0.1209  0.1106
 1019TIP3    H2 3064   0.488   4.191   4.087  0.3968  0.6302 -1.0101
 1020TIP3   OH2 3065   2.825   1.787   4.405 -0.0671 -0.1669 -0.0767
 1020TIP3    H1 3066   2.764   1.724   4.444  1.2035 -1.8175 -0.6108
 1020TIP3    H2 3067   2.811   1.868   4.454 -1.7118 -0.8608  0.6958
 1021TIP3   OH2 3068   5.240   1.656   1.611 -0.1587 -0.0643 -0.6183
 1021TIP3    H1 3069   5.255   1.734   1.665  0.4093 -2.2157  2.5711
 1021TIP3    H2 3070   5.325   1.637   1.572  0.0861 -0.0205 -0.1055
 1022TIP3   OH2 3071   1.347   1.357   1.947  0.0014 -0.0458 -0.2316
 1022TIP3    H1 3072   1.442   1.342   1.956 -0.0623  0.1665  0.9054
 1022TIP3    H2 3073   1.339   1.417   1.873  0.8120  0.5556  0.1593
 1023TIP3   OH2 3074   5.917   5.605   3.731 -0.2739 -0.0408  0.3748
 1023TIP3    H1 3075   5.945   5.667   3.665  1.7887  0.5912  1.7169
 1023TIP3    H2 3076   5.909   5.657   3.811 -0.4745 -1.1394  1.0963
 1024TIP3   OH2 3077   4.340   0.139   1.714 -0.1053  0.4645  0.2274
 1024TIP3    H1 3078   4.311   0.087   1.789 -2.1705  0.5170 -0.4440
 1024TIP3    H2 3079   4.342   0.229   1.746 -2.9143  0.7623 -0.1715
 1025TIP3   OH2 3080   4.662   4.208   3.460 -0.5612  0.5538  0.6397
 1025TIP3    H1 3081   4.717   4.287   3.469 -0.8146  0.7327  0.6304
 1025TIP3    H2 3082   4.722   4.141   3.429 -0.3733  0.7861  0.4936
 1026TIP3   OH2 3083   3.904   5.201   0.859  0.2257 -0.6827 -0.1853
 1026TIP3    H1 3084   3.876   5.232   0.945 -0.1564 -0.1660 -0.4916
 1026TIP3    H2 3085   3.989   5.243   0.846  0.0415 -0.3443 -0.2886
 1027TIP3   OH2 3086   2.093   4.083   5.051  0.4378  0.2772 -0.1760
 1027TIP3    H1 3087   2.154   4.107   5.121 -0.6473  0.4379  0.7500
 1027TIP3    H2 3088   2.016   4.048   5.096 -0.2384  0.2466 -1.2905
 1028TIP3   OH2 3089   2.390   5.458   0.152  0.2480  0.1087  0.7612
 1028TIP3    H1 3090   2.424   5.444   0.064  2.4722  0.8577  1.4126
 1028TIP3    H2 3091   2.396   5.372   0.194 -1.9723 -0.5397 -0.1060
 1029TIP3   OH2 3092   0.199   0.794   4.119 -0.0597 -0.7604  0.1940
 1029TIP3    H1 3093   0.209   0.889   4.115 -0.1405 -0.6781  1.6981
 1029TIP3    H2 3094   0.145   0.778   4.196 -2.0365 -1.8983 -1.2966
 1030TIP3   OH2 3095   3.370   3.902   4.568 -0.3593 -0.1542 -0.0039
 1030TIP3    H1 3096   3.401   3.841   4.636  1.5009 -0.9215 -1.4450
 1030TIP3    H2 3097   3.282   3.872   4.547 -1.4318  0.7166  2.6994
 1031TIP3   OH2 3098   2.863   5.941   2.987  0.0331  0.0490 -0.1951
 1031TIP3    H1 3099   2.949   5.901   2.991  0.2168  0.3568 -0.9135
 1031TIP3    H2 3100   2.802   5.867   2.979  0.2720 -0.1422 -0.2589
 1032TIP3   OH2 3101   3.087   2.479   1.249  0.5342  0.8189 -0.6003
 1032TIP3    H1 3102   3.046   2.564   1.230  0.8610  1.2610  0.5550
 1032TIP3    H2 3103   3.173   2.502   1.285  0.2228  0.0483  0.7093
 1033TIP3   OH2 3104   1.494   3.026   2.101 -0.3142  0.1945 -0.3637
 1033TIP3    H1 3105   1.495   3.008   2.007  1.8209  0.1222 -0.3774
 1033TIP3    H2 3106   1.403   3.044   2.122 -0.9707 -0.7667 -2.2639
 1034TIP3   OH2 3107   4.554   5.719   2.761 -0.0967 -0.0775  0.2984
 1034TIP3    H1 3108   4.570   5.632   2.725  2.1987  0.1337  0.6995
 1034TIP3    H2 3109   4.501   5.703   2.839 -0.0197 -1.0671  0.1614
 1035TIP3   OH2 3110   2.379   1.981   2.065 -0.4242  0.3520 -0.0935
 1035TIP3    H1 3111   2.432   1.903   2.084  0.0866  1.1549  2.0486
 1035TIP3    H2 3112   2.442   2.052   2.059 -0.6683  0.4217 -4.0117
 1036TIP3   OH2 3113   0.375   5.851   0.418 -0.0656  0.3091  0.0585
 1036TIP3    H1 3114   0.431   5.777   0.395 -0.1091  0.1346  0.5110
 1036TIP3    H2 3115   0.434   5.916   0.456 -0.1417  0.1916  0.3823
 1037TIP3   OH2 3116   0.674   2.465   0.631 -0.2214 -0.2440  0.1196
 1037TIP3    H1 3117   0.691   2.479   0.724 -1.2528  0.6989  0.1770
 1037TIP3    H2 3118   0.593   2.413   0.629 -1.1092  1.1131 -0.2640
 1038TIP3   OH2 3119   1.225   3.210   4.963  0.3368  0.0544  0.2854
 1038TIP3    H1 3120   1.152   3.149   4.972  0.0485  0.0005 -1.9378
 1038TIP3    H2 3121   1.202   3.282   5.022 -0.9533 -0.4864  0.4932
 1039TIP3   OH2 3122   3.711   4.985   0.452 -0.0920 -0.0287  0.2940
 1039TIP3    H1 3123   3.763   4.914   0.414  0.1079  0.1492  0.2337
 1039TIP3    H2 3124   3.689   5.042   0.378  1.4898  1.0835  0.6101
 1040TIP3   OH2 3125   5.825   0.192   4.136  0.4300 -0.5023  0.5444
 1040TIP3    H1 3126   5.867   0.111   4.165 -2.1944 -1.8816  0.7972
 1040TIP3    H2 3127   5.782   0.226   4.215  0.1732  0.2725  0.0810
 1041TIP3   OH2 3128   4.551   1.323   2.158  0.7983 -0.6793  0.3175
 1041TIP3    H1 3129   4.465   1.307   2.196 -0.1564 -0.5613 -1.6910
 1041TIP3    H2 3130   4.548   1.414   2.128  1.5248 -0.7675 -0.0515
 1042TIP3   OH2 3131   3.822   1.556   2.112  0.5843 -0.1672 -0.0045
 1042TIP3    H1 3132   3.866   1.628   2.156  0.6333 -0.3065  0.1766
 1042TIP3    H2 3133   3.858   1.477   2.153  0.1861 -0.2844  0.1244
 1043TIP3   OH2 3134   4.779   3.475   4.711  0.3591 -0.0410 -0.5879
 1043TIP3    H1 3135   4.781   3.401   4.772  0.5710  0.6550  0.2727
 1043TIP3    H2 3136   4.699   3.522   4.734 -0.5445 -0.7682 -2.0904
 1044TIP3   OH2 3137   3.954   2.133   4.580 -0.8394  0.7393  0.4736
 1044TIP3    H1 3138   3.926   2.077   4.652  0.4960 -1.1565 -0.3956
 1044TIP3    H2 3139   3.946   2.079   4.501  2.1770  1.0585 -0.1996
 1045TIP3   OH2 3140   0.171   4.089   1.056  0.4679 -0.0214  0.2098
 1045TIP3    H1 3141   0.112   4.135   0.996  1.3761  0.7387 -0.1440
 1045TIP3    H2 3142   0.215   4.160   1.104 -0.5069 -0.6189  2.0649
 1046TIP3   OH2 3143   0.615   2.742   4.312  0.3096 -0.4233 -0.1597
 1046TIP3    H1 3144   0.612   2.732   4.217  2.0285  1.9744 -0.5673
 1046TIP3    H2 3145   0.525   2.727   4.341 -0.4542 -0.2610 -2.2837
 1047TIP3   OH2 3146   3.068   1.608   4.113  0.3157 -0.6475  0.4662
 1047TIP3    H1 3147   3.085   1.690   4.068 -0.3345 -0.8260 -0.1217
 1047TIP3    H2 3148   3.146   1.555   4.096  1.4039  0.3501  2.0919
 1048TIP3   OH2 3149   1.140   4.519   0.710  0.1056 -0.2286 -0.0910
 1048TIP3    H1 3150   1.107   4.437   0.749 -0.5529  0.8000  1.6653
 1048TIP3    H2 3151   1.186   4.491   0.631 -1.5326 -2.1403 -0.4732
 1049TIP3   OH2 3152   2.280   4.764   4.787 -0.1272  0.5431 -0.0106
 1049TIP3    H1 3153   2.363   4.796   4.752  0.9950  0.0651  2.0908
 1049TIP3    H2 3154   2.272   4.676   4.751  0.3376  0.5415 -0.1208
 1050TIP3   OH2 3155   4.419   4.956   1.875 -0.0550  0.3025 -0.2241
 1050TIP3    H1 3156   4.336   4.965   1.922 -0.0439 -3.0022  0.6593
 1050TIP3    H2 3157   4.452   4.870   1.901  0.2615 -1.6209 -5.6910
 1051TIP3   OH2 3158   3.408   2.663   3.604 -0.4396 -0.0223  0.0088
 1051TIP3    H1 3159   3.427   2.619   3.687  0.1160 -1.5522 -0.8724
 1051TIP3    H2 3160   3.315   2.648   3.590 -0.1300 -1.6182 -0.6076
 1052TIP3   OH2 3161   0.226   1.200   1.329  0.0859  0.0319 -0.0342
 1052TIP3    H1 3162   0.217   1.291   1.300 -0.2545  0.4211  1.2395
 1052TIP3    H2 3163   0.320   1.184   1.329  0.1167 -0.9025 -3.9637
 1053TIP3   OH2 3164   5.983   5.402   4.262  0.4931  0.0580 -0.0511
 1053TIP3    H1 3165   5.899   5.388   4.218  0.7778 -2.4378  0.0580
 1053TIP3    H2 3166   6.044   5.419   4.190  0.2012  0.2497 -0.2607
 1054TIP3   OH2 3167   3.484   5.802   3.629 -0.1513  0.5708 -0.1858
 1054TIP3    H1 3168   3.562   5.750   3.613 -0.3579  0.3985 -0.6723
 1054TIP3    H2 3169   3.491   5.829   3.720 -0.5660 -1.2167  0.4311
 1055TIP3   OH2 3170   3.436   3.682   0.782 -0.1547  0.3543 -0.1518
 1055TIP3    H1 3171   3.396   3.741   0.718 -0.6326 -0.7452 -0.9068
 1055TIP3    H2 3172   3.530   3.690   0.767 -0.2432  0.4357 -0.6978
 1056TIP3   OH2 3173   1.866   5.139   0.386  0.4025  0.4199 -0.0199
 1056TIP3    H1 3174   1.857   5.228   0.353 -1.0059 -0.3828 -1.9710
 1056TIP3    H2 3175   1.776   5.110   0.402  0.6671 -1.3150 -1.3829
 1057TIP3   OH2 3176   5.307   2.025   0.531  0.9157 -0.0532 -0.4764
 1057TIP3    H1 3177   5.377   2.001   0.470  1.7060 -0.2704  0.4846
 1057TIP3    H2 3178   5.257   2.092   0.485  2.0025  0.4000 -1.0434
 1058TIP3   OH2 3179   1.498   1.661   2.752 -0.1684  0.5532  0.0416
 1058TIP3    H1 3180   1.481   1.744   2.797 -0.1695  0.0564  0.9823
 1058TIP3    H2 3181   1.576   1.677   2.700 -1.8621  2.0733 -2.2484
 1059TIP3   OH2 3182   5.672   0.948   2.217  0.2725 -0.3046  0.2926
 1059TIP3    H1 3183   5.725   0.899   2.154 -1.4305  0.6308 -1.9637
 1059TIP3    H2 3184   5.638   0.881   2.277  0.4734 -1.4768 -0.8686
 1060TIP3   OH2 3185   5.657   3.192   0.227  0.1043  0.3006  0.3688
 1060TIP3    H1 3186   5.716   3.240   0.285 -1.9426  1.6412  1.4717
 1060TIP3    H2 3187   5.618   3.125   0.283 -1.0128  0.8498  0.2803
 1061TIP3   OH2 3188   1.853   5.767   1.026 -0.2334  0.1369 -0.0524
 1061TIP3    H1 3189   1.905   5.722   0.959  0.4058 -1.7524  1.6122
 1061TIP3    H2 3190   1.914   5.824   1.071  0.0209 -0.7299  0.7307
 1062TIP3   OH2 3191   0.881   3.335   1.880 -0.5030 -0.0949  0.0318
 1062TIP3    H1 3192   0.786   3.349   1.884 -0.7090 -1.0470 -0.9360
 1062TIP3    H2 3193   0.891   3.241   1.892  0.3522  0.0285  0.3265
 1063TIP3   OH2 3194   0.206   2.395   0.146 -0.0165  0.2931 -0.1491
 1063TIP3    H1 3195   0.215   2.490   0.138  0.5421  0.5436  2.4952
 1063TIP3    H2 3196   0.142   2.371   0.079  1.7615  2.0959 -2.6658
 1064TIP3   OH2 3197   2.104   5.579   0.219 -0.0142 -0.7977 -0.4268
 1064TIP3    H1 3198   2.160   5.504   0.198  1.4716 -0.0215  0.5974
 1064TIP3    H2 3199   2.126   5.645   0.154 -0.8295 -0.9930 -0.9145
 1065TIP3   OH2 3200   2.690   3.562   0.046  0.2725  0.4260 -0.1214
 1065TIP3    H1 3201   2.745   3.560   0.124  0.1110  0.8856  0.0028
 1065TIP3    H2 3202   2.647   3.647   0.048  0.0815  0.3455 -0.5834
 1066TIP3   OH2 3203   3.838   1.628   0.115  0.5182 -0.1860  0.3388
 1066TIP3    H1 3204   3.847   1.666   0.028  1.2634 -1.0088  0.0430
 1066TIP3    H2 3205   3.757   1.576   0.111  0.7922 -0.5920 -0.0125
 1067TIP3   OH2 3206   6.352   0.140   3.199  0.3902  0.0500 -0.3016
 1067TIP3    H1 3207   6.349   0.214   3.137  0.2922  0.0903 -0.2488
 1067TIP3    H2 3208   6.300   0.169   3.273  0.7984  0.1412 -0.0448
 1068TIP3   OH2 3209   5.554   2.892   1.828  0.6419  0.7912  0.6872
 1068TIP3    H1 3210   5.599   2.814   1.795  0.8052  1.4264 -0.6456
 1068TIP3    H2 3211   5.473   2.858   1.867 -0.1896  0.0653 -1.4970
 1069TIP3   OH2 3212   2.356   4.120   4.423  0.2915 -0.8810  0.4010
 1069TIP3    H1 3213   2.368   4.172   4.344  0.8486 -1.7848 -0.1418
 1069TIP3    H2 3214   2.266   4.135   4.449  0.4299  0.3067  0.2416
 1070TIP3   OH2 3215   5.631   0.789   0.713 -0.2012 -0.1445 -0.4324
 1070TIP3    H1 3216   5.690   0.742   0.654  1.0071 -0.4135  0.9401
 1070TIP3    H2 3217   5.643   0.881   0.690  3.0366  0.1159  1.6746
 1071TIP3   OH2 3218   0.472   2.441   2.113  0.6568  0.5003  0.0588
 1071TIP3    H1 3219   0.531   2.511   2.140  2.1601 -0.1161 -1.4391
 1071TIP3    H2 3220   0.447   2.465   2.023 -1.3870  0.7146  0.6219
 1072TIP3   OH2 3221   1.667   0.766   1.730 -0.3473  0.6898  0.0230
 1072TIP3    H1 3222   1.620   0.809   1.658 -0.5320 -1.4586 -1.2248
 1072TIP3    H2 3223   1.753   0.745   1.693  0.1136  0.8820  0.9483
 1073TIP3   OH2 3224   2.807   3.216   1.254 -0.7121 -0.0586  0.4698
 1073TIP3    H1 3225   2.874   3.259   1.308 -0.0836  0.7592 -0.9191
 1073TIP3    H2 3226   2.846   3.132   1.230 -0.2610  0.3123 -0.1316
 1074TIP3   OH2 3227   1.901   1.860   0.497 -0.2667  0.0507 -0.3358
 1074TIP3    H1 3228   1.864   1.779   0.531  0.9618 -0.8720 -1.1258
 1074TIP3    H2 3229   1.948   1.898   0.571 -0.3740 -0.2576 -0.1086
 1075TIP3   OH2 3230   2.014   1.032   0.378 -0.5659 -0.2259  0.5913
 1075TIP3    H1 3231   2.058   1.117   0.384  0.2858 -0.4212 -1.8093
 1075TIP3    H2 3232   2.021   0.995   0.466 -1.2396  2.2863  1.7900
 1076TIP3   OH2 3233   2.529   5.500   2.550  0.0620 -0.0486 -0.3907
 1076TIP3    H1 3234   2.571   5.530   2.469  1.1849 -0.9841 -0.1789
 1076TIP3    H2 3235   2.501   5.581   2.594  0.7317  0.5427 -1.0270
 1077TIP3   OH2 3236   4.746   4.208   1.117  0.5104 -0.3800  0.0601
 1077TIP3    H1 3237   4.798   4.129   1.130  0.0764 -0.9471 -1.4210
 1077TIP3    H2 3238   4.656   4.180   1.130  0.4050  0.0517  0.2780
 1078TIP3   OH2 3239   2.986   5.790   2.430  0.4977 -0.2174 -0.0913
 1078TIP3    H1 3240   3.004   5.731   2.357 -0.8895  0.4001 -0.9795
 1078TIP3    H2 3241   2.914   5.845   2.399  0.4529  0.6396  1.4333
 1079TIP3   OH2 3242   1.739   0.752   0.468  0.3735  0.3535  0.6279
 1079TIP3    H1 3243   1.824   0.733   0.508 -0.1790  0.1674  1.7392
 1079TIP3    H2 3244   1.747   0.717   0.379  1.6902  0.9454  0.4792
 1080TIP3   OH2 3245   4.847   5.744   0.179 -0.1406  0.1498 -0.3582
 1080TIP3    H1 3246   4.895   5.758   0.097 -0.1643  0.4458 -0.3238
 1080TIP3    H2 3247   4.789   5.821   0.186 -0.2649  0.0375 -0.1546
 1081TIP3   OH2 3248   5.743   0.592   4.766  0.0166  0.0804  0.8675
 1081TIP3    H1 3249   5.827   0.633   4.745  0.5584 -0.1000  2.5713
 1081TIP3    H2 3250   5.697   0.589   4.682  1.8873 -0.2601 -0.1980
 1082TIP3   OH2 3251   3.216   2.890   4.959  0.1165 -0.0131 -0.5604
 1082TIP3    H1 3252   3.250   2.807   4.994  0.2726  0.3825  0.2696
 1082TIP3    H2 3253   3.192   2.940   5.037  1.5565  1.3716 -0.9458
 1083TIP3   OH2 3254   2.954   0.426   3.447 -0.4405  0.5177  0.0524
 1083TIP3    H1 3255   3.006   0.450   3.370  0.6030  2.4963  1.2973
 1083TIP3    H2 3256   2.874   0.477   3.439 -2.2436 -2.2993 -1.7027
 1084TIP3   OH2 3257   3.184   5.520   4.426  0.0635  0.7563  0.1233
 1084TIP3    H1 3258   3.192   5.428   4.450 -0.0342  0.4553 -0.9847
 1084TIP3    H2 3259   3.244   5.531   4.352 -1.7465  0.9840 -1.3789
 1085TIP3   OH2 3260   3.806   1.802   3.692  0.5669 -0.6485  0.4217
 1085TIP3    H1 3261   3.819   1.849   3.610 -0.8218 -1.3961 -0.2486
 1085TIP3    H2 3262   3.729   1.844   3.731  2.0018  0.6293  2.0598
 1086TIP3   OH2 3263   6.249   5.059   2.003 -0.2349  0.3881  0.2604
 1086TIP3    H1 3264   6.305   5.008   2.061  0.1811  1.3905  0.7758
 1086TIP3    H2 3265   6.166   5.012   2.002  0.9690 -1.8735 -1.5823
 1087TIP3   OH2 3266   0.619   3.722   0.002 -0.0307  0.3343  0.1053
 1087TIP3    H1 3267   0.616   3.801   0.055 -0.5316  0.5791 -0.2824
 1087TIP3    H2 3268   0.537   3.723  -0.048  0.0355 -0.3380 -0.0288
 1088TIP3   OH2 3269   4.767   5.815   3.132  0.0980  0.7616  0.3128
 1088TIP3    H1 3270   4.796   5.733   3.091 -0.4959 -0.0976  1.5636
 1088TIP3    H2 3271   4.748   5.873   3.058  0.4260 -0.2622 -0.5987
 1089TIP3   OH2 3272   5.433   1.277   0.607 -0.2662  0.1175  0.3207
 1089TIP3    H1 3273   5.493   1.348   0.587  1.6844 -1.3496  0.6673
 1089TIP3    H2 3274   5.452   1.210   0.540 -0.7949 -0.7699  1.0291
 1090TIP3   OH2 3275   5.856   4.061   2.914  0.1691  0.2903  0.0568
 1090TIP3    H1 3276   5.886   4.150   2.893  0.7981  0.2863  0.8811
 1090TIP3    H2 3277   5.764   4.060   2.887  0.4342  0.8513 -0.9323
 1091TIP3   OH2 3278   0.818   5.619   1.373 -0.1044  0.2848  0.2196
 1091TIP3    H1 3279   0.906   5.582   1.366 -0.4659 -1.2232  2.5464
 1091TIP3    H2 3280   0.832   5.708   1.405  0.5993 -0.1340  1.1370
 1092TIP3   OH2 3281   3.999   4.445   2.505 -0.0391  0.1000  0.2075
 1092TIP3    H1 3282   3.916   4.398   2.511 -0.7253  1.1537 -0.5939
 1092TIP3    H2 3283   4.025   4.437   2.413 -1.5235  3.3725 -0.6524
 1093TIP3   OH2 3284   2.689   5.818   3.601 -0.6409 -0.4168  0.3575
 1093TIP3    H1 3285   2.679   5.881   3.672 -1.8821 -1.4537  1.1547
 1093TIP3    H2 3286   2.684   5.870   3.521 -0.2140  0.6481  1.0121
 1094TIP3   OH2 3287   4.553   2.033   4.275 -0.3806  0.3455 -0.4300
 1094TIP3    H1 3288   4.625   2.096   4.282  0.6382 -0.7952 -0.2709
 1094TIP3    H2 3289   4.576   1.978   4.201 -1.0150 -0.1427 -0.2745
 1095TIP3   OH2 3290   5.680   5.784   3.394  0.1152  0.3612 -0.3179
 1095TIP3    H1 3291   5.764   5.811   3.357  0.6432 -1.0208 -0.1901
 1095TIP3    H2 3292   5.651   5.713   3.338 -0.7402  0.5048 -0.0669
 1096TIP3   OH2 3293   3.810   3.729   5.183 -0.7229  0.2585  0.4559
 1096TIP3    H1 3294   3.888   3.780   5.165 -1.3361  0.7920 -0.8331
 1096TIP3    H2 3295   3.772   3.711   5.097 -2.6948  1.0999  1.0884
 1097TIP3   OH2 3296   4.946   1.023   0.942  0.2485  0.6792  0.3719
 1097TIP3    H1 3297   4.911   0.937   0.968  2.5308 -0.8466 -1.2329
 1097TIP3    H2 3298   4.878   1.060   0.885 -0.6983 -0.1163  0.9455
 1098TIP3   OH2 3299   1.825   1.511   2.003 -0.5234 -0.2422 -0.0353
 1098TIP3    H1 3300   1.837   1.467   1.919 -0.7798  0.8310 -0.6456
 1098TIP3    H2 3301   1.772   1.450   2.055 -0.5028 -0.8381 -0.7080
 1099TIP3   OH2 3302   4.200   1.270   0.995 -0.0305 -0.0188  0.0719
 1099TIP3    H1 3303   4.270   1.325   1.029 -0.7674 -0.2942  2.1501
 1099TIP3    H2 3304   4.169   1.220   1.070 -2.5656  0.1964 -0.7158
 1100TIP3   OH2 3305   0.322   3.356   5.034 -0.4010  0.4171 -0.1486
 1100TIP3    H1 3306   0.289   3.267   5.025  0.7450  0.0649 -1.3053
 1100TIP3    H2 3307   0.396   3.348   5.094  0.6194  0.2970 -1.3820
 1101TIP3   OH2 3308   0.147   0.164   1.784 -0.2109  0.2490 -0.2985
 1101TIP3    H1 3309   0.165   0.244   1.832 -0.2860 -0.4704  0.9874
 1101TIP3    H2 3310   0.058   0.176   1.750 -0.0625  0.8781 -0.4716
 1102TIP3   OH2 3311   1.665   1.906   2.959  0.4968  0.4038 -0.2036
 1102TIP3    H1 3312   1.720   1.973   2.919 -1.1104  1.1743 -1.2193
 1102TIP3    H2 3313   1.701   1.823   2.926 -0.1393  0.9763 -2.5084
 1103TIP3   OH2 3314   4.481   0.699   3.769 -0.1182  0.3575 -0.1580
 1103TIP3    H1 3315   4.480   0.673   3.677  1.2157 -0.1848 -0.0393
 1103TIP3    H2 3316   4.414   0.645   3.811 -0.3766  0.2426 -0.7144
 1104TIP3   OH2 3317   0.742   4.422   4.517 -0.2316  0.3212 -0.0835
 1104TIP3    H1 3318   0.787   4.407   4.601  0.2541  0.4437 -0.3163
 1104TIP3    H2 3319   0.675   4.355   4.513 -0.3107  0.3626  0.4444
 1105TIP3   OH2 3320   2.852   4.215   1.547 -0.0830 -0.1300 -0.2334
 1105TIP3    H1 3321   2.823   4.140   1.496  0.4831  1.3545 -2.9243
 1105TIP3    H2 3322   2.944   4.196   1.567 -0.1643 -0.4984 -0.2005
 1106TIP3   OH2 3323   1.400   2.079   1.657  0.5169  0.2126 -0.4426
 1106TIP3    H1 3324   1.401   2.146   1.588  0.8852  0.9949  0.3072
 1106TIP3    H2 3325   1.463   2.110   1.722 -0.8711  0.2343  0.9523
 1107TIP3   OH2 3326   2.707   3.860   3.875 -0.7146 -0.2957  0.2747
 1107TIP3    H1 3327   2.797   3.831   3.859 -1.1648 -0.6040 -1.9643
 1107TIP3    H2 3328   2.708   3.888   3.967  1.5247 -0.7627  0.4688
 1108TIP3   OH2 3329   1.088   2.561   3.754 -0.4104 -0.9846 -0.2342
 1108TIP3    H1 3330   1.133   2.645   3.766 -1.4500 -0.4524  0.0037
 1108TIP3    H2 3331   1.157   2.502   3.722  0.7200 -0.4879  1.1575
 1109TIP3   OH2 3332   5.407   4.679   4.416  0.3014 -0.6949  0.0594
 1109TIP3    H1 3333   5.500   4.687   4.435  0.0721 -0.7878  1.2601
 1109TIP3    H2 3334   5.368   4.761   4.446 -0.0612 -0.8116 -0.0817
 1110TIP3   OH2 3335   3.276   3.248   1.776  0.0500 -0.8263 -0.2189
 1110TIP3    H1 3336   3.341   3.264   1.708 -0.1430  0.3021 -0.1596
 1110TIP3    H2 3337   3.232   3.167   1.749  0.0776 -0.4785 -1.3626
 1111TIP3   OH2 3338   2.872   5.002   3.164 -0.6374  0.2833  0.4639
 1111TIP3    H1 3339   2.791   4.952   3.156 -0.6254 -0.0051  1.9659
 1111TIP3    H2 3340   2.938   4.948   3.121 -1.1601  0.3835 -0.5033
 1112TIP3   OH2 3341   4.701   5.483   0.033 -0.1925 -0.1124 -0.0609
 1112TIP3    H1 3342   4.771   5.494   0.098  0.0069  0.8310 -0.4217
 1112TIP3    H2 3343   4.627   5.531   0.069 -0.6528 -1.0672  0.2942
 1113TIP3   OH2 3344   0.786   1.457   4.449  0.2570  0.1919 -0.7864
 1113TIP3    H1 3345   0.818   1.438   4.537  0.4021 -0.3740 -0.9605
 1113TIP3    H2 3346   0.718   1.391   4.433  0.1324  0.3803 -1.0441
 1114TIP3   OH2 3347   5.781   3.050   1.283 -0.1951  0.3960  0.1828
 1114TIP3    H1 3348   5.697   3.036   1.239  0.4075 -0.8624 -0.6437
 1114TIP3    H2 3349   5.844   3.001   1.229  1.6590  3.8815 -1.1389
 1115TIP3   OH2 3350   0.712   5.180   1.570  0.0512 -0.2072 -0.1766
 1115TIP3    H1 3351   0.762   5.226   1.638  1.0795 -0.8236 -0.4974
 1115TIP3    H2 3352   0.624   5.217   1.577 -0.1421 -0.9148  2.1142
 1116TIP3   OH2 3353   2.410   4.912   3.942 -0.9150  0.0530 -0.4160
 1116TIP3    H1 3354   2.501   4.912   3.912  0.2734 -0.6484  2.7137
 1116TIP3    H2 3355   2.373   4.830   3.909  0.3991 -0.8340  0.2284
 1117TIP3   OH2 3356   5.693   3.689   2.186 -0.3807 -0.2766  0.2237
 1117TIP3    H1 3357   5.714   3.599   2.162  1.8534  0.5475 -1.2860
 1117TIP3    H2 3358   5.600   3.698   2.167 -0.6336 -2.2153  0.3177
 1118TIP3   OH2 3359   5.500   5.613   0.553  0.0583 -0.0636 -0.6166
 1118TIP3    H1 3360   5.520   5.526   0.520 -0.3051 -0.5512  0.3920
 1118TIP3    H2 3361   5.429   5.645   0.498 -0.6961 -0.9518 -0.1831
 1119TIP3   OH2 3362   3.320   0.082   1.641 -0.5634  0.7656  0.0498
 1119TIP3    H1 3363   3.300   0.175   1.646  2.0838  1.3786  2.0372
 1119TIP3    H2 3364   3.415   0.078   1.654 -0.7206 -2.2642  0.9748
 1120TIP3   OH2 3365   3.066   0.701   1.596 -0.7216 -0.0340 -0.4368
 1120TIP3    H1 3366   3.070   0.666   1.685 -2.0975  0.7538 -0.0227
 1120TIP3    H2 3367   3.111   0.785   1.601  0.0630 -0.4357 -0.7274
 1121TIP3   OH2 3368   1.601   2.342   5.122 -0.3048 -0.4809 -0.0319
 1121TIP3    H1 3369   1.563   2.292   5.195  1.0052 -2.2355 -0.4572
 1121TIP3    H2 3370   1.689   2.304   5.111  1.2060  2.6518  0.2414
 1122TIP3   OH2 3371   1.709   5.645   4.815  0.3772  0.5600 -0.2632
 1122TIP3    H1 3372   1.639   5.650   4.750  1.2204  0.2072 -1.2328
 1122TIP3    H2 3373   1.668   5.607   4.892 -0.2627 -0.6844 -1.1795
 1123TIP3   OH2 3374   3.978   3.833   1.762  0.2604  0.5365  0.4646
 1123TIP3    H1 3375   3.981   3.744   1.727  0.4655  1.0302 -0.8265
 1123TIP3    H2 3376   3.906   3.832   1.825  1.8364 -1.1988  2.3893
 1124TIP3   OH2 3377   3.872   2.289   5.007  0.2416  0.6690 -0.0158
 1124TIP3    H1 3378   3.906   2.324   5.090 -1.9682 -0.4126  1.4333
 1124TIP3    H2 3379   3.913   2.203   4.999 -2.1010 -0.7631  1.8825
 1125TIP3   OH2 3380   5.752   1.453   4.117 -0.2540  0.1437  0.0454
 1125TIP3    H1 3381   5.762   1.546   4.135 -1.6739  0.4945 -0.7763
 1125TIP3    H2 3382   5.727   1.415   4.201  0.9049  0.3966  0.5123
 1126TIP3   OH2 3383   1.554   5.388   0.787  0.4217  0.5698 -0.0977
 1126TIP3    H1 3384   1.579   5.317   0.728  0.8289  0.2536  0.4461
 1126TIP3    H2 3385   1.634   5.407   0.836  0.2460  1.2361 -0.0689
 1127TIP3   OH2 3386   5.059   0.516   2.777  0.3148  0.1899  0.8332
 1127TIP3    H1 3387   4.991   0.573   2.813  1.5929  1.4262  1.3688
 1127TIP3    H2 3388   5.039   0.430   2.813 -1.0506  0.4860  0.8403
 1128TIP3   OH2 3389   2.174   5.415   4.750 -0.2843  0.5968  0.3798
 1128TIP3    H1 3390   2.087   5.436   4.715 -1.5328 -1.6772  1.8042
 1128TIP3    H2 3391   2.223   5.383   4.674 -1.8506 -1.2038  0.0385
 1129TIP3   OH2 3392   1.939   2.302   1.629  0.4369 -0.3490  0.1284
 1129TIP3    H1 3393   1.921   2.334   1.717  2.6412 -2.2919  1.3965
 1129TIP3    H2 3394   1.883   2.225   1.620  0.8145 -0.6280  0.1608
 1130TIP3   OH2 3395   5.135   3.357   2.317  0.2671 -0.3916 -0.6728
 1130TIP3    H1 3396   5.153   3.388   2.228  0.1560 -0.0755 -0.5862
 1130TIP3    H2 3397   5.079   3.280   2.304  0.3379 -0.4093 -0.8811
 1131TIP3   OH2 3398   1.672   3.831   1.071  0.2078 -0.0859 -0.3576
 1131TIP3    H1 3399   1.650   3.865   1.157  1.4201 -0.4437  0.1139
 1131TIP3    H2 3400   1.732   3.758   1.088  1.6561  0.7654 -1.5283
 1132TIP3   OH2 3401   4.772   4.091   0.815  0.3446  0.3853  0.1223
 1132TIP3    H1 3402   4.680   4.101   0.838  0.2633  1.3752 -0.5454
 1132TIP3    H2 3403   4.794   4.001   0.838 -1.6313 -0.9068 -2.5308
 1133TIP3   OH2 3404   1.588   3.950   1.297 -0.0748  0.1954  0.4858
 1133TIP3    H1 3405   1.520   3.960   1.364 -0.9042  1.1620 -0.4570
 1133TIP3    H2 3406   1.594   4.037   1.257  0.5402 -0.3135 -0.5593
 1134TIP3   OH2 3407   5.968   4.517   1.991  0.1067 -0.6903 -0.6614
 1134TIP3    H1 3408   6.028   4.558   1.929 -0.5172  1.5991  0.1324
 1134TIP3    H2 3409   5.985   4.562   2.074 -2.0290 -0.6110 -0.2081
 1135TIP3   OH2 3410   0.923   1.875   3.934 -0.2606  0.4252 -0.5928
 1135TIP3    H1 3411   0.859   1.804   3.929  0.0318  0.0554  0.6250
 1135TIP3    H2 3412   0.979   1.852   4.008 -1.0653  2.6594  0.8311
 1136TIP3   OH2 3413   6.195   1.893   1.423  0.4691 -0.3686 -0.2540
 1136TIP3    H1 3414   6.193   1.875   1.329  1.2462  1.0109 -0.5673
 1136TIP3    H2 3415   6.107   1.871   1.454  0.4286 -1.5591 -1.1469
 1137TIP3   OH2 3416   0.195   3.658   0.659  0.8569  0.1526  0.5607
 1137TIP3    H1 3417   0.138   3.585   0.633  0.1203  0.4086  1.3987
 1137TIP3    H2 3418   0.135   3.730   0.678  1.4622  0.4647  1.3505
 1138TIP3   OH2 3419   0.454   1.908   2.971 -0.5618  0.4975 -0.0320
 1138TIP3    H1 3420   0.446   2.003   2.971  0.3081  0.5725  0.4550
 1138TIP3    H2 3421   0.518   1.889   2.903 -2.5487  0.0674 -1.9216
 1139TIP3   OH2 3422   3.676   1.389   2.418 -0.1685  0.4058 -0.0692
 1139TIP3    H1 3423   3.703   1.480   2.419  1.4461 -0.0013 -1.1883
 1139TIP3    H2 3424   3.662   1.366   2.509  2.8994  0.8464  0.6178
 1140TIP3   OH2 3425   0.382   3.089   4.394  0.4663 -0.3571  0.1257
 1140TIP3    H1 3426   0.453   3.030   4.372 -0.6017 -1.2817 -0.9832
 1140TIP3    H2 3427   0.401   3.169   4.344  0.0944 -1.0578 -1.1944
 1141TIP3   OH2 3428   2.898   2.545   4.965 -0.1801  0.0798 -0.1697
 1141TIP3    H1 3429   2.928   2.506   4.883 -0.7707 -1.0300  0.1248
 1141TIP3    H2 3430   2.880   2.471   5.023 -0.1058  0.8294  0.8559
 1142TIP3   OH2 3431   0.092   3.929   3.895  0.6043  0.0029  0.1277
 1142TIP3    H1 3432   0.158   3.911   3.962 -0.2104  1.5735  1.4446
 1142TIP3    H2 3433   0.068   3.843   3.862  1.0256 -0.8539  1.8890
 1143TIP3   OH2 3434   1.022   1.536   3.791 -0.3728  0.0040 -0.2508
 1143TIP3    H1 3435   0.945   1.561   3.842 -0.8599  1.2673 -1.5532
 1143TIP3    H2 3436   1.031   1.442   3.805 -1.0071  0.1614  1.4337
 1144TIP3   OH2 3437   2.375   3.687   1.081  0.4007  0.0981  0.2979
 1144TIP3    H1 3438   2.412   3.750   1.018  0.6432 -0.1620  0.1771
 1144TIP3    H2 3439   2.421   3.705   1.163  1.9988 -1.2737 -0.2232
 1145TIP3   OH2 3440   2.979   4.760   3.763 -0.0160  0.1897 -0.2248
 1145TIP3    H1 3441   3.073   4.745   3.762 -0.1679 -0.7520 -0.7396
 1145TIP3    H2 3442   2.956   4.776   3.671 -0.9290 -3.4232 -0.7743
 1146TIP3   OH2 3443   0.817   1.555   1.433  0.0872 -0.4575  0.1175
 1146TIP3    H1 3444   0.907   1.585   1.448 -0.3504  0.7052  0.5283
 1146TIP3    H2 3445   0.787   1.607   1.358 -0.5802 -0.0796  0.6397
 1147TIP3   OH2 3446   1.743   2.999   4.405 -0.1194 -0.1112 -0.4987
 1147TIP3    H1 3447   1.687   2.927   4.434 -0.6661  0.7687  0.6867
 1147TIP3    H2 3448   1.718   3.014   4.314 -0.1849 -1.2302 -0.6858
 1148TIP3   OH2 3449   0.966   4.202   2.282  0.0853  0.1707 -0.9064
 1148TIP3    H1 3450   0.882   4.155   2.274 -0.2227  0.8748 -2.1554
 1148TIP3    H2 3451   0.944   4.282   2.329 -0.5297  1.5603 -3.3553
 1149TIP3   OH2 3452   3.180   6.001   4.354  0.3493  0.0550 -0.0146
 1149TIP3    H1 3453   3.110   5.936   4.358  0.9528 -0.6340 -0.4210
 1149TIP3    H2 3454   3.220   5.988   4.269 -0.6987  2.2429 -0.9204
 1150TIP3   OH2 3455   4.930   1.015   4.068 -0.0818 -0.3024 -0.5140
 1150TIP3    H1 3456   5.015   0.990   4.032  0.6996 -0.3483  1.2713
 1150TIP3    H2 3457   4.947   1.097   4.115 -1.9022  1.9888 -3.4326
 1151TIP3   OH2 3458   5.951   1.808   1.434  0.4700  0.1027  0.1467
 1151TIP3    H1 3459   5.903   1.726   1.427  1.8609 -0.6240 -1.3102
 1151TIP3    H2 3460   5.882   1.875   1.442 -0.6673 -1.1782  1.5849
 1152TIP3   OH2 3461   5.448   3.203   3.878  0.3969 -0.0486  0.4044
 1152TIP3    H1 3462   5.355   3.186   3.893 -0.0977  0.1802 -2.0749
 1152TIP3    H2 3463   5.493   3.129   3.918 -0.6670  0.6035  3.0691
 1153TIP3   OH2 3464   3.644   1.835   1.618 -0.7121  0.0719  0.2943
 1153TIP3    H1 3465   3.658   1.746   1.651  0.8766  0.1840  0.0157
 1153TIP3    H2 3466   3.661   1.828   1.524 -1.0578  0.5890  0.1910
 1154TIP3   OH2 3467   2.063   0.825   3.120 -0.0576 -0.2966 -0.1801
 1154TIP3    H1 3468   2.121   0.897   3.095 -0.0088  0.5840  2.2201
 1154TIP3    H2 3469   2.082   0.755   3.057  1.8033  0.8510 -0.9587
 1155TIP3   OH2 3470   0.863   4.167   0.636 -0.0221 -0.1888  0.1680
 1155TIP3    H1 3471   0.853   4.182   0.542  0.6716  2.0882  0.4030
 1155TIP3    H2 3472   0.793   4.218   0.677 -0.8452 -1.8147  0.9095
 1156TIP3   OH2 3473   5.749   4.808   0.599 -0.2683  0.6865 -0.0004
 1156TIP3    H1 3474   5.831   4.760   0.588  0.5358  2.2954 -1.5006
 1156TIP3    H2 3475   5.771   4.899   0.579 -2.0721  1.4525  1.1921
 1157TIP3   OH2 3476   1.334   4.605   4.516 -0.2056 -0.2158  0.0207
 1157TIP3    H1 3477   1.415   4.555   4.510  0.3192  0.7443 -1.6729
 1157TIP3    H2 3478   1.354   4.675   4.578  1.0219  1.2022 -1.8338
 1158TIP3   OH2 3479   0.183   5.765   3.262 -0.7269  0.3264 -0.6059
 1158TIP3    H1 3480   0.182   5.855   3.229  1.4194  0.6189  0.0236
 1158TIP3    H2 3481   0.178   5.710   3.183  2.8975  1.0183 -1.4889
 1159TIP3   OH2 3482   3.870   4.694   1.837 -0.3389  0.6204  0.7445
 1159TIP3    H1 3483   3.818   4.774   1.830 -0.7430  0.2893 -0.2452
 1159TIP3    H2 3484   3.950   4.721   1.880 -0.2220  1.6944 -0.1028
 1160TIP3   OH2 3485   1.694   1.608   0.638 -0.0423 -0.2007  0.0728
 1160TIP3    H1 3486   1.656   1.528   0.673  0.6674 -0.9165 -0.7245
 1160TIP3    H2 3487   1.787   1.588   0.628  0.2529  0.9329  0.4170
 1161TIP3   OH2 3488   1.176   4.715   3.021  0.2365 -0.1683 -0.1539
 1161TIP3    H1 3489   1.232   4.713   3.099 -0.0148  1.7293  0.1208
 1161TIP3    H2 3490   1.204   4.794   2.974 -0.1878 -0.8326 -1.5597
 1162TIP3   OH2 3491   2.272   3.147   3.065  0.1324  0.3028 -0.0218
 1162TIP3    H1 3492   2.197   3.177   3.014 -0.6944  1.3274  1.6773
 1162TIP3    H2 3493   2.241   3.069   3.111  0.8350 -0.5584 -0.9668
 1163TIP3   OH2 3494   3.719   5.636   3.618  0.0963 -0.2089  0.2061
 1163TIP3    H1 3495   3.795   5.624   3.675  1.8444  2.0690 -1.4926
 1163TIP3    H2 3496   3.743   5.594   3.535 -1.1516 -0.7763  0.0991
 1164TIP3   OH2 3497   2.457   3.906   2.727  0.2783 -0.5090 -0.1687
 1164TIP3    H1 3498   2.430   3.818   2.750 -1.4737  0.1671  0.5295
 1164TIP3    H2 3499   2.478   3.901   2.633 -0.6140 -1.4698 -0.3302
 1165TIP3   OH2 3500   2.527   5.936   3.850 -0.1526  0.2260 -0.1957
 1165TIP3    H1 3501   2.528   6.016   3.903  0.9644  0.3326 -0.3462
 1165TIP3    H2 3502   2.586   5.876   3.896 -2.8732 -1.5147  1.3256
 1166TIP3   OH2 3503   4.076   3.731   2.617  0.3257  0.3024 -0.0336
 1166TIP3    H1 3504   4.039   3.811   2.579 -0.7258 -0.0136  0.2749
 1166TIP3    H2 3505   4.070   3.744   2.712 -0.7026 -0.4812  0.0340
 1167TIP3   OH2 3506   1.473   2.890   2.497  0.2787 -0.4066 -0.2519
 1167TIP3    H1 3507   1.521   2.809   2.482 -1.1749 -1.7422  1.8636
 1167TIP3    H2 3508   1.381   2.866   2.488 -0.2265  0.7345  1.3551
 1168TIP3   OH2 3509   1.258   4.762   0.390 -0.1641 -0.0186  0.3591
 1168TIP3    H1 3510   1.276   4.833   0.329  1.1766 -1.4928 -1.0627
 1168TIP3    H2 3511   1.187   4.713   0.349 -1.9381  1.1371  1.9366
 1169TIP3   OH2 3512   1.045   5.692   4.985  0.2661 -0.1149  0.0175
 1169TIP3    H1 3513   0.959   5.722   5.014  0.2257 -0.3133  0.1021
 1169TIP3    H2 3514   1.105   5.760   5.016  0.2382 -0.3898  0.6861
 1170TIP3   OH2 3515   0.058   5.607   4.079  0.4628  0.5096  0.6642
 1170TIP3    H1 3516   0.122   5.586   4.011 -0.5687 -1.0635  0.0970
 1170TIP3    H2 3517  -0.020   5.557   4.054 -0.2659  0.6480  2.4961
 1171TIP3   OH2 3518   0.251   3.332   3.434  0.0154  0.4146 -0.2787
 1171TIP3    H1 3519   0.238   3.424   3.410  0.9232  0.7413  0.4370
 1171TIP3    H2 3520   0.258   3.333   3.529 -0.5954 -0.4858 -0.2170
 1172TIP3   OH2 3521   1.535   5.792   0.703 -0.0988  0.9944  0.0345
 1172TIP3    H1 3522   1.505   5.883   0.710  0.0804  1.0273  0.4247
 1172TIP3    H2 3523   1.590   5.780   0.781  0.7425  0.8753 -0.5704
 1173TIP3   OH2 3524   5.590   3.903   2.365  0.0205  0.3144 -0.3089
 1173TIP3    H1 3525   5.638   3.856   2.296 -1.5546 -1.3283 -0.3792
 1173TIP3    H2 3526   5.629   3.990   2.367  0.2882  0.3461 -3.1113
 1174TIP3   OH2 3527   3.288   1.587   2.488  0.0965 -0.6573  0.0446
 1174TIP3    H1 3528   3.288   1.552   2.578 -1.1664 -0.4202  0.1511
 1174TIP3    H2 3529   3.207   1.638   2.482  1.2919  1.2887 -0.4968
 1175TIP3   OH2 3530   5.114   4.327   2.077 -0.1332 -0.2937  0.1280
 1175TIP3    H1 3531   5.035   4.274   2.088  0.4076 -0.7331  2.6002
 1175TIP3    H2 3532   5.183   4.263   2.061 -0.0749 -0.0143 -0.7562
 1176TIP3   OH2 3533   2.812   1.478   0.986  0.3946 -0.0504  0.4619
 1176TIP3    H1 3534   2.877   1.407   0.987 -0.9177 -1.3094 -0.2722
 1176TIP3    H2 3535   2.770   1.472   0.901 -1.5291 -0.0911  1.3481
 1177TIP3   OH2 3536   3.895   1.722   2.316  0.2338  0.3525 -0.8512
 1177TIP3    H1 3537   3.894   1.816   2.297 -0.8777  0.5335 -0.0265
 1177TIP3    H2 3538   3.982   1.706   2.352  0.1709  1.2393 -0.2516
 1178TIP3   OH2 3539   4.728   0.449   1.630 -0.1733  0.7329 -0.0092
 1178TIP3    H1 3540   4.777   0.530   1.614 -0.8860  1.8571  2.8718
 1178TIP3    H2 3541   4.782   0.380   1.591  0.6207  2.5166 -2.2523
 1179TIP3   OH2 3542   0.417   0.438   3.870 -0.3781  0.5141  0.0093
 1179TIP3    H1 3543   0.363   0.359   3.880 -0.3626  0.5188  0.1267
 1179TIP3    H2 3544   0.354   0.510   3.870 -0.3914  0.5036 -0.0892
 1180TIP3   OH2 3545   5.003   1.177   2.068 -0.3897  0.1888 -0.3283
 1180TIP3    H1 3546   5.051   1.094   2.060  1.8931  1.2723  0.9989
 1180TIP3    H2 3547   4.997   1.210   1.979 -1.3746 -1.3619 -0.8920
 1181TIP3   OH2 3548   4.788   2.483   3.158 -0.3482 -0.0768  0.0459
 1181TIP3    H1 3549   4.876   2.502   3.125 -0.1122 -0.2493  0.5607
 1181TIP3    H2 3550   4.733   2.481   3.080  0.2592 -0.8646 -0.3725
 1182TIP3   OH2 3551   3.070   1.716   2.433 -0.2737  0.1655 -0.3432
 1182TIP3    H1 3552   3.071   1.802   2.476 -0.0328  0.3673 -0.7433
 1182TIP3    H2 3553   3.054   1.737   2.340 -0.4371 -0.2370 -0.4068
 1183TIP3   OH2 3554   5.888   1.421   1.236 -0.1817 -0.1661  0.1715
 1183TIP3    H1 3555   5.953   1.404   1.304  0.6158 -0.6020 -0.6647
 1183TIP3    H2 3556   5.938   1.414   1.154 -0.9707  0.9677 -0.4359
 1184TIP3   OH2 3557   2.448   1.670   3.855  0.0583  0.6126 -0.0074
 1184TIP3    H1 3558   2.434   1.740   3.919 -0.8667  0.4206  0.0165
 1184TIP3    H2 3559   2.372   1.612   3.865  1.0479 -0.6689  0.3100
 1185TIP3   OH2 3560   0.635   1.800   3.184 -0.3569  0.1824  0.0604
 1185TIP3    H1 3561   0.694   1.736   3.143 -2.2995 -0.9600 -1.1223
 1185TIP3    H2 3562   0.564   1.811   3.120 -2.1480  0.4077  1.9955
 1186TIP3   OH2 3563   1.954   2.116   4.024 -0.2092  0.1275 -0.1426
 1186TIP3    H1 3564   1.935   2.199   3.980  1.0924  0.7759  0.4557
 1186TIP3    H2 3565   2.042   2.128   4.059 -0.0384 -1.4861  0.0342
 1187TIP3   OH2 3566   1.288   4.645   0.916  0.0544  0.0318 -0.3981
 1187TIP3    H1 3567   1.239   4.646   0.999  1.1647 -0.3329  0.2884
 1187TIP3    H2 3568   1.225   4.614   0.851 -0.2338 -1.9185  0.7378
 1188TIP3   OH2 3569   3.061   5.852   0.034  0.0862  0.3940  0.6848
 1188TIP3    H1 3570   3.076   5.826   0.125 -1.0961  0.2147  0.8421
 1188TIP3    H2 3571   2.997   5.788   0.001  2.1797 -0.9838 -0.9962
 1189TIP3   OH2 3572   0.135   4.788   0.627  0.1033 -0.4357 -0.3044
 1189TIP3    H1 3573   0.228   4.786   0.648 -0.3354 -0.9789  1.8164
 1189TIP3    H2 3574   0.103   4.700   0.649 -1.0797  0.0344 -0.0412
 1190TIP3   OH2 3575   0.276   2.836   1.876 -0.4277  0.2057  0.2715
 1190TIP3    H1 3576   0.220   2.832   1.954 -0.2985 -3.0641  0.3165
 1190TIP3    H2 3577   0.365   2.841   1.910 -0.4403  0.3574  0.2849
 1191TIP3   OH2 3578   1.290   5.699   2.386 -0.3902 -0.2424  0.4838
 1191TIP3    H1 3579   1.246   5.782   2.402 -0.5739 -0.3297  0.4408
 1191TIP3    H2 3580   1.348   5.687   2.461 -0.1511  0.0610  0.3470
 1192TIP3   OH2 3581   5.079   4.030   0.782  0.1261  0.1776 -0.0563
 1192TIP3    H1 3582   4.993   3.989   0.791  0.0166  0.5480  0.6164
 1192TIP3    H2 3583   5.063   4.111   0.735  0.1323  0.1691 -0.0733
 1193TIP3   OH2 3584   2.484   0.632   2.067 -0.1397 -0.5905  0.0264
 1193TIP3    H1 3585   2.511   0.640   2.159  0.4777 -2.3065  0.0322
 1193TIP3    H2 3586   2.401   0.679   2.062  0.3783  0.4884  1.1952
 1194TIP3   OH2 3587   0.187   2.718   2.438  0.5554 -0.5400 -0.0292
 1194TIP3    H1 3588   0.258   2.668   2.478 -1.5663 -2.0591  2.1159
 1194TIP3    H2 3589   0.161   2.781   2.506 -2.3892 -2.3935  0.7382
 1195TIP3   OH2 3590   0.236   3.831   4.978  0.2198  0.1034 -0.1746
 1195TIP3    H1 3591   0.280   3.746   4.970 -0.4370 -0.4260  1.3653
 1195TIP3    H2 3592   0.233   3.865   4.889  0.0357 -1.7359 -0.9227
 1196TIP3   OH2 3593   4.957   5.074   5.053 -0.5058 -0.1195  0.3472
 1196TIP3    H1 3594   4.955   5.165   5.082 -1.1526  0.6364 -1.8448
 1196TIP3    H2 3595   4.873   5.038   5.082 -0.5526  0.1881  0.6057
 1197TIP3   OH2 3596   5.121   0.067   1.597 -0.4029  0.2851  0.6387
 1197TIP3    H1 3597   5.169   0.069   1.515  0.2046  3.0957  0.9697
 1197TIP3    H2 3598   5.032   0.044   1.572  0.3693 -1.8288 -0.3860
 1198TIP3   OH2 3599   1.263   5.151   4.876  0.1107 -0.0429 -0.5176
 1198TIP3    H1 3600   1.279   5.144   4.782 -0.2063  0.6176 -0.6199
 1198TIP3    H2 3601   1.191   5.214   4.884  0.3226  0.1153  0.1820
 1199TIP3   OH2 3602   0.954   0.516   3.166 -0.8858  0.2014  0.2484
 1199TIP3    H1 3603   0.877   0.497   3.112 -1.2514  1.6159  0.2402
 1199TIP3    H2 3604   0.930   0.594   3.216  0.6618  0.8996 -0.0330
 1200TIP3   OH2 3605   4.714   4.540   1.937 -0.2487  0.6671  0.2288
 1200TIP3    H1 3606   4.625   4.567   1.959 -1.1219 -1.6411 -0.1170
 1200TIP3    H2 3607   4.727   4.459   1.987  0.8214 -0.1835 -1.3458
 1201TIP3   OH2 3608   4.231   5.542   0.363 -0.7548  0.2059 -0.3913
 1201TIP3    H1 3609   4.297   5.478   0.339 -1.4723 -0.2051 -1.2946
 1201TIP3    H2 3610   4.202   5.580   0.280 -2.0605 -0.0319 -0.0724
 1202TIP3   OH2 3611   1.725   4.291   0.682 -0.3340 -0.0998  0.5371
 1202TIP3    H1 3612   1.770   4.206   0.684 -0.0910  0.0390  1.1904
 1202TIP3    H2 3613   1.791   4.351   0.647 -1.0240 -0.4584 -1.5498
 1203TIP3   OH2 3614   4.048   4.946   3.699  0.6614 -0.6388  0.1611
 1203TIP3    H1 3615   3.957   4.970   3.682  0.6362 -2.1760 -2.3036
 1203TIP3    H2 3616   4.058   4.955   3.794 -1.6069  0.9507  0.3351
 1204TIP3   OH2 3617   3.665   4.351   4.953  0.1753 -0.0017 -0.6339
 1204TIP3    H1 3618   3.736   4.289   4.968 -0.6299 -0.7436  0.1927
 1204TIP3    H2 3619   3.585   4.298   4.958 -0.4678  0.9100 -1.0025
 1205TIP3   OH2 3620   0.088   1.679   0.534 -0.0586  0.0750  0.0208
 1205TIP3    H1 3621   0.026   1.639   0.473 -0.1601 -0.1904  0.2960
 1205TIP3    H2 3622   0.104   1.767   0.498 -0.9409  0.3120  0.1904
 1206TIP3   OH2 3623   5.306   2.319   3.144 -0.0153 -0.5680  0.0398
 1206TIP3    H1 3624   5.382   2.340   3.089 -1.0519 -0.9880 -1.6286
 1206TIP3    H2 3625   5.233   2.367   3.104 -0.8598 -1.0844  0.9158
 1207TIP3   OH2 3626   4.060   2.378   1.413  0.0479  0.0094  0.2654
 1207TIP3    H1 3627   4.146   2.344   1.440  0.7259 -0.3178 -2.0468
 1207TIP3    H2 3628   4.029   2.315   1.348 -1.8126  0.3180  0.7945
 1208TIP3   OH2 3629   5.078   3.661   0.142  0.2800  0.4014  0.3633
 1208TIP3    H1 3630   5.031   3.617   0.213  2.3013  0.0851  1.6097
 1208TIP3    H2 3631   5.026   3.738   0.122  0.6038  1.6085  3.6413
 1209TIP3   OH2 3632   3.975   2.181   4.224  0.4991 -0.4407 -0.0872
 1209TIP3    H1 3633   3.937   2.095   4.248  1.6238 -1.1864 -0.9059
 1209TIP3    H2 3634   4.069   2.171   4.239  0.6883  0.5436 -0.5389
 1210TIP3   OH2 3635   0.449   2.284   2.422  0.4225  0.3345 -0.2193
 1210TIP3    H1 3636   0.501   2.359   2.394  1.2147 -0.4113 -0.8091
 1210TIP3    H2 3637   0.514   2.218   2.446 -0.2245  0.4720  2.1798
 1211TIP3   OH2 3638   2.562   0.319   2.521 -0.0762  0.3432  0.1007
 1211TIP3    H1 3639   2.605   0.401   2.497  0.2022  0.4345  0.8959
 1211TIP3    H2 3640   2.630   0.267   2.564  0.0018 -0.6875 -1.1963
 1212TIP3   OH2 3641   4.429   1.985   3.272  0.0094 -0.1789  0.3235
 1212TIP3    H1 3642   4.357   1.926   3.250 -0.9863  0.3929  1.8614
 1212TIP3    H2 3643   4.440   2.039   3.194 -1.5835  0.0268  0.2061
 1213TIP3   OH2 3644   1.119   1.472   0.215  0.5776 -0.8580 -0.1141
 1213TIP3    H1 3645   1.122   1.566   0.197  0.3055 -0.5325  1.4125
 1213TIP3    H2 3646   1.160   1.432   0.138  1.9501  0.5978 -0.1996
 1214TIP3   OH2 3647   5.563   0.659   2.914  0.3697  0.1192  0.0735
 1214TIP3    H1 3648   5.564   0.674   3.008 -1.1191 -1.4326  0.3912
 1214TIP3    H2 3649   5.569   0.564   2.905  0.1724  0.2245 -1.3767
 1215TIP3   OH2 3650   1.301   2.650   2.648 -0.5466 -0.3045  0.4432
 1215TIP3    H1 3651   1.291   2.563   2.687  0.3148  0.3302  2.2396
 1215TIP3    H2 3652   1.395   2.668   2.653 -0.3948 -0.1104 -1.9418
 1216TIP3   OH2 3653   0.183   0.230   0.518 -0.0181 -0.1189 -0.2863
 1216TIP3    H1 3654   0.147   0.299   0.463  0.1534  0.4234  0.2691
 1216TIP3    H2 3655   0.112   0.207   0.577  0.2035  0.2164  0.1179
 1217TIP3   OH2 3656   3.146   1.857   3.323  0.1228  0.1983  0.2101
 1217TIP3    H1 3657   3.105   1.870   3.237 -0.4702  2.4883  0.7675
 1217TIP3    H2 3658   3.185   1.942   3.343 -0.0597 -0.1891  2.3666
 1218TIP3   OH2 3659   2.331   0.042   3.238  0.0822  0.2837 -0.3600
 1218TIP3    H1 3660   2.295   0.131   3.245  0.3275  0.3041  0.7543
 1218TIP3    H2 3661   2.423   0.051   3.263  0.4398 -0.0825 -1.4755
 1219TIP3   OH2 3662   0.293   5.108   0.727 -0.1761  0.3550  0.2189
 1219TIP3    H1 3663   0.326   5.021   0.753  1.8637  1.1135  0.3656
 1219TIP3    H2 3664   0.317   5.116   0.635 -1.3110  0.3535 -0.0796
 1220TIP3   OH2 3665   3.996   4.960   4.510  0.6239  0.0120  0.5540
 1220TIP3    H1 3666   4.053   5.021   4.464  0.1875  0.3978  0.5178
 1220TIP3    H2 3667   4.056   4.901   4.556  1.0556  0.1410  0.1684
 1221TIP3   OH2 3668   1.476   3.349   0.334  0.0200 -0.0048  0.1361
 1221TIP3    H1 3669   1.566   3.323   0.352  0.1641  0.2789 -0.1740
 1221TIP3    H2 3670   1.447   3.391   0.416 -0.2482 -1.1949  0.6748
 1222TIP3   OH2 3671   5.234   3.014   1.692  0.1464  0.0543 -0.6260
 1222TIP3    H1 3672   5.278   3.018   1.608  5.4564 -1.0083  1.6839
 1222TIP3    H2 3673   5.268   3.090   1.740 -1.1160 -0.4671  1.2174
 1223TIP3   OH2 3674   0.870   5.512   3.947 -0.3228  0.3840  0.0632
 1223TIP3    H1 3675   0.788   5.559   3.932 -0.9214 -0.9594 -1.1122
 1223TIP3    H2 3676   0.844   5.423   3.970  0.7822  0.5820  2.3436
 1224TIP3   OH2 3677   3.391   5.751   2.515 -0.0192 -0.2969 -0.7825
 1224TIP3    H1 3678   3.314   5.705   2.549  1.0894 -1.1305  0.7367
 1224TIP3    H2 3679   3.371   5.767   2.423 -2.3813  0.3299 -0.2341
 1225TIP3   OH2 3680   1.056   3.573   4.859 -0.3935  0.3986 -0.0839
 1225TIP3    H1 3681   1.110   3.560   4.938 -1.4822 -0.6722  0.5255
 1225TIP3    H2 3682   1.106   3.634   4.805  0.5354  0.9025  1.2950
 1226TIP3   OH2 3683   3.098   2.187   3.059 -0.3130  0.0072  0.3376
 1226TIP3    H1 3684   3.132   2.220   2.977 -1.7531  0.7005 -0.0161
 1226TIP3    H2 3685   3.092   2.264   3.116 -1.1270 -0.1156  0.4296
 1227TIP3   OH2 3686   2.937   2.227   0.354  0.4262 -0.1313 -0.0851
 1227TIP3    H1 3687   2.943   2.132   0.343  2.1507 -0.1825  1.0360
 1227TIP3    H2 3688   2.945   2.262   0.266  0.2854 -1.0041 -0.4527
 1228TIP3   OH2 3689   1.895   2.885   2.824 -0.9992 -0.2561  0.2007
 1228TIP3    H1 3690   1.813   2.908   2.867  1.1408  1.8531  3.6638
 1228TIP3    H2 3691   1.923   2.966   2.781 -0.0161 -0.4685  0.4084
 1229TIP3   OH2 3692   2.883   1.859   4.093 -0.1348 -0.0011 -0.6906
 1229TIP3    H1 3693   2.844   1.780   4.054  2.7556 -1.5657 -0.7213
 1229TIP3    H2 3694   2.863   1.852   4.186 -0.9775 -0.0997 -0.8739
 1230TIP3   OH2 3695   4.226   3.821   0.883 -0.1504  0.3848  0.0386
 1230TIP3    H1 3696   4.159   3.849   0.820 -1.0282  0.2290  0.8764
 1230TIP3    H2 3697   4.245   3.900   0.934  1.5470  0.8697 -1.2375
 1231TIP3   OH2 3698   5.226   2.658   3.517  0.1745  0.2768  0.3078
 1231TIP3    H1 3699   5.148   2.713   3.518  0.0009  0.0331  0.4725
 1231TIP3    H2 3700   5.271   2.680   3.436 -0.6353 -0.3743 -0.3474
 1232TIP3   OH2 3701   5.614   2.696   4.883 -0.0405 -0.2424  0.3544
 1232TIP3    H1 3702   5.676   2.647   4.828 -1.3924 -0.9136 -0.6382
 1232TIP3    H2 3703   5.609   2.646   4.964  0.7812 -0.1331  0.4748
 1233TIP3   OH2 3704   2.446   1.900   3.154 -0.5468 -0.0662  0.0516
 1233TIP3    H1 3705   2.453   1.987   3.115 -0.8099  0.6125  1.4720
 1233TIP3    H2 3706   2.523   1.854   3.122  1.3301  1.7164  1.7562
 1234TIP3   OH2 3707   6.270   2.402   4.261  0.2873  0.3275  0.3085
 1234TIP3    H1 3708   6.345   2.378   4.207  0.1972  0.6744  0.0221
 1234TIP3    H2 3709   6.307   2.457   4.331  0.2546  0.8140 -0.0489
 1235TIP3   OH2 3710   1.043   5.663   1.704 -0.3158 -1.0183  0.2794
 1235TIP3    H1 3711   0.965   5.715   1.725 -0.3125 -1.3470  1.1784
 1235TIP3    H2 3712   1.097   5.720   1.650  0.5031  0.6096  2.6707
 1236TIP3   OH2 3713   5.980   2.023   4.837 -0.0963 -0.2587  0.3426
 1236TIP3    H1 3714   6.057   1.975   4.808 -0.1418  0.6556 -1.4051
 1236TIP3    H2 3715   6.004   2.058   4.923  1.5791  0.3118 -0.3236
 1237TIP3   OH2 3716   1.765   4.696   0.180 -0.1987 -0.1339  0.3939
 1237TIP3    H1 3717   1.691   4.750   0.150  0.4812  0.1184 -0.9033
 1237TIP3    H2 3718   1.837   4.721   0.123  1.1217  0.1593  2.0927
 1238TIP3   OH2 3719   0.960   0.925   4.837 -1.1221  0.5190  0.1455
 1238TIP3    H1 3720   0.952   0.882   4.922 -0.6932 -1.2114 -0.6418
 1238TIP3    H2 3721   1.052   0.953   4.833 -0.9361 -0.1008 -0.0461
 1239TIP3   OH2 3722   1.498   2.937   0.081  0.3176  0.1094 -0.0068
 1239TIP3    H1 3723   1.566   2.993   0.044  0.8667 -0.3492  0.2917
 1239TIP3    H2 3724   1.545   2.877   0.139 -0.5143  0.9624  1.6441
 1240TIP3   OH2 3725   2.901   0.180   4.947  0.0298  0.1777  0.3903
 1240TIP3    H1 3726   2.950   0.176   5.029 -1.5289  1.3830  1.4383
 1240TIP3    H2 3727   2.964   0.153   4.881  1.9521  1.1106  1.7262
 1241TIP3   OH2 3728   1.271   1.815   5.084 -0.6550  0.4516 -0.2532
 1241TIP3    H1 3729   1.219   1.735   5.072 -0.0725  0.1831 -1.1425
 1241TIP3    H2 3730   1.209   1.886   5.069 -0.6971  0.1321 -1.7253
 1242TIP3   OH2 3731   1.207   3.143   3.696  0.2308 -0.1979  0.2561
 1242TIP3    H1 3732   1.178   3.156   3.606  2.7689 -2.4603 -1.0212
 1242TIP3    H2 3733   1.214   3.232   3.732 -0.1428  0.8078 -1.9970
 1243TIP3   OH2 3734   0.472   4.222   1.547  0.0171 -0.1366  0.1427
 1243TIP3    H1 3735   0.456   4.148   1.606  0.6944 -1.4103 -1.2298
 1243TIP3    H2 3736   0.556   4.203   1.506  0.1319  1.3351 -0.3676
 1244TIP3   OH2 3737   0.545   3.342   1.125  0.0230 -0.7075 -0.3117
 1244TIP3    H1 3738   0.484   3.415   1.111 -0.4847 -1.3748 -1.7100
 1244TIP3    H2 3739   0.494   3.264   1.105  0.8495 -1.3972  0.2263
 1245TIP3   OH2 3740   1.387   5.567   3.386 -0.2299 -0.4032  0.2401
 1245TIP3    H1 3741   1.372   5.643   3.443  1.2923  0.4299 -0.4303
 1245TIP3    H2 3742   1.319   5.505   3.412 -0.5347  0.5546  1.9062
 1246TIP3   OH2 3743   5.482   5.645   0.157 -0.1807 -0.2265  1.0479
 1246TIP3    H1 3744   5.488   5.738   0.180 -0.0638  1.0249 -3.2076
 1246TIP3    H2 3745   5.568   5.609   0.180  1.7342  2.0770 -1.7695
 1247TIP3   OH2 3746   2.528   3.378   2.341  0.2799  0.6235 -0.3178
 1247TIP3    H1 3747   2.500   3.422   2.260  0.2487  2.1463  0.4814
 1247TIP3    H2 3748   2.618   3.408   2.355  0.8116 -0.7704 -0.5143
 1248TIP3   OH2 3749   0.017   1.429   3.291 -0.3981 -0.1753 -0.4538
 1248TIP3    H1 3750   0.082   1.467   3.350  0.9235 -3.0085  0.0882
 1248TIP3    H2 3751  -0.031   1.366   3.345 -2.0051  0.1206 -1.4555
 1249TIP3   OH2 3752   2.985   1.333   2.248 -0.1080  0.4455 -0.1249
 1249TIP3    H1 3753   2.923   1.295   2.187 -0.1051  1.5679 -0.8613
 1249TIP3    H2 3754   2.931   1.364   2.321 -0.2001 -0.1614  0.0704
 1250TIP3   OH2 3755   1.345   4.886   1.135  0.4381 -0.1910 -0.0740
 1250TIP3    H1 3756   1.385   4.951   1.077 -1.3928  1.8257  0.7786
 1250TIP3    H2 3757   1.257   4.873   1.099 -0.2469  0.0612  1.4192
 1251TIP3   OH2 3758   3.706   5.439   2.978  0.1321  0.0369 -0.1800
 1251TIP3    H1 3759   3.685   5.533   2.986  0.9719  0.2239 -0.0867
 1251TIP3    H2 3760   3.754   5.432   2.895 -0.6595 -0.4553 -0.6110
 1252TIP3   OH2 3761   5.909   2.269   4.696  0.6441 -0.1137 -0.9789
 1252TIP3    H1 3762   5.940   2.195   4.748 -0.2688  0.2224  0.0928
 1252TIP3    H2 3763   5.982   2.331   4.695  1.4156 -1.0125 -1.8850
 1253TIP3   OH2 3764   4.606   2.077   1.145  0.1054 -0.4363  0.0729
 1253TIP3    H1 3765   4.687   2.045   1.105  0.2056  1.0372 -1.0049
 1253TIP3    H2 3766   4.584   2.011   1.211  1.5239 -1.4743 -0.4340
 1254TIP3   OH2 3767   1.572   4.531   3.595  0.2751  0.2736  0.4317
 1254TIP3    H1 3768   1.621   4.560   3.672  0.5177  0.3625  0.2452
 1254TIP3    H2 3769   1.540   4.611   3.555  2.2712  0.4480 -0.9736
 1255TIP3   OH2 3770   1.836   1.083   1.153  0.1509 -0.0310 -0.5672
 1255TIP3    H1 3771   1.802   1.066   1.065 -0.2563  0.3623 -0.4865
 1255TIP3    H2 3772   1.870   0.998   1.182  0.5150 -0.1118 -1.1987
 1256TIP3   OH2 3773   5.172   0.771   0.572 -0.4105 -0.0674 -0.5477
 1256TIP3    H1 3774   5.171   0.848   0.629  0.2247  0.1038 -0.7617
 1256TIP3    H2 3775   5.095   0.720   0.599  0.9591 -1.0465  1.9240
 1257TIP3   OH2 3776   1.361   3.399   3.575 -0.0445 -0.2150  0.0617
 1257TIP3    H1 3777   1.334   3.490   3.565 -0.5257 -0.1930  1.3799
 1257TIP3    H2 3778   1.318   3.353   3.503 -1.7035  0.2277  0.7290
 1258TIP3   OH2 3779   1.520   4.801   3.533  0.0329  0.3995 -0.1061
 1258TIP3    H1 3780   1.440   4.815   3.585 -1.0319  0.2177 -1.6360
 1258TIP3    H2 3781   1.582   4.865   3.569 -1.7079  2.5669 -0.6888
 1259TIP3   OH2 3782   3.509   2.056   0.648  0.6237  0.2000 -0.4706
 1259TIP3    H1 3783   3.481   2.009   0.569  1.8548 -1.5036  0.0471
 1259TIP3    H2 3784   3.594   2.094   0.625  0.1643  1.2487 -0.5081
 1260TIP3   OH2 3785   2.738   3.528   2.867 -0.0955 -0.1461 -0.2367
 1260TIP3    H1 3786   2.789   3.447   2.866 -1.2667 -0.9133 -2.1975
 1260TIP3    H2 3787   2.649   3.501   2.888 -0.4033  0.6865 -0.4286
 1261TIP3   OH2 3788   0.163   3.712   0.960 -0.1109  0.6443 -0.2348
 1261TIP3    H1 3789   0.077   3.750   0.944 -0.4137  0.1081  0.0904
 1261TIP3    H2 3790   0.160   3.625   0.921  0.0558  0.3693  0.3476
 1262TIP3   OH2 3791   2.190   5.286   4.256  0.6874  0.4147  0.3116
 1262TIP3    H1 3792   2.217   5.257   4.343  1.1746  1.1598  0.4181
 1262TIP3    H2 3793   2.177   5.205   4.206  4.1248 -0.0556 -0.0572
 1263TIP3   OH2 3794   6.350   3.697   3.770  0.6132 -0.1303  0.7390
 1263TIP3    H1 3795   6.305   3.737   3.696  2.1144  0.1299 -0.0852
 1263TIP3    H2 3796   6.368   3.607   3.742  0.5183 -0.2663  1.0999
 1264TIP3   OH2 3797   6.365   1.667   1.510 -0.2319 -0.3705  0.6011
 1264TIP3    H1 3798   6.310   1.738   1.479 -0.6136 -1.0520 -0.3289
 1264TIP3    H2 3799   6.304   1.595   1.526  0.3262 -1.0126 -0.0784
 1265TIP3   OH2 3800   6.043   2.160   2.164  0.5016  0.1473 -0.2347
 1265TIP3    H1 3801   6.045   2.188   2.072  0.3221 -1.1046 -0.6337
 1265TIP3    H2 3802   6.135   2.162   2.192  0.4608  1.5472 -0.0956
 1266TIP3   OH2 3803   4.765   0.578   2.830  0.0025  0.3708 -0.0439
 1266TIP3    H1 3804   4.749   0.660   2.783  0.6246  0.3341 -0.3228
 1266TIP3    H2 3805   4.718   0.512   2.778 -1.0297  0.6330  0.5288
 1267TIP3   OH2 3806   4.144   2.765   3.499  0.3588 -0.2792 -0.5727
 1267TIP3    H1 3807   4.205   2.805   3.561 -1.3739  0.2311  0.9032
 1267TIP3    H2 3808   4.120   2.682   3.539  0.4097 -0.6686 -1.3389
 1268TIP3   OH2 3809   4.733   1.359   0.989 -0.1718  0.3908 -0.1282
 1268TIP3    H1 3810   4.694   1.401   1.066 -0.2421 -0.2781  0.2083
 1268TIP3    H2 3811   4.827   1.379   0.997 -0.2291  0.6486 -0.0793
 1269TIP3   OH2 3812   2.928   5.047   4.477  0.3327 -0.3818 -0.8397
 1269TIP3    H1 3813   2.895   4.997   4.552 -0.0054  1.6132  0.4147
 1269TIP3    H2 3814   2.895   5.000   4.401 -1.9857 -0.7525  0.3039
 1270TIP3   OH2 3815   0.718   4.584   2.362  0.0968  0.1962  0.2450
 1270TIP3    H1 3816   0.647   4.537   2.318 -1.9163  0.0993  3.2713
 1270TIP3    H2 3817   0.683   4.673   2.374  2.3647  1.5214 -2.0988
 1271TIP3   OH2 3818   3.137   5.130   1.796 -0.3450  0.8206  0.1395
 1271TIP3    H1 3819   3.125   5.108   1.888 -1.2314 -0.1077 -0.1792
 1271TIP3    H2 3820   3.060   5.182   1.774 -2.1757 -2.1063 -0.9912
 1272TIP3   OH2 3821   1.338   3.085   0.288 -0.3301  0.5468 -0.9432
 1272TIP3    H1 3822   1.397   3.016   0.257 -0.5901 -1.2223  2.0634
 1272TIP3    H2 3823   1.395   3.155   0.318  0.0722  0.3768 -1.3071
 1273TIP3   OH2 3824   6.395   1.732   3.868 -0.1461 -0.3847 -0.3182
 1273TIP3    H1 3825   6.308   1.700   3.843 -1.4498  0.7879  2.2936
 1273TIP3    H2 3826   6.382   1.772   3.954  2.8287  0.6583 -0.2302
 1274TIP3   OH2 3827   0.598   1.605   4.119  0.2454  0.2545 -0.2480
 1274TIP3    H1 3828   0.616   1.640   4.207 -0.7145  1.8407 -0.6570
 1274TIP3    H2 3829   0.530   1.662   4.084  0.3251 -0.6151 -1.8844
 1275TIP3   OH2 3830   1.189   1.588   4.177 -0.0351 -0.1281  0.3695
 1275TIP3    H1 3831   1.095   1.583   4.194 -0.0783  0.8363  0.5006
 1275TIP3    H2 3832   1.226   1.511   4.220 -0.9295 -1.3889 -1.0217
 1276TIP3   OH2 3833   3.338   3.978   2.577  0.1669  0.0233  0.2153
 1276TIP3    H1 3834   3.312   4.065   2.547 -0.4171 -0.8844 -2.1464
 1276TIP3    H2 3835   3.263   3.946   2.627 -0.9628 -0.2899 -1.5804
 1277TIP3   OH2 3836   4.132   5.852   2.309 -0.3808  0.0138 -0.6155
 1277TIP3    H1 3837   4.195   5.923   2.306 -0.2620  0.1687  2.3297
 1277TIP3    H2 3838   4.181   5.775   2.279  0.8514  0.3817  0.3598
 1278TIP3   OH2 3839   5.392   1.196   5.110  0.2852  0.1238 -0.8981
 1278TIP3    H1 3840   5.445   1.272   5.084  0.1624 -0.2623 -2.3564
 1278TIP3    H2 3841   5.446   1.149   5.173  0.7778  0.8858 -0.7428
 1279TIP3   OH2 3842   2.409   5.731   0.093 -0.3472 -0.0436  1.1367
 1279TIP3    H1 3843   2.410   5.712  -0.001  0.9092  1.5814  0.7727
 1279TIP3    H2 3844   2.424   5.646   0.135  0.1834 -0.6225 -0.1800
 1280TIP3   OH2 3845   3.361   1.603   1.661 -0.2909 -0.0583 -0.5968
 1280TIP3    H1 3846   3.359   1.634   1.751 -0.2766 -0.7025 -0.3696
 1280TIP3    H2 3847   3.273   1.622   1.627 -1.0753 -1.8220  0.2648
 1281TIP3   OH2 3848   2.606   3.630   2.653 -0.1307  0.8425  0.0659
 1281TIP3    H1 3849   2.679   3.628   2.715  0.4263 -1.7039 -0.5281
 1281TIP3    H2 3850   2.528   3.622   2.706  0.3171 -0.8789  0.5223
 1282TIP3   OH2 3851   0.173   4.531   1.450 -0.6656  0.1569 -0.3511
 1282TIP3    H1 3852   0.198   4.616   1.414 -0.0653  0.5862  1.0269
 1282TIP3    H2 3853   0.083   4.542   1.478 -0.4358  0.5108  0.2756
 1283TIP3   OH2 3854   1.901   0.754   0.883  0.2862  1.3123  0.1168
 1283TIP3    H1 3855   1.942   0.708   0.809 -1.2315 -1.5959  0.9380
 1283TIP3    H2 3856   1.955   0.729   0.958 -1.8082 -1.2405  0.9422
 1284TIP3   OH2 3857   3.645   1.163   1.903 -0.2510  0.1735  0.1758
 1284TIP3    H1 3858   3.662   1.175   1.997 -0.8042  0.8427  0.2037
 1284TIP3    H2 3859   3.685   1.239   1.861 -1.1321  0.5621  0.0136
 1285TIP3   OH2 3860   3.375   0.083   4.970  0.0844 -0.3622  0.2964
 1285TIP3    H1 3861   3.361   0.148   4.901 -0.6516 -0.3651  0.4318
 1285TIP3    H2 3862   3.452   0.115   5.017 -0.1924  0.3514  0.2879
 1286TIP3   OH2 3863   0.323   1.005   2.184  0.4823 -0.1972  0.5189
 1286TIP3    H1 3864   0.302   1.084   2.234  2.3205  0.2059  0.7382
 1286TIP3    H2 3865   0.269   0.936   2.224 -1.4755  0.9924  0.0332
 1287TIP3   OH2 3866   1.337   4.529   0.502 -0.5732 -0.5499 -0.1662
 1287TIP3    H1 3867   1.307   4.617   0.479  0.4373 -0.5828 -1.8402
 1287TIP3    H2 3868   1.431   4.532   0.486  0.0938 -0.9903  3.0739
 1288TIP3   OH2 3869   4.676   1.816   1.978 -0.1622  0.0719 -0.4394
 1288TIP3    H1 3870   4.597   1.870   1.975 -0.0779  0.4116  1.8171
 1288TIP3    H2 3871   4.732   1.859   2.042  1.4584 -0.7344 -1.2469
 1289TIP3   OH2 3872   1.261   2.117   4.020  0.1683 -0.1755  0.2743
 1289TIP3    H1 3873   1.312   2.036   4.023  0.5695  0.0974  1.1120
 1289TIP3    H2 3874   1.241   2.136   4.111  0.0374  0.6383  0.0792
 1290TIP3   OH2 3875   2.029   2.540   2.310  0.0499  0.3886 -0.3155
 1290TIP3    H1 3876   2.074   2.471   2.263 -1.2296 -0.2263 -0.6941
 1290TIP3    H2 3877   2.098   2.586   2.359  0.8531 -1.5081  0.4082
 1291TIP3   OH2 3878   0.083   4.594   3.559 -0.4771 -0.3163 -0.3593
 1291TIP3    H1 3879   0.032   4.572   3.481 -2.1532 -1.6794  1.0464
 1291TIP3    H2 3880   0.067   4.688   3.573 -0.3847 -0.1269 -1.4871
 1292TIP3   OH2 3881   2.423   2.474   3.198  0.2050  0.0545 -0.3220
 1292TIP3    H1 3882   2.388   2.413   3.263  0.1588  0.3399 -0.0703
 1292TIP3    H2 3883   2.347   2.498   3.144 -0.2320  1.4266  0.8327
 1293TIP3   OH2 3884   4.135   1.635   0.609 -0.3778  0.3520 -0.0879
 1293TIP3    H1 3885   4.086   1.602   0.534  0.6773  1.3211 -1.2355
 1293TIP3    H2 3886   4.193   1.562   0.632 -1.1611 -0.1902  0.2316
 1294TIP3   OH2 3887   1.152   5.262   3.823 -0.0756  0.1433  0.4273
 1294TIP3    H1 3888   1.215   5.334   3.818  0.6830 -0.5817 -1.2279
 1294TIP3    H2 3889   1.099   5.271   3.744  0.4373 -1.4515 -0.1327
 1295TIP3   OH2 3890   1.713   2.922   4.822  0.8930 -0.5175  0.0239
 1295TIP3    H1 3891   1.722   2.905   4.915 -0.2512  2.2087  0.7364
 1295TIP3    H2 3892   1.770   2.998   4.806 -2.9664  2.7045 -0.1020
 1296TIP3   OH2 3893   4.045   1.548   0.949  0.3676  0.2548 -0.7379
 1296TIP3    H1 3894   4.070   1.463   0.987 -0.0808  0.8815  1.0702
 1296TIP3    H2 3895   4.025   1.603   1.025 -2.6599  0.9907 -1.9221
 1297TIP3   OH2 3896   2.315   4.349   3.472  0.1971 -0.4949  1.0077
 1297TIP3    H1 3897   2.249   4.389   3.415  1.7173 -0.3718 -0.7938
 1297TIP3    H2 3898   2.331   4.263   3.433  1.8114 -0.1125  0.7460
 1298TIP3   OH2 3899   5.971   5.052   3.995  0.0397  0.1305  0.1653
 1298TIP3    H1 3900   6.036   5.011   4.051 -0.1916  1.0235  1.1070
 1298TIP3    H2 3901   5.887   5.034   4.038 -0.3503 -0.7789 -0.8919
 1299TIP3   OH2 3902   6.106   0.905   0.664  0.2570  0.3774 -0.1651
 1299TIP3    H1 3903   6.182   0.923   0.609  0.5563 -0.1636  0.0699
 1299TIP3    H2 3904   6.031   0.920   0.606  0.4612  2.4151  0.0111
 1300TIP3   OH2 3905   1.265   5.962   1.207  0.2906 -0.1119  0.0349
 1300TIP3    H1 3906   1.243   5.886   1.260 -1.3654  0.1689 -0.2116
 1300TIP3    H2 3907   1.197   5.965   1.140  0.2708  1.6411  0.0930
 1301TIP3   OH2 3908   5.840   2.381   1.549  0.0506 -0.0909 -0.0337
 1301TIP3    H1 3909   5.905   2.321   1.513 -0.6338 -1.0867  0.3691
 1301TIP3    H2 3910   5.767   2.378   1.488  0.2915  0.9012 -0.3976
 1302TIP3   OH2 3911   1.898   0.568   4.208 -0.3573  0.1701 -0.3504
 1302TIP3    H1 3912   1.853   0.489   4.179 -2.1081  0.9723  0.0606
 1302TIP3    H2 3913   1.850   0.640   4.166  1.9667  1.0387 -1.7792
 1303TIP3   OH2 3914   0.868   4.274   2.014 -0.3362  0.1418 -0.2907
 1303TIP3    H1 3915   0.840   4.355   1.972  0.8001  0.0952 -1.2032
 1303TIP3    H2 3916   0.916   4.302   2.091 -2.4823  0.2277  1.0940
 1304TIP3   OH2 3917   4.980   2.111   4.380 -0.2495 -0.4219 -0.4029
 1304TIP3    H1 3918   4.886   2.129   4.378 -0.2299  0.0340 -3.5688
 1304TIP3    H2 3919   4.986   2.016   4.379 -0.7070 -0.4547 -0.5080
 1305TIP3   OH2 3920   1.717   3.587   1.497 -0.0991 -0.6214 -0.2250
 1305TIP3    H1 3921   1.652   3.562   1.432  0.9252  0.4834 -1.7656
 1305TIP3    H2 3922   1.711   3.683   1.501  1.7816 -0.4267 -0.8709
 1306TIP3   OH2 3923   3.707   2.668   1.948 -0.6130  0.1853  0.0565
 1306TIP3    H1 3924   3.626   2.661   1.898 -0.4645  0.0890 -0.1705
 1306TIP3    H2 3925   3.774   2.629   1.892 -0.8174 -2.0552  1.2222
 1307TIP3   OH2 3926   1.657   3.511   2.521 -0.4437  0.0078 -0.5659
 1307TIP3    H1 3927   1.583   3.452   2.507 -0.0203 -0.1692 -2.2888
 1307TIP3    H2 3928   1.625   3.596   2.492 -0.8556  0.5639  1.3533
 1308TIP3   OH2 3929   2.605   5.458   1.308  0.3203 -1.1465  0.3446
 1308TIP3    H1 3930   2.638   5.542   1.340  0.1285 -0.9153 -0.0624
 1308TIP3    H2 3931   2.567   5.477   1.222  0.2494 -1.6430  0.2591
 1309TIP3   OH2 3932   2.317   2.400   1.227  0.1241 -0.4803  0.2948
 1309TIP3    H1 3933   2.307   2.358   1.312 -1.2489 -0.1539  0.3166
 1309TIP3    H2 3934   2.291   2.491   1.241  1.3938 -0.0180 -0.1412
 1310TIP3   OH2 3935   2.269   3.139   2.384  0.0936 -0.4653  0.0820
 1310TIP3    H1 3936   2.297   3.231   2.387  0.9964 -0.7558  1.2861
 1310TIP3    H2 3937   2.194   3.139   2.325  0.8078  0.8521 -0.8798
 1311TIP3   OH2 3938   4.528   3.515   2.403 -0.4608  0.1716  0.0281
 1311TIP3    H1 3939   4.541   3.422   2.383 -0.2640  0.0704  0.6154
 1311TIP3    H2 3940   4.433   3.523   2.418 -1.2088  0.8673 -4.0191
 1312TIP3   OH2 3941   4.658   4.953   4.958  0.3867  0.1627  0.3191
 1312TIP3    H1 3942   4.653   4.951   5.053  1.0306  1.9320  0.4406
 1312TIP3    H2 3943   4.702   4.872   4.934  0.8472  0.0228  1.5850
 1313TIP3   OH2 3944   1.205   0.814   2.413  0.6926 -0.1414  0.0651
 1313TIP3    H1 3945   1.134   0.751   2.426  0.8945 -0.1511  1.2494
 1313TIP3    H2 3946   1.165   0.887   2.366  0.4317 -1.0983 -1.2531
 1314TIP3   OH2 3947   2.312   2.417   1.745  0.3737 -0.4082  0.2329
 1314TIP3    H1 3948   2.300   2.484   1.812 -0.0625  0.6900 -0.8998
 1314TIP3    H2 3949   2.256   2.345   1.773 -0.3962  0.3404  0.6625
 1315TIP3   OH2 3950   0.091   3.553   2.266  0.3954  0.3337 -0.0552
 1315TIP3    H1 3951   0.002   3.584   2.281 -0.6739 -1.9306 -1.2771
 1315TIP3    H2 3952   0.081   3.476   2.210  3.1762  0.3548 -0.7273
 1316TIP3   OH2 3953   6.114   4.863   4.166 -0.0269  0.1594 -0.3887
 1316TIP3    H1 3954   6.197   4.908   4.150  0.0573 -0.1557 -0.8783
 1316TIP3    H2 3955   6.119   4.784   4.112 -1.0705  0.6606 -1.2487
 1317TIP3   OH2 3956   5.649   4.891   0.282  0.3750  0.1059 -0.0603
 1317TIP3    H1 3957   5.609   4.829   0.343  1.1904  1.1247  1.5795
 1317TIP3    H2 3958   5.622   4.860   0.195 -2.9977  0.0867  0.8531
 1318TIP3   OH2 3959   1.768   3.855   1.514 -0.1463  0.4419 -0.4596
 1318TIP3    H1 3960   1.839   3.828   1.455 -1.0268 -1.3221 -0.7851
 1318TIP3    H2 3961   1.713   3.912   1.460 -0.8987 -1.0858 -1.3893
 1319TIP3   OH2 3962   6.027   4.864   2.066 -0.6284  0.0329  0.3240
 1319TIP3    H1 3963   6.021   4.917   2.145  2.1211  0.3077  0.4360
 1319TIP3    H2 3964   5.937   4.858   2.034 -1.2202  4.0306  0.7591
 1320TIP3   OH2 3965   5.854   0.158   0.524  0.1698  0.2886  0.1553
 1320TIP3    H1 3966   5.772   0.158   0.475  1.2182 -0.6666 -1.7535
 1320TIP3    H2 3967   5.919   0.126   0.461  1.7513 -0.3888  2.0211
 1321TIP3   OH2 3968   1.516   1.035   1.307  0.5696 -0.4100 -0.2338
 1321TIP3    H1 3969   1.469   1.114   1.280 -0.4829 -1.3070 -1.1576
 1321TIP3    H2 3970   1.568   1.011   1.230  2.4259  0.4288  0.6917
 1322TIP3   OH2 3971   3.991   4.013   2.592  0.3171  0.3738  0.3680
 1322TIP3    H1 3972   3.952   4.039   2.508 -0.1015 -3.0322 -0.6472
 1322TIP3    H2 3973   4.085   4.013   2.575  0.3949  2.0046  0.6883
 1323TIP3   OH2 3974   4.432   0.465   4.206  0.1421  0.4576 -0.4961
 1323TIP3    H1 3975   4.439   0.492   4.115  1.4466  2.0878  0.0462
 1323TIP3    H2 3976   4.522   0.462   4.238 -0.0822 -2.3693  0.1573
 1324TIP3   OH2 3977   3.313   0.819   0.094  0.1825  0.4644  0.2290
 1324TIP3    H1 3978   3.325   0.884   0.025  2.5535 -0.1363  0.0121
 1324TIP3    H2 3979   3.269   0.746   0.051  1.6005  0.1143 -0.6634
 1325TIP3   OH2 3980   2.387   1.255   4.525 -0.0734  0.4852 -0.1159
 1325TIP3    H1 3981   2.434   1.188   4.575  0.5111  0.8095 -0.2211
 1325TIP3    H2 3982   2.389   1.224   4.435 -2.7978 -1.0768  0.2505
 1326TIP3   OH2 3983   5.659   5.520   5.099 -0.0620 -1.1046 -0.6712
 1326TIP3    H1 3984   5.752   5.507   5.118 -0.5200 -2.3002  1.0556
 1326TIP3    H2 3985   5.657   5.591   5.035  1.9611  0.4004  0.7734
 1327TIP3   OH2 3986   0.388   2.953   4.882  0.2542 -0.1999 -0.2868
 1327TIP3    H1 3987   0.318   2.994   4.934  1.9680  0.0956  1.9438
 1327TIP3    H2 3988   0.417   3.022   4.823  0.6418  0.6712  0.8777
 1328TIP3   OH2 3989   3.134   3.454   0.507 -0.0336  0.0582  0.4325
 1328TIP3    H1 3990   3.123   3.374   0.559 -0.9716 -2.1206 -2.8053
 1328TIP3    H2 3991   3.225   3.453   0.479 -0.3692 -0.6986 -0.7127
 1329TIP3   OH2 3992   3.907   0.997   1.645  0.3749 -0.3624  0.5567
 1329TIP3    H1 3993   3.993   0.957   1.657 -0.7665 -3.6229 -1.1183
 1329TIP3    H2 3994   3.912   1.038   1.558  0.1685 -0.8347  0.3176
 1330TIP3   OH2 3995   3.727   5.483   0.670  0.5313  0.2438 -0.6801
 1330TIP3    H1 3996   3.691   5.406   0.713  0.4083  1.0846  0.7965
 1330TIP3    H2 3997   3.808   5.453   0.630  0.9063 -0.4941  0.5682
 1331TIP3   OH2 3998   5.395   2.285   1.324 -0.0078  0.0418  0.6646
 1331TIP3    H1 3999   5.440   2.218   1.273 -1.1969 -0.0727 -0.2920
 1331TIP3    H2 4000   5.448   2.364   1.314  1.4155 -0.7121  1.8101
 1332TIP3   OH2 4001   3.188   5.875   3.855  0.0345  0.8185 -0.5815
 1332TIP3    H1 4002   3.274   5.835   3.867 -0.3435  0.0398 -0.3486
 1332TIP3    H2 4003   3.198   5.965   3.886  0.1795  0.0718  1.7554
 1333TIP3   OH2 4004   5.655   1.486   2.597 -0.3181  0.8152 -0.2109
 1333TIP3    H1 4005   5.722   1.545   2.631  1.6702  0.4531 -3.1811
 1333TIP3    H2 4006   5.703   1.414   2.556 -2.4978  0.1309 -1.7969
 1334TIP3   OH2 4007   5.034   5.847   3.389  0.6219 -0.1905 -0.1636
 1334TIP3    H1 4008   5.055   5.873   3.300 -0.8561 -1.6040 -0.9823
 1334TIP3    H2 4009   4.995   5.926   3.428 -0.4134 -0.0623 -1.3885
 1335TIP3   OH2 4010   2.232   5.614   4.478  0.1434 -0.3111 -0.6209
 1335TIP3    H1 4011   2.304   5.577   4.427  0.6060  0.6998 -0.7315
 1335TIP3    H2 4012   2.161   5.551   4.469 -0.4435  0.6335 -4.0438
 1336TIP3   OH2 4013   1.572   3.980   2.557 -0.3845 -0.4908  0.1257
 1336TIP3    H1 4014   1.652   4.025   2.584  0.8266 -1.5982 -1.3625
 1336TIP3    H2 4015   1.545   4.026   2.478 -0.6147 -0.7710  0.0425
 1337TIP3   OH2 4016   5.271   1.183   4.339  0.6140 -0.3139 -0.2856
 1337TIP3    H1 4017   5.311   1.257   4.384 -0.1645 -1.4005  2.4016
 1337TIP3    H2 4018   5.316   1.179   4.255  0.3590  3.4437 -0.7773
 1338TIP3   OH2 4019   6.128   5.641   1.581  0.3356  0.1909 -0.0353
 1338TIP3    H1 4020   6.088   5.622   1.666  0.9143  2.2070  0.7553
 1338TIP3    H2 4021   6.062   5.691   1.534  0.4919  0.1841 -0.2647
 1339TIP3   OH2 4022   6.200   2.454   3.627 -0.6878  0.2613 -0.1779
 1339TIP3    H1 4023   6.200   2.435   3.533 -3.0170 -1.1615  0.0209
 1339TIP3    H2 4024   6.144   2.531   3.636 -2.2544 -0.8707  0.1763
 1340TIP3   OH2 4025   5.327   0.923   4.383  0.3662  0.4891  0.5785
 1340TIP3    H1 4026   5.281   1.005   4.369  0.5659  0.5680  0.3748
 1340TIP3    H2 4027   5.419   0.947   4.387  0.3782  0.3608  1.2238
 1341TIP3   OH2 4028   1.957   3.658   0.780 -0.1144 -0.4218  0.3673
 1341TIP3    H1 4029   1.934   3.605   0.704 -1.3398  2.7767 -1.6881
 1341TIP3    H2 4030   2.045   3.691   0.761 -0.7701  1.1045 -0.1908
 1342TIP3   OH2 4031   1.749   4.880   5.141 -0.7087  0.1148 -0.6720
 1342TIP3    H1 4032   1.842   4.896   5.122 -0.2214 -2.9481 -1.4253
 1342TIP3    H2 4033   1.704   4.956   5.105  1.3543  0.8104 -1.9891
 1343TIP3   OH2 4034   1.143   0.147   2.457  0.0507  0.5783 -0.3757
 1343TIP3    H1 4035   1.205   0.162   2.528  0.6264  1.8122 -1.1122
 1343TIP3    H2 4036   1.182   0.076   2.407 -0.4577 -0.4386  0.6270
 1344TIP3   OH2 4037   1.097   1.578   5.082 -0.4198  0.2927  0.0265
 1344TIP3    H1 4038   1.058   1.491   5.073 -0.6570  0.0958  2.2695
 1344TIP3    H2 4039   1.033   1.627   5.134 -0.0077  1.6298 -0.6785
 1345TIP3   OH2 4040   4.168   2.489   4.446 -0.2441 -0.3091 -0.0742
 1345TIP3    H1 4041   4.205   2.407   4.412  0.2841 -0.5672  1.0700
 1345TIP3    H2 4042   4.116   2.462   4.522 -0.1965  0.4034  0.2157
 1346TIP3   OH2 4043   0.177   2.418   5.038 -0.1759  0.4702 -0.0897
 1346TIP3    H1 4044   0.214   2.419   4.950 -1.6112 -0.3005 -0.7462
 1346TIP3    H2 4045   0.184   2.508   5.068 -2.4032  1.4959 -2.2562
 1347TIP3   OH2 4046   0.328   0.347   4.413  0.4771  0.0215  0.0676
 1347TIP3    H1 4047   0.253   0.405   4.400  0.5790  0.3521  0.9055
 1347TIP3    H2 4048   0.370   0.342   4.327 -1.8908 -2.1535 -1.1060
 1348TIP3   OH2 4049   1.511   0.778   3.227 -0.4947  0.0203  0.3294
 1348TIP3    H1 4050   1.497   0.700   3.173  0.6071 -2.4452  3.3555
 1348TIP3    H2 4051   1.470   0.757   3.311 -1.6440  3.4537  0.8074
 1349TIP3   OH2 4052   1.090   5.675   4.715 -0.4950  0.5916 -0.1541
 1349TIP3    H1 4053   1.033   5.599   4.702 -0.3175  0.5214 -0.5316
 1349TIP3    H2 4054   1.084   5.693   4.809  0.9313 -1.0589  0.3061
 1350TIP3   OH2 4055   4.225   2.491   2.334 -0.1104  0.7992  0.0835
 1350TIP3    H1 4056   4.174   2.571   2.322 -1.2982  0.3257  1.5985
 1350TIP3    H2 4057   4.173   2.438   2.395  1.3942 -0.4570  0.3518
 1351TIP3   OH2 4058   4.513   2.330   1.957  0.0110  0.1358 -0.5134
 1351TIP3    H1 4059   4.490   2.398   2.020  0.5422 -1.2034  1.2172
 1351TIP3    H2 4060   4.597   2.358   1.920  0.1128  0.5328  0.0201
 1352TIP3   OH2 4061   4.956   0.041   0.364 -0.2473  0.8051  0.4626
 1352TIP3    H1 4062   4.869   0.012   0.334 -0.4430  0.6995  1.1249
 1352TIP3    H2 4063   4.963   0.131   0.333  0.7545 -0.1660 -2.4707
 1353TIP3   OH2 4064   3.750   4.992   3.398  0.3143 -0.0891  0.0161
 1353TIP3    H1 4065   3.743   4.944   3.480  0.7078 -0.2227 -0.0292
 1353TIP3    H2 4066   3.818   5.057   3.414  1.4117 -1.0315 -0.6511
 1354TIP3   OH2 4067   5.354   1.182   3.549 -0.3172  0.1660  0.0611
 1354TIP3    H1 4068   5.349   1.277   3.561  1.1317  0.3742 -0.7037
 1354TIP3    H2 4069   5.387   1.172   3.459  1.6243 -0.9918  0.8432
 1355TIP3   OH2 4070   1.121   4.012   2.559  0.1396  0.3320  0.0026
 1355TIP3    H1 4071   1.135   3.985   2.468  0.6431  0.2041  0.1129
 1355TIP3    H2 4072   1.046   3.961   2.588  0.7856 -0.6167  0.0588
 1356TIP3   OH2 4073   0.360   3.255   2.128  0.0431  0.3583 -0.1929
 1356TIP3    H1 4074   0.330   3.307   2.203 -0.8473 -0.9163  0.3714
 1356TIP3    H2 4075   0.455   3.267   2.127  0.0080  0.8249  0.8236
 1357TIP3   OH2 4076   1.084   0.399   0.112  0.2367 -0.1577 -0.0036
 1357TIP3    H1 4077   1.134   0.421   0.191 -1.2669 -0.9106  1.2195
 1357TIP3    H2 4078   1.006   0.355   0.145 -0.4408 -0.4994 -1.9383
 1358TIP3   OH2 4079   2.590   1.984   2.697 -0.3912 -0.5680 -0.4895
 1358TIP3    H1 4080   2.653   2.053   2.676  0.8580 -1.6506 -0.3826
 1358TIP3    H2 4081   2.553   2.010   2.781 -1.4620  1.0058 -1.3850
 1359TIP3   OH2 4082   1.672   1.909   2.156 -0.3939 -0.1551 -0.4964
 1359TIP3    H1 4083   1.613   1.980   2.182 -1.4673 -0.4306 -2.0311
 1359TIP3    H2 4084   1.614   1.842   2.120  0.6636 -1.5418  0.2857
 1360TIP3   OH2 4085   5.469   1.140   2.245  0.0299  0.1829 -0.1177
 1360TIP3    H1 4086   5.475   1.195   2.323 -0.6645 -0.9165  0.7549
 1360TIP3    H2 4087   5.542   1.079   2.253  0.0645  0.1807 -0.4262
 1361TIP3   OH2 4088   6.127   1.239   0.214  0.6433 -0.0026 -0.0434
 1361TIP3    H1 4089   6.115   1.152   0.177  2.0352 -0.0365 -0.4857
 1361TIP3    H2 4090   6.097   1.231   0.305  1.5131 -1.1693  0.1659
 1362TIP3   OH2 4091   0.043   0.201   2.259  0.0463  0.7031 -0.2384
 1362TIP3    H1 4092   0.114   0.137   2.270 -1.2116 -0.4478  1.8444
 1362TIP3    H2 4093   0.014   0.189   2.169  0.5633 -0.9299 -0.2329
 1363TIP3   OH2 4094   2.289   4.894   5.019  0.2646  0.3857  0.5127
 1363TIP3    H1 4095   2.310   4.969   4.964 -0.8565  0.0184 -0.4494
 1363TIP3    H2 4096   2.289   4.819   4.959 -1.5734  0.0512  0.8705
 1364TIP3   OH2 4097   4.919   1.371   0.270  0.6834 -0.1945  0.0076
 1364TIP3    H1 4098   4.960   1.335   0.348 -1.2698  0.7010  1.5268
 1364TIP3    H2 4099   4.825   1.365   0.287  0.2058  0.7434 -1.9552
 1365TIP3   OH2 4100   1.389   3.561   1.646  0.3470  0.2100 -0.1613
 1365TIP3    H1 4101   1.370   3.484   1.592  1.2994 -0.6977  0.7436
 1365TIP3    H2 4102   1.442   3.527   1.718  0.7786  1.7269  0.2710
 1366TIP3   OH2 4103   0.605   4.513   1.933  1.2965 -0.5728 -0.4364
 1366TIP3    H1 4104   0.651   4.537   1.853  1.1903  0.8695 -0.0831
 1366TIP3    H2 4105   0.549   4.439   1.907  0.0869  0.8426 -2.1002
 1367TIP3   OH2 4106   5.531   4.374   3.327  0.1956 -0.4230  0.3434
 1367TIP3    H1 4107   5.545   4.453   3.275  2.2066 -0.2995  1.0032
 1367TIP3    H2 4108   5.556   4.302   3.268 -3.5550 -0.8446 -0.9824
 1368TIP3   OH2 4109   6.264   1.951   2.493 -0.0711  0.0729 -0.3463
 1368TIP3    H1 4110   6.292   1.880   2.436 -1.2564 -1.6785  1.1414
 1368TIP3    H2 4111   6.313   2.028   2.462  1.4492 -1.4201 -1.8389
 1369TIP3   OH2 4112   0.626   1.805   3.806  0.1831  0.5264  0.5807
 1369TIP3    H1 4113   0.603   1.888   3.763  1.4330  0.2412 -0.7516
 1369TIP3    H2 4114   0.581   1.808   3.890  1.8209  3.5332  1.5035
 1370TIP3   OH2 4115   1.753   3.298   0.342  0.0189  0.6313 -0.5899
 1370TIP3    H1 4116   1.768   3.208   0.371  0.4953  0.6836 -0.6658
 1370TIP3    H2 4117   1.816   3.311   0.272 -1.0873  0.5229 -1.6329
 1371TIP3   OH2 4118   2.009   2.313   0.541 -0.2331 -0.1503  0.0921
 1371TIP3    H1 4119   2.043   2.243   0.595 -0.6241 -0.3264  0.1133
 1371TIP3    H2 4120   1.914   2.313   0.557 -0.0239  1.7990  1.7869
 1372TIP3   OH2 4121   4.702   1.104   2.067  0.0277 -0.1171 -0.7288
 1372TIP3    H1 4122   4.786   1.130   2.031  0.1607  1.0591  0.3596
 1372TIP3    H2 4123   4.659   1.186   2.091 -1.7500 -0.6278 -1.8798
 1373TIP3   OH2 4124   2.419   5.218   0.269  0.2772  0.3696 -0.2348
 1373TIP3    H1 4125   2.335   5.202   0.312 -0.1977 -0.4885 -1.4231
 1373TIP3    H2 4126   2.432   5.142   0.212  1.9819  0.3783  0.0860
 1374TIP3   OH2 4127   0.514   0.837   3.305 -0.3790 -0.1011  0.6226
 1374TIP3    H1 4128   0.479   0.919   3.340 -1.2039  0.1350 -0.6969
 1374TIP3    H2 4129   0.590   0.864   3.254 -0.6076 -0.1628  0.2469
 1375TIP3   OH2 4130   4.144   0.138   2.694  0.1464 -0.0081 -0.2715
 1375TIP3    H1 4131   4.234   0.117   2.670  0.6773  1.2510  0.5063
 1375TIP3    H2 4132   4.092   0.120   2.615  1.0336 -0.9235 -0.6667
 1376TIP3   OH2 4133   1.088   1.685   1.349 -0.1516  0.1745 -0.1607
 1376TIP3    H1 4134   1.094   1.751   1.418  0.3072  0.8964 -0.8737
 1376TIP3    H2 4135   1.169   1.694   1.299 -0.0942 -0.9153 -0.2948
 1377TIP3   OH2 4136   5.572   2.266   0.279 -0.5004 -0.0943 -0.3291
 1377TIP3    H1 4137   5.534   2.273   0.191 -1.5867  1.4973  0.2300
 1377TIP3    H2 4138   5.657   2.311   0.271 -0.7296  0.3145 -0.4936
 1378TIP3   OH2 4139   4.254   4.969   2.558  0.3011  1.0600  0.2216
 1378TIP3    H1 4140   4.296   5.014   2.484  0.3221  0.8084  0.0778
 1378TIP3    H2 4141   4.212   4.893   2.518  0.8689  0.5576  0.5565
 1379TIP3   OH2 4142   4.344   1.211   3.174  0.2880  0.7262 -0.2996
 1379TIP3    H1 4143   4.321   1.176   3.088  3.1737 -4.0552  0.5299
 1379TIP3    H2 4144   4.436   1.238   3.164  1.0489 -1.0191  1.4469
 1380TIP3   OH2 4145   2.681   5.597   1.740 -0.0067  0.2652 -0.6524
 1380TIP3    H1 4146   2.647   5.683   1.716 -0.4365 -0.2845 -2.0803
 1380TIP3    H2 4147   2.727   5.566   1.662 -0.2755 -1.0128 -0.3230
 1381TIP3   OH2 4148   4.172   3.845   4.737  1.0206 -0.1691  0.0381
 1381TIP3    H1 4149   4.224   3.912   4.781  0.5734  0.1779  0.0461
 1381TIP3    H2 4150   4.227   3.816   4.664  0.8893  0.8010 -0.4595
 1382TIP3   OH2 4151   5.538   3.713   2.649 -0.0713 -0.1779 -0.6638
 1382TIP3    H1 4152   5.484   3.701   2.571 -0.1360 -2.5948 -0.3296
 1382TIP3    H2 4153   5.501   3.790   2.692 -2.2000 -0.7613 -1.3239
 1383TIP3   OH2 4154   0.402   3.660   2.891  0.8142  0.4081  0.0600
 1383TIP3    H1 4155   0.373   3.636   2.979  0.3730 -0.7222 -0.3716
 1383TIP3    H2 4156   0.352   3.738   2.870 -0.3989 -0.3076  0.1542
 1384TIP3   OH2 4157   2.883   5.488   1.521 -0.1569 -0.1730 -0.1663
 1384TIP3    H1 4158   2.931   5.441   1.453  1.2047  2.0688 -0.8463
 1384TIP3    H2 4159   2.857   5.570   1.480 -0.6111  0.6089  1.5989
 1385TIP3   OH2 4160   1.706   4.641   2.912  0.4319  0.1132  0.2406
 1385TIP3    H1 4161   1.742   4.570   2.858 -1.4026  0.3479 -1.3451
 1385TIP3    H2 4162   1.710   4.606   3.001  0.8518 -1.4231 -0.3465
 1386TIP3   OH2 4163   1.726   2.404   2.880 -0.5828 -0.1963  0.3024
 1386TIP3    H1 4164   1.658   2.392   2.813  0.3818 -2.9487 -0.3205
 1386TIP3    H2 4165   1.759   2.492   2.865 -0.2557 -0.7478 -3.1067
 1387TIP3   OH2 4166   4.169   0.461   1.625  0.7701 -0.1879 -0.7620
 1387TIP3    H1 4167   4.145   0.369   1.608  0.4562 -0.1349 -0.6158
 1387TIP3    H2 4168   4.234   0.456   1.695 -2.7033 -0.1101  2.8592
 1388TIP3   OH2 4169   5.127   5.726   4.250 -0.3240 -0.3491 -0.1468
 1388TIP3    H1 4170   5.111   5.632   4.246  0.5702 -0.7906  3.3768
 1388TIP3    H2 4171   5.039   5.765   4.254 -0.6905 -1.0059 -1.3158
 1389TIP3   OH2 4172   1.031   1.962   1.203 -0.1928 -0.2085  0.2058
 1389TIP3    H1 4173   1.097   1.893   1.211  0.7417  0.6763  0.2767
 1389TIP3    H2 4174   1.043   2.016   1.281 -1.6336 -0.5539  0.7028
 1390TIP3   OH2 4175   1.424   0.124   2.002 -0.1048 -0.0484 -0.2054
 1390TIP3    H1 4176   1.328   0.132   1.997 -0.3127 -0.3090  2.2274
 1390TIP3    H2 4177   1.457   0.203   1.960 -1.3873  0.0741 -1.0349
 1391TIP3   OH2 4178   5.074   4.918   4.114  0.3558 -0.0609  0.2516
 1391TIP3    H1 4179   5.090   4.874   4.031 -0.2144  1.6315 -0.8049
 1391TIP3    H2 4180   5.087   5.011   4.095 -3.2465  0.7679  1.0928
 1392TIP3   OH2 4181   1.051   3.943   0.682 -0.0707  0.0863 -0.3534
 1392TIP3    H1 4182   0.971   3.991   0.700 -0.2014  0.3263 -1.5136
 1392TIP3    H2 4183   1.078   3.972   0.595  0.2654 -1.3545 -0.7639
 1393TIP3   OH2 4184   1.159   2.224   3.773  0.2648 -0.2239  0.3782
 1393TIP3    H1 4185   1.217   2.298   3.789  1.4983 -1.5193  2.3626
 1393TIP3    H2 4186   1.168   2.168   3.851 -1.3544 -1.9897 -0.5891
 1394TIP3   OH2 4187   5.221   0.623   1.409  0.3007 -0.0132  0.0969
 1394TIP3    H1 4188   5.176   0.638   1.326 -0.4216  2.0073  0.8056
 1394TIP3    H2 4189   5.197   0.533   1.433  0.5340 -0.6434 -1.8480
 1395TIP3   OH2 4190   5.520   0.529   2.508 -0.4890  0.3032  0.1353
 1395TIP3    H1 4191   5.513   0.441   2.471  0.4859 -0.2585  1.2141
 1395TIP3    H2 4192   5.449   0.534   2.572 -1.3193  0.7700 -0.8089
 1396TIP3   OH2 4193   0.324   3.193   1.073 -0.3624 -0.0068 -0.3044
 1396TIP3    H1 4194   0.257   3.137   1.114  0.0979 -0.9443 -0.8089
 1396TIP3    H2 4195   0.371   3.134   1.013  1.3037  0.4785  0.4749
 1397TIP3   OH2 4196   5.020   5.665   1.938 -0.5024  0.6759 -0.3475
 1397TIP3    H1 4197   5.078   5.589   1.928  1.1417  1.7419  0.6588
 1397TIP3    H2 4198   4.942   5.642   1.887 -0.1451 -1.7533  0.0452
 1398TIP3   OH2 4199   1.378   3.148   3.007  0.0113  0.2347  0.1420
 1398TIP3    H1 4200   1.329   3.068   3.026 -1.4123  0.7516 -1.2180
 1398TIP3    H2 4201   1.385   3.151   2.912 -1.9167  2.7885 -0.0327
 1399TIP3   OH2 4202   2.125   4.682   4.268  0.2801  0.3700  0.1214
 1399TIP3    H1 4203   2.122   4.608   4.207 -1.6675 -0.3052  0.9787
 1399TIP3    H2 4204   2.172   4.750   4.220 -0.0347 -0.5848 -1.6176
 1400TIP3   OH2 4205   0.762   0.747   4.721 -0.1682  0.9563 -0.2335
 1400TIP3    H1 4206   0.847   0.703   4.711 -0.6310  0.1785 -0.8253
 1400TIP3    H2 4207   0.748   0.748   4.816  0.9315  1.9548 -0.0535
 1401TIP3   OH2 4208   5.672   5.854   2.587 -0.2721 -0.1419 -0.8351
 1401TIP3    H1 4209   5.640   5.854   2.497  0.0100 -1.7543 -0.9670
 1401TIP3    H2 4210   5.609   5.907   2.635 -0.6683  0.3790 -1.9048
 1402TIP3   OH2 4211   4.852   3.451   1.288 -0.0401  0.3016  0.1568
 1402TIP3    H1 4212   4.928   3.479   1.238  1.3313 -1.5804  1.0547
 1402TIP3    H2 4213   4.879   3.459   1.380 -1.0803  0.0029  0.5131
 1403TIP3   OH2 4214   4.473   0.484   2.347 -0.0324  0.3510  0.2703
 1403TIP3    H1 4215   4.450   0.537   2.271 -0.3989  2.5152  1.8226
 1403TIP3    H2 4216   4.477   0.394   2.313 -1.5439  1.0638 -1.9877
 1404TIP3   OH2 4217   4.967   4.104   0.490 -0.8620 -0.2027 -0.1974
 1404TIP3    H1 4218   4.894   4.153   0.528 -1.9508 -0.1547 -2.2157
 1404TIP3    H2 4219   4.962   4.018   0.530 -0.1723  0.6665  1.8778
 1405TIP3   OH2 4220   0.016   2.611   1.857  0.5451  0.0779  0.2831
 1405TIP3    H1 4221   0.016   2.541   1.922 -0.4398  2.1118  2.6238
 1405TIP3    H2 4222  -0.022   2.686   1.902  0.2494  1.7681 -2.5350
 1406TIP3   OH2 4223   1.651   5.667   3.912  0.0438  0.6642 -0.0048
 1406TIP3    H1 4224   1.611   5.752   3.893 -0.4851  0.3120 -0.4909
 1406TIP3    H2 4225   1.655   5.623   3.827 -0.1602 -0.0020  0.3282
 1407TIP3   OH2 4226   1.852   0.714   2.643  0.1543  0.4603 -0.3171
 1407TIP3    H1 4227   1.772   0.737   2.691  1.3287  1.5167  1.2497
 1407TIP3    H2 4228   1.832   0.734   2.552 -1.4792  0.3447 -0.0168
 1408TIP3   OH2 4229   4.526   2.099   1.533 -0.1747  0.0086  0.0323
 1408TIP3    H1 4230   4.552   2.025   1.479  0.7874  0.8829 -0.7443
 1408TIP3    H2 4231   4.591   2.101   1.604  0.7074  0.9558 -0.7638
 1409TIP3   OH2 4232   5.014   3.127   0.353  0.4791  0.3504 -0.3761
 1409TIP3    H1 4233   5.008   3.186   0.277  0.9154  0.2890 -0.4612
 1409TIP3    H2 4234   4.991   3.182   0.428 -1.1648  0.1097 -0.6810
 1410TIP3   OH2 4235   5.668   5.392   4.421 -0.9378 -0.5219  0.0407
 1410TIP3    H1 4236   5.617   5.314   4.445  1.0634 -1.5918  1.0864
 1410TIP3    H2 4237   5.753   5.378   4.463  0.4849  0.8222 -2.2245
 1411TIP3   OH2 4238   1.540   5.113   2.051 -0.3285 -0.5505 -0.1755
 1411TIP3    H1 4239   1.623   5.145   2.016  0.6093 -1.9147  0.6864
 1411TIP3    H2 4240   1.509   5.184   2.108  0.0061  0.1607 -0.8727
 1412TIP3   OH2 4241   2.012   2.664   0.113  0.4559 -0.1527  0.0065
 1412TIP3    H1 4242   1.966   2.618   0.182  0.0071  1.8504  1.1354
 1412TIP3    H2 4243   2.087   2.704   0.157 -0.8295  2.6817 -0.1561
 1413TIP3   OH2 4244   3.307   1.494   3.972 -0.5315 -0.4083  0.1583
 1413TIP3    H1 4245   3.283   1.557   3.904 -0.8290  1.3086  1.7698
 1413TIP3    H2 4246   3.390   1.457   3.942 -0.9281 -0.1346 -1.3864
 1414TIP3   OH2 4247   0.852   5.145   2.539 -0.1282 -0.2441  0.1821
 1414TIP3    H1 4248   0.804   5.194   2.472 -1.0150 -0.9897  0.2405
 1414TIP3    H2 4249   0.924   5.103   2.492  0.0453  0.3040 -0.0491
 1415TIP3   OH2 4250   4.747   3.312   4.008 -0.2726 -0.1109  0.2731
 1415TIP3    H1 4251   4.811   3.341   3.942 -0.8609  1.0693  0.1922
 1415TIP3    H2 4252   4.728   3.222   3.985 -0.9565  0.4603 -1.6059
 1416TIP3   OH2 4253   4.769   1.636   2.898  0.3086 -0.4934 -0.3587
 1416TIP3    H1 4254   4.805   1.549   2.916 -0.9270 -0.9959 -0.2304
 1416TIP3    H2 4255   4.839   1.696   2.923  0.5976 -1.3861  1.1139
 1417TIP3   OH2 4256   4.350   3.848   2.690 -0.2866  0.2327  0.5895
 1417TIP3    H1 4257   4.416   3.816   2.628  0.3543 -1.6468  2.1471
 1417TIP3    H2 4258   4.284   3.890   2.635  0.8923 -0.1933 -1.2398
 1418TIP3   OH2 4259   2.458   4.604   2.901  0.0383  0.4167  0.0026
 1418TIP3    H1 4260   2.495   4.516   2.894 -0.8553  0.0168  0.1904
 1418TIP3    H2 4261   2.506   4.655   2.836  1.9427  0.2954  1.2552
 1419TIP3   OH2 4262   3.341   5.529   0.829 -0.3097 -0.3722 -0.3998
 1419TIP3    H1 4263   3.426   5.549   0.790 -0.9591 -1.8411 -2.8052
 1419TIP3    H2 4264   3.306   5.614   0.856  1.2340  0.4382 -0.8699
 1420TIP3   OH2 4265   2.117   1.362   4.492  0.2022  0.1581  0.4057
 1420TIP3    H1 4266   2.081   1.315   4.567  0.0229 -0.9469 -0.3445
 1420TIP3    H2 4267   2.196   1.312   4.468 -0.0461  0.1596 -0.4683
 1421TIP3   OH2 4268   4.528   4.061   1.960 -0.3391 -0.0465 -0.1255
 1421TIP3    H1 4269   4.435   4.038   1.956 -0.2751 -0.3434  0.1408
 1421TIP3    H2 4270   4.567   3.997   2.018  0.2030 -0.4864 -0.9469
 1422TIP3   OH2 4271   3.722   0.071   2.797 -0.0772 -0.2602 -0.0614
 1422TIP3    H1 4272   3.696   0.005   2.861  2.4392 -0.8000  0.5096
 1422TIP3    H2 4273   3.714   0.027   2.712 -2.5040  0.1518 -0.0997
 1423TIP3   OH2 4274   5.556   5.644   2.269  0.7505 -0.0214  0.1509
 1423TIP3    H1 4275   5.547   5.566   2.323 -1.4382 -0.6480 -1.0199
 1423TIP3    H2 4276   5.591   5.612   2.186 -0.0233  0.2453 -0.2860
 1424TIP3   OH2 4277   2.512   3.007   2.358  0.4770 -0.4199 -0.1718
 1424TIP3    H1 4278   2.564   3.039   2.431 -1.0446  2.6698 -0.2745
 1424TIP3    H2 4279   2.421   3.020   2.385 -0.1365 -0.0013 -2.2497
 1425TIP3   OH2 4280   1.487   2.880   0.564  0.0372  0.1775 -0.2347
 1425TIP3    H1 4281   1.400   2.852   0.591  1.1329 -1.8075  1.5307
 1425TIP3    H2 4282   1.516   2.812   0.503  0.4030  0.7740 -0.7368
 1426TIP3   OH2 4283   5.083   5.765   1.436 -0.0962  0.1067  0.1978
 1426TIP3    H1 4284   5.101   5.834   1.500 -0.5208 -0.5762  1.0664
 1426TIP3    H2 4285   5.168   5.722   1.424 -0.1022 -0.0355  0.6360
 1427TIP3   OH2 4286   3.177   5.116   0.907  0.2391 -0.0745 -0.1166
 1427TIP3    H1 4287   3.257   5.163   0.934  1.9951 -2.8716 -0.0977
 1427TIP3    H2 4288   3.173   5.129   0.813  0.4479  0.4662 -0.0589
 1428TIP3   OH2 4289   5.824   0.282   1.065  0.4846  0.2052 -0.0820
 1428TIP3    H1 4290   5.848   0.195   1.099 -0.4988 -0.3202 -0.6749
 1428TIP3    H2 4291   5.819   0.270   0.970 -0.0945  0.7933 -0.1355
 1429TIP3   OH2 4292   5.091   4.446   1.057  0.3798 -0.1825 -0.0575
 1429TIP3    H1 4293   5.129   4.398   0.983  0.6847 -0.3247  0.1896
 1429TIP3    H2 4294   4.997   4.429   1.051  0.4149 -0.2736 -0.3547
 1430TIP3   OH2 4295   1.294   0.862   0.593 -0.0429  0.2171 -0.0564
 1430TIP3    H1 4296   1.250   0.946   0.610 -0.5961 -0.0854  0.0324
 1430TIP3    H2 4297   1.372   0.864   0.649 -0.6172  0.2235  0.7599
 1431TIP3   OH2 4298   5.557   4.168   2.102 -0.3974 -0.3453  0.0017
 1431TIP3    H1 4299   5.462   4.163   2.109 -0.2260 -1.8747  2.2847
 1431TIP3    H2 4300   5.581   4.242   2.158 -0.3053  1.6093 -2.4433
 1432TIP3   OH2 4301   1.216   4.571   3.482 -0.3716 -0.2835  0.5566
 1432TIP3    H1 4302   1.160   4.527   3.419  1.4680 -2.5583  0.4035
 1432TIP3    H2 4303   1.286   4.610   3.430  0.3924 -0.9679  1.0468
 1433TIP3   OH2 4304   2.604   1.127   1.129 -0.0895 -0.0835  0.2886
 1433TIP3    H1 4305   2.667   1.152   1.196 -0.9694  2.1060  0.4074
 1433TIP3    H2 4306   2.540   1.199   1.129 -3.4153 -2.7920  1.1545
 1434TIP3   OH2 4307   1.464   5.407   1.194 -0.1053 -0.0415  0.1392
 1434TIP3    H1 4308   1.560   5.405   1.193 -0.0826  0.2034  0.8691
 1434TIP3    H2 4309   1.438   5.399   1.102  0.6283  0.6592 -0.1399
 1435TIP3   OH2 4310   1.948   3.923   3.486  0.1623 -0.4520  0.3405
 1435TIP3    H1 4311   2.005   3.998   3.507  0.6378 -1.0666  1.3220
 1435TIP3    H2 4312   1.939   3.876   3.569  0.6821 -2.0366 -0.4683
 1436TIP3   OH2 4313   3.563   2.938   4.898  0.3786 -0.7533  0.3259
 1436TIP3    H1 4314   3.484   2.890   4.869 -0.2271 -0.9578  2.2127
 1436TIP3    H2 4315   3.560   2.934   4.993  1.7562  0.7785  0.4729
 1437TIP3   OH2 4316   5.051   4.382   1.729 -0.3616  0.8845  0.1599
 1437TIP3    H1 4317   4.962   4.413   1.713  0.1375  3.2650  1.5822
 1437TIP3    H2 4318   5.041   4.310   1.792 -1.2674  1.1834  0.3612
 1438TIP3   OH2 4319   3.839   4.972   2.029 -0.7181  0.2923 -0.3999
 1438TIP3    H1 4320   3.869   4.886   2.060 -1.0932  0.5555  0.7639
 1438TIP3    H2 4321   3.743   4.965   2.030 -0.8206  1.2537  1.4266
 1439TIP3   OH2 4322   5.342   2.834   0.187 -0.1097  0.1768 -0.2185
 1439TIP3    H1 4323   5.390   2.771   0.240 -0.6875 -0.4174 -0.3833
 1439TIP3    H2 4324   5.407   2.870   0.127  0.2427 -0.2049 -0.0685
 1440TIP3   OH2 4325   5.681   1.340   3.582  0.1562  0.4553  0.4333
 1440TIP3    H1 4326   5.636   1.352   3.499  0.9157  1.9193  0.1951
 1440TIP3    H2 4327   5.738   1.265   3.569  0.9909  1.2644 -0.7115
 1441TIP3   OH2 4328   5.577   1.658   1.559 -0.1911 -0.2023  0.2791
 1441TIP3    H1 4329   5.614   1.671   1.471  0.5804 -0.5888  0.5389
 1441TIP3    H2 4330   5.652   1.633   1.613 -0.9776 -1.8735  0.6410
 1442TIP3   OH2 4331   2.099   1.188   1.554 -0.6851  0.4144 -0.6299
 1442TIP3    H1 4332   2.045   1.244   1.498 -1.6435 -0.0204 -0.1593
 1442TIP3    H2 4333   2.045   1.172   1.631  0.4669  0.6815  0.2580
 1443TIP3   OH2 4334   5.555   3.680   1.470 -0.4723 -0.0670 -0.4229
 1443TIP3    H1 4335   5.609   3.755   1.495  0.5355 -1.1649  0.8287
 1443TIP3    H2 4336   5.468   3.701   1.505 -1.0380  1.8400 -2.7063
 1444TIP3   OH2 4337   0.184   5.426   1.928  0.6639 -0.1789 -0.3599
 1444TIP3    H1 4338   0.178   5.331   1.940  1.5043 -0.0568  1.3440
 1444TIP3    H2 4339   0.264   5.438   1.876  2.0060 -0.3372  1.5436
 1445TIP3   OH2 4340   1.552   1.806   0.429  0.1192 -0.4796 -0.3763
 1445TIP3    H1 4341   1.587   1.892   0.452 -0.7933 -0.3598  0.6273
 1445TIP3    H2 4342   1.591   1.747   0.494 -1.5339 -0.3295  0.8319
 1446TIP3   OH2 4343   6.250   2.835   0.869  0.1972 -0.2481  0.5072
 1446TIP3    H1 4344   6.285   2.748   0.852 -2.5263 -1.7513  1.8503
 1446TIP3    H2 4345   6.270   2.885   0.790  1.3624 -2.2322 -0.5373
 1447TIP3   OH2 4346   4.410   0.766   2.950  0.2013 -0.2338  0.2846
 1447TIP3    H1 4347   4.489   0.777   3.002  1.2233 -1.8109 -0.8428
 1447TIP3    H2 4348   4.370   0.685   2.984 -1.3676  0.9084  1.3261
 1448TIP3   OH2 4349   2.744   5.345   4.651 -0.4189 -0.2015 -0.4007
 1448TIP3    H1 4350   2.819   5.364   4.707 -0.5047  1.8181 -0.8723
 1448TIP3    H2 4351   2.673   5.398   4.687 -1.2950 -1.1603 -0.6774
 1449TIP3   OH2 4352   2.358   1.198   1.385 -0.5735 -0.0472  0.3604
 1449TIP3    H1 4353   2.321   1.222   1.470 -2.1838  1.0268 -0.5830
 1449TIP3    H2 4354   2.282   1.191   1.327  0.5488  0.1085 -1.2004
 1450TIP3   OH2 4355   1.872   4.039   2.588  0.0580  0.0681  0.8302
 1450TIP3    H1 4356   1.888   4.107   2.522  0.3717  2.0492  2.7973
 1450TIP3    H2 4357   1.927   3.966   2.560 -0.9818  0.1832 -1.8804
 1451TIP3   OH2 4358   0.812   1.243   3.589  0.5429  0.2044  0.4040
 1451TIP3    H1 4359   0.761   1.221   3.512  3.9587  2.1472 -2.7474
 1451TIP3    H2 4360   0.878   1.173   3.594  1.3714  0.9785  0.4821
 1452TIP3   OH2 4361   3.812   4.452   2.833 -0.0678  0.2553 -0.3605
 1452TIP3    H1 4362   3.728   4.408   2.847 -0.6724  1.1833 -0.9532
 1452TIP3    H2 4363   3.872   4.382   2.809 -0.4690 -0.5267  0.8660
 1453TIP3   OH2 4364   2.486   2.446   3.846  0.1784  0.4077  0.8981
 1453TIP3    H1 4365   2.394   2.449   3.821  0.7541 -1.6984 -1.9347
 1453TIP3    H2 4366   2.525   2.382   3.787  3.6009  1.5865  1.6528
 1454TIP3   OH2 4367   2.090   5.742   0.895 -0.3869 -0.0065  0.2305
 1454TIP3    H1 4368   2.107   5.802   0.823  0.2292  0.4173  0.7165
 1454TIP3    H2 4369   2.173   5.695   0.907 -0.9822 -1.2762 -0.4232
 1455TIP3   OH2 4370   5.213   3.131   4.209 -0.2429 -0.6766  0.1750
 1455TIP3    H1 4371   5.168   3.171   4.283  0.8297  0.5403  0.2097
 1455TIP3    H2 4372   5.284   3.193   4.188  0.1716 -1.5548 -1.1298
 1456TIP3   OH2 4373   2.727   4.896   3.514 -0.0065 -0.1295 -0.3508
 1456TIP3    H1 4374   2.657   4.839   3.481 -0.3122 -0.2875  0.5426
 1456TIP3    H2 4375   2.800   4.837   3.530  0.6666  0.1643 -2.1401
 1457TIP3   OH2 4376   5.724   3.989   4.128 -0.8988 -0.1727  0.0779
 1457TIP3    H1 4377   5.686   4.075   4.112 -0.6278  0.0657  0.6752
 1457TIP3    H2 4378   5.806   3.989   4.079 -1.0431 -0.2008 -0.1626
 1458TIP3   OH2 4379   4.832   5.132   2.536  0.5740  0.8684  0.2916
 1458TIP3    H1 4380   4.789   5.175   2.463  1.2463  0.7471 -0.1853
 1458TIP3    H2 4381   4.880   5.202   2.581  0.2830  0.9151  0.5368
 1459TIP3   OH2 4382   4.754   1.706   0.992  0.5215 -0.3235 -0.4069
 1459TIP3    H1 4383   4.804   1.687   0.913 -0.8433 -0.3273 -1.3081
 1459TIP3    H2 4384   4.730   1.619   1.027  1.0070 -0.3204 -0.0621
 1460TIP3   OH2 4385   3.772   0.300   2.435 -0.0375  0.2942  0.3767
 1460TIP3    H1 4386   3.719   0.246   2.376  0.7627  0.9916 -1.0079
 1460TIP3    H2 4387   3.708   0.358   2.477 -0.8535 -1.3614  1.5589
 1461TIP3   OH2 4388   0.448   2.245   1.226  0.2797 -0.0868 -0.0066
 1461TIP3    H1 4389   0.435   2.161   1.272  0.0407 -0.7749 -1.3015
 1461TIP3    H2 4390   0.462   2.308   1.297 -0.5677 -1.0242  1.0431
 1462TIP3   OH2 4391   4.924   1.680   0.778 -1.0615 -0.0154 -0.7534
 1462TIP3    H1 4392   4.919   1.596   0.733  0.0469 -0.2346 -0.4953
 1462TIP3    H2 4393   4.960   1.741   0.713  1.3530 -0.5199  0.0045
 1463TIP3   OH2 4394   1.409   0.845   0.073 -0.0716  0.1353  0.0018
 1463TIP3    H1 4395   1.379   0.776   0.015 -0.2018  0.5636 -0.4476
 1463TIP3    H2 4396   1.495   0.816   0.103 -0.1917 -0.2892 -0.0642
 1464TIP3   OH2 4397   5.605   4.383   4.695  0.0929  0.1577 -0.2051
 1464TIP3    H1 4398   5.551   4.437   4.752  0.3291 -0.0391  0.2080
 1464TIP3    H2 4399   5.586   4.293   4.722  0.5608  0.0831 -0.1109
 1465TIP3   OH2 4400   0.270   0.400   1.376 -0.3248 -0.2783  0.4910
 1465TIP3    H1 4401   0.364   0.389   1.392 -0.2120 -1.0058 -0.5246
 1465TIP3    H2 4402   0.231   0.403   1.463  0.5953 -0.3779  0.9254
 1466TIP3   OH2 4403   1.944   0.843   1.814 -0.1689  0.5759  0.7289
 1466TIP3    H1 4404   2.004   0.887   1.753 -0.9263 -1.1764 -1.4071
 1466TIP3    H2 4405   1.879   0.909   1.835 -0.6611  0.8806 -1.5163
 1467TIP3   OH2 4406   2.747   0.292   2.244 -0.1913  0.3340  0.3135
 1467TIP3    H1 4407   2.777   0.257   2.328  0.7155 -0.8203 -0.4562
 1467TIP3    H2 4408   2.768   0.386   2.248  0.9885  0.0597  0.9069
 1468TIP3   OH2 4409   2.144   0.493   4.251 -0.1230  0.0251  0.2267
 1468TIP3    H1 4410   2.166   0.524   4.340 -0.4739 -0.8380  0.6208
 1468TIP3    H2 4411   2.050   0.510   4.243 -0.3938 -1.2197  0.5755
 1469TIP3   OH2 4412   6.022   4.584   2.243  0.7573  0.6077 -0.0548
 1469TIP3    H1 4413   5.980   4.514   2.291  2.1222 -0.5636 -0.5147
 1469TIP3    H2 4414   5.955   4.652   2.236 -0.8412 -0.9289 -0.2333
 1470TIP3   OH2 4415   3.931   0.036   1.226  0.9550 -0.8276 -0.0878
 1470TIP3    H1 4416   4.020   0.002   1.219  1.5598  0.1463  1.9523
 1470TIP3    H2 4417   3.925   0.102   1.157  2.0839 -0.3658  0.2425
 1471TIP3   OH2 4418   1.981   5.708   0.557 -0.4209  0.0186  0.0446
 1471TIP3    H1 4419   1.949   5.661   0.634  2.2200  1.5954  2.3339
 1471TIP3    H2 4420   2.032   5.643   0.508  1.2968 -0.1608  1.9345
 1472TIP3   OH2 4421   0.145   3.022   3.912 -0.1791 -0.0158  0.3388
 1472TIP3    H1 4422   0.109   3.094   3.963 -1.4030  0.0671 -0.5934
 1472TIP3    H2 4423   0.111   2.943   3.955 -2.0586  0.0731 -0.8913
 1473TIP3   OH2 4424   3.617   0.882   2.712  0.2086 -0.0049 -0.6010
 1473TIP3    H1 4425   3.562   0.934   2.770  1.0522 -0.6666  0.8447
 1473TIP3    H2 4426   3.600   0.917   2.624 -0.1039  1.9124  0.1851
 1474TIP3   OH2 4427   5.196   1.647   4.432  0.5475  0.3345 -0.3602
 1474TIP3    H1 4428   5.251   1.699   4.490 -0.8439  0.5967  0.7755
 1474TIP3    H2 4429   5.185   1.563   4.476  0.2901  0.1771 -0.7095
 1475TIP3   OH2 4430   2.910   1.179  -0.012  0.0684  0.1410  0.4987
 1475TIP3    H1 4431   2.828   1.225  -0.032  0.0670  0.7628  1.8414
 1475TIP3    H2 4432   2.884   1.111   0.050  0.6453  0.7383  1.4180
 1476TIP3   OH2 4433   0.752   4.983   4.133  0.5618  0.3765 -0.4567
 1476TIP3    H1 4434   0.824   4.956   4.191  1.2408 -1.6303 -2.1169
 1476TIP3    H2 4435   0.743   5.077   4.149  0.4345 -0.0931  3.1352
 1477TIP3   OH2 4436   6.139   4.360   3.179  0.3626 -0.3014 -0.1543
 1477TIP3    H1 4437   6.061   4.364   3.234  0.5744 -2.2670  0.3570
 1477TIP3    H2 4438   6.191   4.436   3.206  0.2160 -0.9176  2.0243
 1478TIP3   OH2 4439   1.892   2.524   0.331 -0.0302 -0.1593  0.5938
 1478TIP3    H1 4440   1.806   2.536   0.370  0.6661  0.4012  2.0110
 1478TIP3    H2 4441   1.944   2.482   0.400  0.9509 -0.0956 -0.0907
 1479TIP3   OH2 4442   0.937   1.071   0.792 -0.3013 -0.0873 -0.0821
 1479TIP3    H1 4443   1.000   1.078   0.720 -1.5177 -1.7580 -1.3834
 1479TIP3    H2 4444   0.948   0.983   0.827  0.8987  0.9706  2.4880
 1480TIP3   OH2 4445   2.707   3.429   0.378 -0.3344  0.3770 -0.6436
 1480TIP3    H1 4446   2.715   3.374   0.456 -0.5943  1.1028 -0.1041
 1480TIP3    H2 4447   2.767   3.502   0.393 -1.9063  1.6185 -0.1627
 1481TIP3   OH2 4448   1.832   4.405   2.140 -0.3387  0.1684  0.1255
 1481TIP3    H1 4449   1.761   4.457   2.178  0.5941  1.2318  0.4678
 1481TIP3    H2 4450   1.908   4.463   2.141  1.2000 -1.7170  2.0658
 1482TIP3   OH2 4451   2.174   3.626   3.432 -0.8426  0.4854  0.6155
 1482TIP3    H1 4452   2.096   3.624   3.378 -0.5187  0.0212  0.1564
 1482TIP3    H2 4453   2.245   3.647   3.371 -0.8060  2.6162  1.2845
 1483TIP3   OH2 4454   0.377   0.084   3.588  0.1374 -0.2605  0.3178
 1483TIP3    H1 4455   0.404   0.173   3.565  0.2166  0.2964  2.4125
 1483TIP3    H2 4456   0.283   0.090   3.600  0.2077 -0.3476  0.9262
 1484TIP3   OH2 4457   1.780   3.282   1.762  0.1301 -0.6616 -0.1721
 1484TIP3    H1 4458   1.811   3.358   1.712  2.1613 -1.1196  0.2923
 1484TIP3    H2 4459   1.824   3.207   1.722 -1.2128 -1.5234 -0.0990
 1485TIP3   OH2 4460   1.425   3.292   0.886  0.0106 -0.9850 -0.5570
 1485TIP3    H1 4461   1.452   3.288   0.794 -0.5247  1.7045 -0.9205
 1485TIP3    H2 4462   1.335   3.325   0.883 -0.6558 -2.5482  0.9026
 1486TIP3   OH2 4463   0.334   4.577   5.121  0.5400 -0.3304 -0.3934
 1486TIP3    H1 4464   0.282   4.500   5.143 -0.2980  0.4300  0.3775
 1486TIP3    H2 4465   0.364   4.562   5.031 -0.5398 -1.0513 -0.6415
 1487TIP3   OH2 4466   3.606   5.776   4.510  0.5823  0.2103  0.3031
 1487TIP3    H1 4467   3.596   5.861   4.552  2.3800  0.1816  0.8530
 1487TIP3    H2 4468   3.621   5.715   4.582 -0.1398 -0.4922 -0.1270
 1488TIP3   OH2 4469   3.335   0.551   5.056  0.2628  0.6153 -0.5600
 1488TIP3    H1 4470   3.361   0.491   5.125  2.1758  1.5563 -0.3822
 1488TIP3    H2 4471   3.264   0.603   5.094  0.7160  0.5559  0.3879
 1489TIP3   OH2 4472   2.940   3.315   1.894  0.0548  0.4308  1.1810
 1489TIP3    H1 4473   3.004   3.253   1.931 -0.4933 -1.8613 -1.3233
 1489TIP3    H2 4474   2.856   3.287   1.930 -0.3573 -1.2397 -0.8189
 1490TIP3   OH2 4475   2.205   0.792   4.599 -0.3282  0.0769  0.3500
 1490TIP3    H1 4476   2.160   0.843   4.531  0.4964  1.5201  0.8317
 1490TIP3    H2 4477   2.179   0.834   4.681  0.2925 -0.3485  0.7697
 1491TIP3   OH2 4478   3.419   3.195   1.097 -0.0437 -0.4589 -0.0382
 1491TIP3    H1 4479   3.455   3.284   1.095 -0.6513 -0.1961  0.2844
 1491TIP3    H2 4480   3.343   3.200   1.039  0.5990 -1.0849 -0.9624
 1492TIP3   OH2 4481   1.566   3.976   2.964  0.1650  0.2469 -0.6488
 1492TIP3    H1 4482   1.494   3.970   2.901 -1.3040 -1.3666  1.0680
 1492TIP3    H2 4483   1.615   3.895   2.952 -0.8370 -0.6544  1.0268
 1493TIP3   OH2 4484   6.136   3.792   1.771 -0.2676  0.1326  0.1680
 1493TIP3    H1 4485   6.214   3.782   1.825  0.5789  1.8122 -0.6426
 1493TIP3    H2 4486   6.065   3.803   1.833  0.2725 -0.6136  0.9308
 1494TIP3   OH2 4487   0.340   3.891   4.342 -0.1048  0.1579 -0.0255
 1494TIP3    H1 4488   0.268   3.846   4.388 -0.5011  0.1284 -0.6535
 1494TIP3    H2 4489   0.419   3.855   4.381 -0.4229 -0.6900 -0.1303
 1495TIP3   OH2 4490   2.705   0.198   4.190 -0.2591  0.6548  0.1039
 1495TIP3    H1 4491   2.783   0.244   4.161  1.0573 -1.3712  0.2164
 1495TIP3    H2 4492   2.652   0.189   4.111  1.3932 -1.2005 -0.8934
 1496TIP3   OH2 4493   2.245   5.789   0.386  0.4736 -0.7123 -0.1011
 1496TIP3    H1 4494   2.335   5.759   0.402  1.0767  0.4484 -1.2073
 1496TIP3    H2 4495   2.190   5.721   0.427  1.8461 -0.7788  1.7547
 1497TIP3   OH2 4496   0.988   4.153   1.431 -0.4982  0.0681  0.1879
 1497TIP3    H1 4497   0.895   4.171   1.422 -0.5435 -0.2901 -0.0938
 1497TIP3    H2 4498   1.002   4.073   1.381 -0.4810 -1.2775  2.2303
 1498TIP3   OH2 4499   1.678   5.316   4.330 -0.1215 -0.1069 -0.4413
 1498TIP3    H1 4500   1.687   5.361   4.414 -1.1859  1.4910 -1.1407
 1498TIP3    H2 4501   1.755   5.258   4.326 -0.3916 -0.7396  1.9022
 1499TIP3   OH2 4502   0.866   2.149   4.240 -0.3448 -0.5041  0.1251
 1499TIP3    H1 4503   0.908   2.094   4.306  0.5424  0.0682  0.0535
 1499TIP3    H2 4504   0.895   2.238   4.262 -1.3945 -0.1083 -0.0240
 1500TIP3   OH2 4505   1.838   5.992   3.878  0.0481  0.2065 -0.2132
 1500TIP3    H1 4506   1.899   5.920   3.861 -0.1644 -0.0857  0.2280
 1500TIP3    H2 4507   1.813   6.024   3.792 -0.6708 -0.9499 -0.4505
 1501TIP3   OH2 4508   1.341   2.268   3.069  0.3267  0.6853  0.2939
 1501TIP3    H1 4509   1.247   2.284   3.071  0.4040  1.1966 -0.0336
 1501TIP3    H2 4510   1.363   2.239   3.158 -0.5540 -1.9045 -0.2370
 1502TIP3   OH2 4511   1.354   0.491   4.943  0.1892  0.6752  0.1755
 1502TIP3    H1 4512   1.388   0.499   4.854 -0.3848  0.1816 -0.0971
 1502TIP3    H2 4513   1.412   0.546   4.996 -1.3287  3.5740 -0.9585
 1503TIP3   OH2 4514   6.113   2.476   4.662  0.0242 -0.0842 -0.0600
 1503TIP3    H1 4515   6.137   2.568   4.649 -2.0808  0.4041 -0.7477
 1503TIP3    H2 4516   6.181   2.442   4.722  1.0464  1.7895 -0.0850
 1504TIP3   OH2 4517   1.660   3.096   2.488  0.0822  0.8135 -0.3627
 1504TIP3    H1 4518   1.697   3.067   2.404  0.0252  0.1390 -0.1644
 1504TIP3    H2 4519   1.585   3.037   2.502  1.7547 -1.0187  1.5325
 1505TIP3   OH2 4520   1.630   1.538   3.457  0.9028 -0.2261  0.1805
 1505TIP3    H1 4521   1.712   1.500   3.425  0.9414  0.6332 -0.7775
 1505TIP3    H2 4522   1.591   1.468   3.509  1.8179 -0.9579 -0.0765
 1506TIP3   OH2 4523   1.909   1.773   1.953 -0.2244 -0.0624  0.2629
 1506TIP3    H1 4524   1.994   1.798   1.916  1.3945 -1.6456  2.5334
 1506TIP3    H2 4525   1.900   1.680   1.930 -0.2802 -0.4545  1.7310
 1507TIP3   OH2 4526   6.197   1.774   1.722  0.2181 -0.2301 -0.0875
 1507TIP3    H1 4527   6.239   1.726   1.793  2.1319 -0.2567 -1.1825
 1507TIP3    H2 4528   6.163   1.706   1.664 -1.5699 -0.2111  0.8605
 1508TIP3   OH2 4529   4.691   3.586   3.251  0.4376  0.3712  0.1039
 1508TIP3    H1 4530   4.771   3.560   3.297 -0.5110 -1.8759  0.6458
 1508TIP3    H2 4531   4.637   3.628   3.318  1.4032  2.5874 -0.4372
 1509TIP3   OH2 4532   2.842   2.463   2.643  0.4445 -0.3173 -0.1222
 1509TIP3    H1 4533   2.885   2.514   2.575  2.9326 -0.5784  1.1425
 1509TIP3    H2 4534   2.838   2.522   2.718  1.7031 -1.3644  0.8038
 1510TIP3   OH2 4535   1.497   5.900   3.009  0.0059  0.4501  0.1666
 1510TIP3    H1 4536   1.439   5.833   3.045  0.2520  0.3862  0.4412
 1510TIP3    H2 4537   1.583   5.858   3.006 -0.2029  0.0396 -1.5607
 1511TIP3   OH2 4538   1.203   2.033   2.757 -0.1520  0.1995  0.7310
 1511TIP3    H1 4539   1.252   2.012   2.677  0.7650 -0.2840  1.4084
 1511TIP3    H2 4540   1.268   2.067   2.817 -0.5639 -0.8464  1.8006
 1512TIP3   OH2 4541   4.876   1.789   3.914  0.7903 -0.2002 -0.3057
 1512TIP3    H1 4542   4.836   1.876   3.913  0.3411 -0.3897  0.5000
 1512TIP3    H2 4543   4.810   1.732   3.874 -0.2228 -0.6859  1.8907
 1513TIP3   OH2 4544   5.388   0.987   4.820 -0.8071 -0.3127  0.4717
 1513TIP3    H1 4545   5.350   0.977   4.908  0.0661 -1.4692  0.7414
 1513TIP3    H2 4546   5.472   1.030   4.836 -0.7431 -0.3285  0.1771
 1514TIP3   OH2 4547   6.282   1.326   1.272  0.7484 -0.3695  0.1552
 1514TIP3    H1 4548   6.235   1.276   1.206  1.2916 -0.0570 -0.4831
 1514TIP3    H2 4549   6.335   1.388   1.222  0.9393  0.0790  0.8950
 1515TIP3   OH2 4550   1.021   3.207   1.394  0.0824 -0.3094  0.4347
 1515TIP3    H1 4551   1.011   3.260   1.473 -1.5602 -0.9057  0.6511
 1515TIP3    H2 4552   1.067   3.128   1.423 -1.1434 -0.8499  0.9719
 1516TIP3   OH2 4553   0.747   0.451   3.002  0.1882  1.1443  0.0147
 1516TIP3    H1 4554   0.677   0.504   3.041 -0.9798 -0.4058  0.0941
 1516TIP3    H2 4555   0.750   0.479   2.911  0.1430  1.9148  0.2408
 1517TIP3   OH2 4556   4.301   1.271   1.866  0.0248  0.8730  0.0923
 1517TIP3    H1 4557   4.291   1.348   1.922 -0.0251 -0.5756  2.1700
 1517TIP3    H2 4558   4.323   1.200   1.926  0.3267 -0.7040 -1.7881
 1518TIP3   OH2 4559   4.249   3.974   1.098 -0.0641  0.0404  0.9250
 1518TIP3    H1 4560   4.208   4.061   1.096  0.6789  0.3934  0.6902
 1518TIP3    H2 4561   4.199   3.925   1.163 -0.6492  0.5641  0.8750
 1519TIP3   OH2 4562   4.471   0.378   0.270  0.2052 -0.4442  0.3561
 1519TIP3    H1 4563   4.405   0.354   0.205 -0.0838 -0.8827  0.8112
 1519TIP3    H2 4564   4.527   0.442   0.224 -0.4493 -0.1659 -0.0723
 1520TIP3   OH2 4565   3.327   1.496   3.394 -0.0353 -0.4987 -0.4089
 1520TIP3    H1 4566   3.238   1.515   3.424  0.0815 -1.4060  0.6032
 1520TIP3    H2 4567   3.374   1.578   3.405 -0.0961 -0.6859  1.6663
 1521TIP3   OH2 4568   0.430   2.350   0.725  0.3794 -0.2139  0.5114
 1521TIP3    H1 4569   0.439   2.433   0.772  0.1730  0.4158 -0.5426
 1521TIP3    H2 4570   0.344   2.354   0.685  0.6438 -0.6286 -0.1170
 1522TIP3   OH2 4571   4.824   1.752   1.391  0.1220  0.1140  0.0849
 1522TIP3    H1 4572   4.919   1.740   1.382  0.0674 -0.1270 -0.1942
 1522TIP3    H2 4573   4.813   1.802   1.472  0.4320 -0.5958  0.5711
 1523TIP3   OH2 4574   6.277   1.501   4.310 -0.0006 -0.3556  0.6805
 1523TIP3    H1 4575   6.203   1.476   4.256  1.1613  1.3609 -1.9395
 1523TIP3    H2 4576   6.331   1.422   4.315 -0.9753 -1.0285  0.8589
 1524TIP3   OH2 4577   2.146   4.214   2.744  0.4401  0.5923  0.3126
 1524TIP3    H1 4578   2.069   4.169   2.708  0.6804  1.5974 -1.6062
 1524TIP3    H2 4579   2.177   4.157   2.815 -0.9532 -0.7670 -0.1234
 1525TIP3   OH2 4580   4.021   3.493   0.765 -0.9249  0.3000  0.3705
 1525TIP3    H1 4581   4.096   3.457   0.813 -0.0246 -0.0234 -1.2160
 1525TIP3    H2 4582   3.991   3.420   0.711  1.0042  1.7957 -3.0074
 1526TIP3   OH2 4583   1.427   0.747   2.241  0.4159 -0.1863  0.0164
 1526TIP3    H1 4584   1.370   0.794   2.302 -1.5045  0.2749 -1.9870
 1526TIP3    H2 4585   1.367   0.698   2.185  2.0955 -0.8225 -1.3065
 1527TIP3   OH2 4586   4.854   0.805   4.246  0.0554  0.0341 -0.3492
 1527TIP3    H1 4587   4.854   0.864   4.170  0.0186  0.1248 -0.2779
 1527TIP3    H2 4588   4.895   0.855   4.316 -1.2526  0.4861  0.1147
 1528TIP3   OH2 4589   6.065   1.994   3.894 -0.2264  0.4661  0.2819
 1528TIP3    H1 4590   6.022   2.021   3.975 -0.5569 -1.8918  0.9619
 1528TIP3    H2 4591   5.999   1.944   3.847  1.1256 -1.6922  0.5255
 1529TIP3   OH2 4592   2.416   2.714   2.861 -0.3759  0.0660  0.1033
 1529TIP3    H1 4593   2.445   2.758   2.941 -0.1891 -0.4197  0.3021
 1529TIP3    H2 4594   2.323   2.697   2.876 -0.1734 -0.7143  0.5426
 1530TIP3   OH2 4595   2.402   2.339   0.948  0.2826  0.0690  0.1592
 1530TIP3    H1 4596   2.483   2.316   0.903  0.4955  1.1652 -0.0376
 1530TIP3    H2 4597   2.429   2.359   1.038  0.2733  0.6535  0.0370
 1531TIP3   OH2 4598   6.003   0.548   0.205  0.4010 -0.2941  0.3365
 1531TIP3    H1 4599   5.926   0.521   0.255  0.5757 -0.2563  0.6281
 1531TIP3    H2 4600   6.009   0.486   0.133  0.0607 -0.2596  0.2792
 1532TIP3   OH2 4601   0.388   3.684   3.583 -0.4868 -0.1318  0.3407
 1532TIP3    H1 4602   0.480   3.677   3.555 -0.5931  1.2251 -0.4371
 1532TIP3    H2 4603   0.388   3.651   3.673  0.8742  0.3627  0.5580
 1533TIP3   OH2 4604   4.408   4.882   4.464  0.3205 -0.1857 -0.4992
 1533TIP3    H1 4605   4.490   4.864   4.509  0.4379  1.1021 -0.1598
 1533TIP3    H2 4606   4.370   4.795   4.447  1.9613 -0.8357 -1.0922
 1534TIP3   OH2 4607   3.671   5.925   4.980  0.5454 -0.6263 -0.2122
 1534TIP3    H1 4608   3.640   5.915   5.070  2.0305 -0.2773  0.3728
 1534TIP3    H2 4609   3.646   5.843   4.937 -1.1560 -0.3490  0.1873
 1535TIP3   OH2 4610   3.926   3.430   4.158 -0.2499 -0.0860 -0.2588
 1535TIP3    H1 4611   3.880   3.381   4.227  0.1486 -1.4684 -0.9471
 1535TIP3    H2 4612   3.933   3.368   4.086  1.1317  0.6877 -0.8170
 1536TIP3   OH2 4613   6.065   5.108   4.639  0.1424 -0.4735  0.2040
 1536TIP3    H1 4614   6.149   5.144   4.611  0.3589 -0.9563  0.2157
 1536TIP3    H2 4615   6.087   5.024   4.679 -0.3142 -0.4523  0.5144
 1537TIP3   OH2 4616   4.662   4.451   0.728  0.7546 -0.1463 -0.6092
 1537TIP3    H1 4617   4.665   4.537   0.688  1.6931  0.3085  0.3983
 1537TIP3    H2 4618   4.681   4.390   0.656 -1.4170  0.3223 -1.6605
 1538TIP3   OH2 4619   5.829   3.816   3.027  0.4140 -0.8505  0.2751
 1538TIP3    H1 4620   5.809   3.781   2.940 -0.0500 -0.3655  0.1848
 1538TIP3    H2 4621   5.852   3.907   3.011  1.2985 -1.0153  0.5481
 1539TIP3   OH2 4622   1.143   4.477   1.913  0.5224 -0.0604 -0.0346
 1539TIP3    H1 4623   1.191   4.515   1.987  0.8856 -0.7817  0.1059
 1539TIP3    H2 4624   1.051   4.481   1.939  0.4910  1.1943 -0.2416
 1540TIP3   OH2 4625   5.787   2.097  -0.024  0.4865  0.7459 -0.2748
 1540TIP3    H1 4626   5.810   2.090   0.069  0.2438  0.3115 -0.2439
 1540TIP3    H2 4627   5.709   2.152  -0.026 -0.9655 -1.1889  0.0236
 1541TIP3   OH2 4628   4.620   5.732   4.184  0.4541 -0.6958  0.3978
 1541TIP3    H1 4629   4.606   5.798   4.117  0.4265 -1.3499 -0.2589
 1541TIP3    H2 4630   4.579   5.653   4.148 -3.0964 -0.2036  2.7864
 1542TIP3   OH2 4631   1.389   1.329   0.493  0.1902 -0.2145 -0.1607
 1542TIP3    H1 4632   1.414   1.309   0.583 -1.1780  0.7371  0.4631
 1542TIP3    H2 4633   1.299   1.359   0.499 -0.5830 -1.8568 -2.0916
 1543TIP3   OH2 4634   1.131   3.978   1.793 -0.2976  0.3918 -0.3755
 1543TIP3    H1 4635   1.060   3.937   1.842  1.6948 -2.2739  0.5294
 1543TIP3    H2 4636   1.145   3.920   1.718  0.0742  1.5957 -1.2682
 1544TIP3   OH2 4637   0.633   3.386   4.979  0.3216  0.2410  0.1392
 1544TIP3    H1 4638   0.711   3.337   4.954  0.1032 -0.0223 -0.0244
 1544TIP3    H2 4639   0.599   3.420   4.896  0.5137  0.7300  0.2586
 1545TIP3   OH2 4640   3.917   5.250   1.973 -0.5008 -0.1615 -0.1386
 1545TIP3    H1 4641   3.999   5.257   2.022  0.3331 -0.6340 -1.4172
 1545TIP3    H2 4642   3.899   5.156   1.968  0.1294 -0.2302 -1.8005
 1546TIP3   OH2 4643   2.752   1.737   0.112 -0.1602 -0.8296 -0.1111
 1546TIP3    H1 4644   2.758   1.671   0.182  0.9875 -0.2557  0.3727
 1546TIP3    H2 4645   2.843   1.763   0.096 -0.6113  1.2664  0.3413
 1547TIP3   OH2 4646   4.046   3.507   1.218  0.1770 -0.7469  0.4706
 1547TIP3    H1 4647   3.957   3.489   1.188  0.5231  1.7599 -2.5385
 1547TIP3    H2 4648   4.102   3.475   1.148  1.6572 -1.4023  1.8727
 1548TIP3   OH2 4649   4.520   2.684   1.349 -0.3993 -0.3470 -0.7978
 1548TIP3    H1 4650   4.523   2.663   1.442  1.3529 -1.3320 -1.0209
 1548TIP3    H2 4651   4.490   2.775   1.345  0.2543 -0.0334  0.7753
 1549TIP3   OH2 4652   2.583   0.579   3.045  0.1350  0.0644 -0.2906
 1549TIP3    H1 4653   2.618   0.595   2.958 -1.1345  0.8429 -0.6948
 1549TIP3    H2 4654   2.596   0.662   3.092  3.0716 -1.0816  1.1385
 1550TIP3   OH2 4655   3.730   4.083   3.336  0.2984  0.0733  0.3904
 1550TIP3    H1 4656   3.801   4.022   3.359  1.2336  1.4635  1.4019
 1550TIP3    H2 4657   3.776   4.162   3.309 -0.8925  0.4820 -0.4904
 1551TIP3   OH2 4658   2.260   5.797   2.539  0.0882 -0.0891  0.2777
 1551TIP3    H1 4659   2.341   5.781   2.588 -1.8817 -3.3212  2.8768
 1551TIP3    H2 4660   2.256   5.725   2.476 -1.3835 -0.8301  1.1757
 1552TIP3   OH2 4661   1.721   3.378   0.955  0.4617  0.0886 -0.0196
 1552TIP3    H1 4662   1.631   3.376   0.923  1.1589  2.0528 -2.4263
 1552TIP3    H2 4663   1.729   3.464   0.998  0.6459 -0.9593  2.2105
 1553TIP3   OH2 4664   1.454   3.772   0.679 -0.7327 -0.6608  0.3701
 1553TIP3    H1 4665   1.419   3.860   0.690 -1.5335 -0.8447 -0.5082
 1553TIP3    H2 4666   1.536   3.772   0.728 -0.9336  0.4355  0.7367
 1554TIP3   OH2 4667   4.647   2.582   2.912  0.2559  0.1972  0.7274
 1554TIP3    H1 4668   4.576   2.569   2.850 -0.1681  0.5287  1.1368
 1554TIP3    H2 4669   4.714   2.630   2.864 -0.1638  0.6526  0.5926
 1555TIP3   OH2 4670   2.775   2.794   2.234 -0.1886  0.4732  0.1872
 1555TIP3    H1 4671   2.829   2.816   2.158  0.7258 -0.0242  0.6648
 1555TIP3    H2 4672   2.770   2.875   2.284 -2.1309  1.2481 -1.1542
 1556TIP3   OH2 4673   2.265   3.800   4.550  0.0663 -0.3766 -0.6875
 1556TIP3    H1 4674   2.248   3.892   4.530 -1.3392 -0.3673  0.3439
 1556TIP3    H2 4675   2.319   3.769   4.478  0.0409  1.0928 -1.3775
 1557TIP3   OH2 4676   5.967   3.058   2.626 -0.0288 -0.6899  0.1266
 1557TIP3    H1 4677   5.937   3.061   2.717  0.8697  0.5989  0.3996
 1557TIP3    H2 4678   6.049   3.010   2.629  0.2679 -0.1912  0.0826
 1558TIP3   OH2 4679   5.708   2.813   0.095 -0.1241  0.4990 -0.3876
 1558TIP3    H1 4680   5.796   2.816   0.060  0.0819 -0.4870  0.0202
 1558TIP3    H2 4681   5.691   2.720   0.111 -0.7739  0.7765  0.6688
 1559TIP3   OH2 4682   5.483   3.844   0.565  0.3858 -0.0277  0.7817
 1559TIP3    H1 4683   5.482   3.920   0.507 -0.9684  0.5584  1.5301
 1559TIP3    H2 4684   5.572   3.841   0.599  1.1650 -0.2731 -1.1486
 1560TIP3   OH2 4685   3.304   5.115   3.682  0.3572  0.3573 -0.2934
 1560TIP3    H1 4686   3.248   5.169   3.626  1.0233  1.7951  0.3689
 1560TIP3    H2 4687   3.311   5.165   3.763 -0.5310 -1.6302  1.1006
 1561TIP3   OH2 4688   0.949   3.951   3.524 -0.5727 -0.0066 -0.5028
 1561TIP3    H1 4689   0.943   3.906   3.440  0.5158 -1.0539 -0.0576
 1561TIP3    H2 4690   0.910   4.037   3.508  1.2174  0.5269 -2.5882
 1562TIP3   OH2 4691   1.674   0.576   2.017  0.0669  0.1560 -0.4152
 1562TIP3    H1 4692   1.602   0.514   2.007  0.7348 -0.7601  0.1556
 1562TIP3    H2 4693   1.704   0.594   1.928 -0.9729  0.6931 -0.6667
 1563TIP3   OH2 4694   1.381   3.597   4.998 -0.0780  0.3784 -0.0019
 1563TIP3    H1 4695   1.416   3.537   4.932 -1.5548 -0.3650 -0.1373
 1563TIP3    H2 4696   1.341   3.540   5.064  0.1557  1.1629  0.8418
 1564TIP3   OH2 4697   0.466   4.931   4.163  0.0543  0.3270 -1.0756
 1564TIP3    H1 4698   0.558   4.912   4.145  0.3790  1.1194 -0.2744
 1564TIP3    H2 4699   0.461   4.942   4.258 -1.4861 -3.0640 -0.6059
 1565TIP3   OH2 4700   2.728   0.069   3.804  0.1552  0.6292  0.3547
 1565TIP3    H1 4701   2.639   0.082   3.836 -0.7564 -1.9889 -0.8897
 1565TIP3    H2 4702   2.761   0.157   3.788 -2.3203  1.6499  0.5157
 1566TIP3   OH2 4703   2.893   2.668   0.822  0.1862 -0.5185 -0.7181
 1566TIP3    H1 4704   2.838   2.669   0.900  1.3319 -0.2027  0.1042
 1566TIP3    H2 4705   2.832   2.649   0.750 -0.5603 -3.0750  0.4870
 1567TIP3   OH2 4706   0.473   0.465   4.950 -0.1030  0.0016 -0.6143
 1567TIP3    H1 4707   0.503   0.420   4.871 -2.2899 -1.3351 -0.7394
 1567TIP3    H2 4708   0.388   0.501   4.926 -0.3696  0.4014  0.8673
 1568TIP3   OH2 4709   2.177   4.480   2.693  0.0807 -0.7432  0.1479
 1568TIP3    H1 4710   2.176   4.500   2.787 -0.1307 -0.1193  0.0195
 1568TIP3    H2 4711   2.163   4.386   2.688  0.8284 -0.8967  0.7726
 1569TIP3   OH2 4712   3.260   4.614   1.919  0.4762 -0.6952  0.0301
 1569TIP3    H1 4713   3.324   4.592   1.851 -0.0957  0.5953 -0.9653
 1569TIP3    H2 4714   3.311   4.659   1.986  0.6660  0.1512 -0.6668
 1570TIP3   OH2 4715   1.762   2.518   2.324  0.1459 -0.6240 -0.0733
 1570TIP3    H1 4716   1.854   2.525   2.349 -0.0426  0.8980  0.3019
 1570TIP3    H2 4717   1.757   2.438   2.271  1.6382 -0.8026  0.0181
 1571TIP3   OH2 4718   1.446   0.415   1.962 -0.1237  0.4914  0.5563
 1571TIP3    H1 4719   1.368   0.433   2.016  0.0554  1.5673  0.4809
 1571TIP3    H2 4720   1.438   0.476   1.888 -0.0817 -0.5829 -0.3585
 1572TIP3   OH2 4721   3.210   0.399   4.534 -0.4673 -0.3640 -0.1586
 1572TIP3    H1 4722   3.181   0.455   4.462 -2.1640  0.2350  0.9174
 1572TIP3    H2 4723   3.132   0.390   4.589  0.4963 -1.6804  1.0459
 1573TIP3   OH2 4724   4.329   4.613   4.537  0.6171  0.0927 -0.0049
 1573TIP3    H1 4725   4.238   4.619   4.506  0.8689  0.0358 -0.7677
 1573TIP3    H2 4726   4.321   4.592   4.630 -0.1485 -0.4882 -0.1942
 1574TIP3   OH2 4727   4.357   5.742   3.989 -0.3411  0.0814  0.0020
 1574TIP3    H1 4728   4.268   5.756   3.955 -0.1303  0.3147 -0.4659
 1574TIP3    H2 4729   4.369   5.648   3.986 -0.0510  0.1363 -1.3288
 1575TIP3   OH2 4730   4.571   0.725   5.026 -0.0920 -0.5536  0.3995
 1575TIP3    H1 4731   4.651   0.701   4.980 -0.3625  0.1662 -0.4767
 1575TIP3    H2 4732   4.545   0.809   4.987 -0.4707 -0.0413  1.7017
 1576TIP3   OH2 4733   3.152   5.899   0.742 -0.2776 -0.2238  0.1246
 1576TIP3    H1 4734   3.230   5.948   0.718  2.6496 -3.6428  1.6704
 1576TIP3    H2 4735   3.109   5.879   0.659  0.4731  1.7004 -0.7719
 1577TIP3   OH2 4736   5.809   2.557   4.735 -0.6502 -0.4770 -0.2288
 1577TIP3    H1 4737   5.900   2.531   4.744 -0.2145  0.7127 -1.0129
 1577TIP3    H2 4738   5.787   2.537   4.644 -0.4312  1.4023 -0.7318
 1578TIP3   OH2 4739   3.945   3.868   2.954  0.6049  0.3177 -0.4183
 1578TIP3    H1 4740   3.951   3.772   2.950  0.5082  0.2886  0.0244
 1578TIP3    H2 4741   3.869   3.890   2.899  0.6092  0.1377 -0.4972
 1579TIP3   OH2 4742   4.570   0.204   1.484  0.6310 -0.0318  0.4091
 1579TIP3    H1 4743   4.523   0.241   1.559  0.4995 -1.0610  0.8546
 1579TIP3    H2 4744   4.562   0.109   1.496 -1.6720 -0.2936 -2.3023
 1580TIP3   OH2 4745   5.274   3.514   2.564 -0.1550 -0.3849  0.3820
 1580TIP3    H1 4746   5.201   3.457   2.538 -0.8401 -0.7090  2.7408
 1580TIP3    H2 4747   5.314   3.468   2.638  0.9769  0.9393  0.6204
 1581TIP3   OH2 4748   4.724   1.679   0.375  0.0090 -0.0788  0.1418
 1581TIP3    H1 4749   4.659   1.658   0.309  0.7688  3.0396 -1.8049
 1581TIP3    H2 4750   4.674   1.706   0.451 -0.9554 -0.0675 -0.4860
 1582TIP3   OH2 4751   3.451   3.179   3.123 -0.3427 -0.0006  0.4739
 1582TIP3    H1 4752   3.515   3.122   3.165  0.9270  1.4029  0.5246
 1582TIP3    H2 4753   3.414   3.231   3.195 -2.0900 -1.2520  0.5512
 1583TIP3   OH2 4754   0.683   2.174   4.751 -0.3547 -0.6079 -0.3802
 1583TIP3    H1 4755   0.728   2.201   4.671 -0.0248 -2.1398 -0.7437
 1583TIP3    H2 4756   0.695   2.247   4.811 -3.0411  1.9058 -2.5812
 1584TIP3   OH2 4757   4.738   3.611   2.287  0.2298  0.1339 -0.1433
 1584TIP3    H1 4758   4.644   3.593   2.292  0.0548  1.3780  2.1090
 1584TIP3    H2 4759   4.778   3.546   2.345  0.7126  0.0327 -0.5839
 1585TIP3   OH2 4760   2.043   3.579   0.095  0.3946  0.1675  0.0774
 1585TIP3    H1 4761   1.997   3.648   0.141  1.0934  0.9359 -0.3443
 1585TIP3    H2 4762   1.976   3.535   0.043 -0.1122  0.3013  0.6101
 1586TIP3   OH2 4763   2.448   3.504   2.998  0.7996 -0.2096 -0.0344
 1586TIP3    H1 4764   2.441   3.409   3.012 -0.4733 -0.3321 -1.2980
 1586TIP3    H2 4765   2.406   3.542   3.076  0.6386 -0.7001  0.1274
 1587TIP3   OH2 4766   0.416   5.925   1.967  0.3656  0.4089  0.5708
 1587TIP3    H1 4767   0.420   5.962   2.055  0.6155  0.4069  0.5620
 1587TIP3    H2 4768   0.480   5.854   1.968  1.7585  1.6010 -0.1683
 1588TIP3   OH2 4769   2.718   3.589   1.115  0.4678  0.4008  0.4780
 1588TIP3    H1 4770   2.682   3.604   1.028 -1.1062 -0.6652  0.9059
 1588TIP3    H2 4771   2.783   3.519   1.102  0.2688  0.2768  0.1526
 1589TIP3   OH2 4772   3.142   4.705   2.756  0.0463  0.5483  0.8606
 1589TIP3    H1 4773   3.142   4.622   2.804  0.3485 -0.0471 -0.1405
 1589TIP3    H2 4774   3.208   4.693   2.687 -0.3804  1.3859  0.2879
 1590TIP3   OH2 4775   0.537   1.535   0.862  0.0793  0.4977  0.2271
 1590TIP3    H1 4776   0.456   1.585   0.854  1.6382  3.2105  0.1782
 1590TIP3    H2 4777   0.512   1.445   0.840 -2.4268  1.6212 -2.1127
 1591TIP3   OH2 4778   3.610   4.880   1.850 -0.3926 -0.5929 -0.2103
 1591TIP3    H1 4779   3.562   4.847   1.927  1.1084 -1.4428  0.3923
 1591TIP3    H2 4780   3.568   4.836   1.776 -1.0837 -0.6778  0.2148
 1592TIP3   OH2 4781   0.002   2.574   4.455  0.0933  0.7606 -0.0738
 1592TIP3    H1 4782  -0.023   2.665   4.471  0.7654  0.9455 -0.0234
 1592TIP3    H2 4783   0.084   2.562   4.505 -1.0659 -0.4942  1.6551
 1593TIP3   OH2 4784   3.215   1.653   3.743  0.6021 -0.1528 -0.5445
 1593TIP3    H1 4785   3.255   1.713   3.681 -0.0508 -0.5342 -1.3445
 1593TIP3    H2 4786   3.123   1.650   3.719  0.4924 -0.9418 -0.0792
 1594TIP3   OH2 4787   2.197   1.956   2.293 -0.2934  0.1437 -0.4672
 1594TIP3    H1 4788   2.265   1.977   2.230 -0.3290  0.6981 -0.3297
 1594TIP3    H2 4789   2.152   1.880   2.257  1.4233 -1.2676  0.2286
 1595TIP3   OH2 4790   1.912   1.335   0.938  0.1517  0.4783 -0.6024
 1595TIP3    H1 4791   1.943   1.289   0.860  0.9745 -0.9131  0.5063
 1595TIP3    H2 4792   1.823   1.364   0.915 -0.1266 -1.0516 -1.6070
 1596TIP3   OH2 4793   3.962   1.536   3.524  0.0668 -0.0768 -0.3566
 1596TIP3    H1 4794   3.933   1.459   3.574  0.0817  0.4357  0.4607
 1596TIP3    H2 4795   3.986   1.600   3.591 -0.0730  0.6949 -1.0352
 1597TIP3   OH2 4796   5.469   1.401   4.378 -0.5455  0.2735  0.1328
 1597TIP3    H1 4797   5.564   1.402   4.392 -0.5912 -1.5809  0.9622
 1597TIP3    H2 4798   5.434   1.357   4.456 -2.2638  2.1957  0.5369
 1598TIP3   OH2 4799   1.347   4.339   2.769  0.2339 -0.5185 -0.0628
 1598TIP3    H1 4800   1.363   4.244   2.772  1.1244 -0.3675  2.2218
 1598TIP3    H2 4801   1.300   4.353   2.687 -3.6819 -3.5587  1.3219
 1599TIP3   OH2 4802   5.207   4.433   3.541 -0.6909  0.2379  0.1170
 1599TIP3    H1 4803   5.142   4.390   3.596 -1.1256 -0.0073 -0.5731
 1599TIP3    H2 4804   5.229   4.366   3.475  1.1107 -0.1044  1.0103
 1600TIP3   OH2 4805   1.737   5.874   2.418  0.2243 -0.4920 -0.2456
 1600TIP3    H1 4806   1.763   5.788   2.383 -1.1521 -0.6423 -0.9616
 1600TIP3    H2 4807   1.646   5.863   2.443  0.3420  0.4819  0.6625
 1601TIP3   OH2 4808   1.346   5.820   0.029 -0.1535  0.1379  0.4098
 1601TIP3    H1 4809   1.345   5.727   0.008 -2.0143  0.3040 -0.4239
 1601TIP3    H2 4810   1.380   5.824   0.119  1.1121 -1.2118  0.0288
 1602TIP3   OH2 4811   4.550   2.446   0.588  0.3553 -0.4909 -0.1249
 1602TIP3    H1 4812   4.492   2.370   0.592 -2.2385  1.4156  1.1467
 1602TIP3    H2 4813   4.562   2.472   0.679  1.0188  0.7339 -0.5411
 1603TIP3   OH2 4814   4.751   5.170   3.231 -0.3817  0.0067  0.0094
 1603TIP3    H1 4815   4.754   5.172   3.136 -1.3413 -1.2404 -0.0768
 1603TIP3    H2 4816   4.840   5.147   3.257 -0.1404  0.2520 -0.5880
 1604TIP3   OH2 4817   1.235   4.396   3.025  0.1276  0.0973 -0.8418
 1604TIP3    H1 4818   1.279   4.398   2.941  2.1968 -1.1219  0.1334
 1604TIP3    H2 4819   1.169   4.327   3.016  2.2143 -2.0717 -0.7087
 1605TIP3   OH2 4820   0.497   0.485   4.606 -0.5251  0.5973  0.2298
 1605TIP3    H1 4821   0.570   0.431   4.639  0.5105  1.9340  0.2038
 1605TIP3    H2 4822   0.436   0.422   4.568  1.1619 -0.4883 -0.7985
 1606TIP3   OH2 4823   3.290   5.811   4.776  0.6352 -0.7422 -0.7418
 1606TIP3    H1 4824   3.269   5.900   4.802  0.9323  0.1698 -3.2721
 1606TIP3    H2 4825   3.252   5.802   4.688  0.9867 -2.9577 -0.7371
 1607TIP3   OH2 4826   3.335   3.567   2.646  0.6561  0.1189 -0.2923
 1607TIP3    H1 4827   3.407   3.602   2.593  1.0854 -0.0243  0.1799
 1607TIP3    H2 4828   3.373   3.491   2.690 -1.2558 -3.5823 -4.2514
 1608TIP3   OH2 4829   3.403   1.812   4.704  0.5084  0.4304 -0.5189
 1608TIP3    H1 4830   3.452   1.850   4.631  0.1220  0.0884 -0.9689
 1608TIP3    H2 4831   3.312   1.835   4.686  0.3595 -0.0260 -0.3786
 1609TIP3   OH2 4832   4.131   0.917   1.075  0.1553  0.3495  0.0956
 1609TIP3    H1 4833   4.094   0.843   1.124  0.5739 -0.4020 -0.6952
 1609TIP3    H2 4834   4.147   0.984   1.142  1.4335 -0.9236  1.1339
 1610TIP3   OH2 4835   5.166   3.789   2.974  0.4515 -0.0725 -0.1240
 1610TIP3    H1 4836   5.113   3.722   2.931 -0.1125 -0.1122  0.5993
 1610TIP3    H2 4837   5.105   3.833   3.033  1.6401 -1.5800  2.4111
 1611TIP3   OH2 4838   0.779   3.567   3.803  0.7541 -0.1936  0.2915
 1611TIP3    H1 4839   0.843   3.497   3.795  0.9694  0.0077  0.2189
 1611TIP3    H2 4840   0.722   3.541   3.874  0.5951 -0.6309  0.0071
 1612TIP3   OH2 4841   6.153   5.498   4.655  0.2744 -0.3169  0.1694
 1612TIP3    H1 4842   6.203   5.569   4.613  0.2225 -0.8801 -0.8863
 1612TIP3    H2 4843   6.096   5.543   4.718  1.5478  0.4093  0.8422
 1613TIP3   OH2 4844   6.306   0.994   4.184  0.0576  0.0103  0.0079
 1613TIP3    H1 4845   6.292   0.932   4.112  0.5158  0.6002 -0.6105
 1613TIP3    H2 4846   6.289   0.943   4.263 -0.7656 -0.5701 -0.5231
 1614TIP3   OH2 4847   5.086   2.252   0.118  0.4797  0.3267  0.0231
 1614TIP3    H1 4848   5.176   2.229   0.094  0.4445  0.8838 -0.6860
 1614TIP3    H2 4849   5.046   2.278   0.036 -0.4431 -0.2567  0.2800
 1615TIP3   OH2 4850   3.405   4.591   1.144  0.2070 -0.3748  0.4469
 1615TIP3    H1 4851   3.409   4.686   1.157 -0.6457 -0.1373 -0.7979
 1615TIP3    H2 4852   3.353   4.559   1.217  0.1308  0.1864  0.6454
 1616TIP3   OH2 4853   5.846   4.227   3.293 -0.3571 -0.0290 -0.1850
 1616TIP3    H1 4854   5.760   4.199   3.263 -0.5678 -1.3182  1.5026
 1616TIP3    H2 4855   5.875   4.158   3.353  0.4244  1.9397  1.8413
 1617TIP3   OH2 4856   5.655   4.127   1.830  0.1053  0.0629 -0.1853
 1617TIP3    H1 4857   5.616   4.138   1.917  2.3725  0.2332  0.8857
 1617TIP3    H2 4858   5.607   4.189   1.774  0.1884  1.7514  1.4994
 1618TIP3   OH2 4859   4.131   4.458   1.546  0.3638 -0.2155 -0.6626
 1618TIP3    H1 4860   4.182   4.402   1.604 -1.3659  1.2583  2.5391
 1618TIP3    H2 4861   4.171   4.545   1.556 -0.0229  0.0827 -1.6494
 1619TIP3   OH2 4862   5.761   5.753   1.708 -0.4625  0.3615 -0.2768
 1619TIP3    H1 4863   5.800   5.694   1.772  0.2823  0.8919 -0.2228
 1619TIP3    H2 4864   5.670   5.762   1.736  0.0336  1.1853  1.1750
 1620TIP3   OH2 4865   0.554   2.021   4.939 -0.7638  0.0160 -0.3294
 1620TIP3    H1 4866   0.590   2.083   4.876 -2.0576 -1.4265 -2.6453
 1620TIP3    H2 4867   0.600   1.939   4.921 -0.0625 -0.1018  1.7295
 1621TIP3   OH2 4868   6.281   2.299   2.842 -0.1126  0.1828  0.8732
 1621TIP3    H1 4869   6.206   2.321   2.896 -0.6829 -1.4861  0.8441
 1621TIP3    H2 4870   6.255   2.218   2.797  1.3225  0.1095  0.1047
 1622TIP3   OH2 4871   2.434   2.838   0.680  0.0717  0.5340 -0.4525
 1622TIP3    H1 4872   2.495   2.911   0.667  1.2137  0.0146  1.4631
 1622TIP3    H2 4873   2.351   2.880   0.702  1.0922  1.3888  2.2708
 1623TIP3   OH2 4874   2.759   5.445   1.039 -0.2617  0.2818  0.0599
 1623TIP3    H1 4875   2.837   5.485   1.078 -0.7362  0.5687  0.7275
 1623TIP3    H2 4876   2.786   5.424   0.950  0.3243  1.1551  0.0130
 1624TIP3   OH2 4877   4.281   3.949   1.944 -0.7721 -0.1012 -0.1118
 1624TIP3    H1 4878   4.236   3.974   2.025 -0.1816  1.5746 -0.2737
 1624TIP3    H2 4879   4.269   3.854   1.939 -0.7877 -0.2580  1.9576
 1625TIP3   OH2 4880   1.670   2.817   0.264  0.3096 -0.9383  0.3387
 1625TIP3    H1 4881   1.760   2.820   0.231 -0.3464  0.0674 -1.5167
 1625TIP3    H2 4882   1.666   2.737   0.316  1.9436 -1.6581 -0.5740
 1626TIP3   OH2 4883   1.711   5.433   1.484 -0.1229 -0.2160  0.3773
 1626TIP3    H1 4884   1.628   5.404   1.520 -0.3581 -0.7484 -0.5817
 1626TIP3    H2 4885   1.766   5.354   1.483  0.1202 -0.0460  0.2240
 1627TIP3   OH2 4886   4.426   3.411   2.678  0.1586  0.5516 -0.2599
 1627TIP3    H1 4887   4.367   3.453   2.615 -0.1206  0.5922  0.0265
 1627TIP3    H2 4888   4.454   3.330   2.635 -0.5795  0.2369 -0.1551
 1628TIP3   OH2 4889   0.913   3.831   3.280  0.3988 -0.6082  0.1030
 1628TIP3    H1 4890   0.884   3.897   3.217  0.7407  0.1439  0.7062
 1628TIP3    H2 4891   0.858   3.755   3.263  0.8905 -0.6425 -1.4887
 1629TIP3   OH2 4892   2.000   2.232   3.022  0.0915 -0.0856 -0.2237
 1629TIP3    H1 4893   1.975   2.259   3.110  0.0764  0.9724 -0.5441
 1629TIP3    H2 4894   2.036   2.144   3.033  0.2614  0.1133  0.8712
 1630TIP3   OH2 4895   0.949   3.811   1.884 -0.0236  0.5160 -0.2409
 1630TIP3    H1 4896   0.995   3.734   1.919 -0.3766 -0.0937 -1.0948
 1630TIP3    H2 4897   0.865   3.777   1.854  0.3986  0.9252 -2.0129
 1631TIP3   OH2 4898   5.744   1.000  -0.020 -0.1364 -0.2119  0.3637
 1631TIP3    H1 4899   5.750   1.058   0.055 -0.4799  1.0797 -0.5812
 1631TIP3    H2 4900   5.815   0.937  -0.007 -0.6341 -0.4576  2.1128
 1632TIP3   OH2 4901   3.314   0.768   2.321 -0.3980 -0.2916  0.2054
 1632TIP3    H1 4902   3.406   0.746   2.339  0.8465  1.8383 -2.7481
 1632TIP3    H2 4903   3.286   0.817   2.398  0.3546 -2.3384  1.8787
 1633TIP3   OH2 4904   3.611   2.619   5.129 -0.3873 -0.1248 -0.0969
 1633TIP3    H1 4905   3.689   2.618   5.075 -1.4868 -0.8936 -1.7408
 1633TIP3    H2 4906   3.622   2.545   5.189  0.3754  0.1110  0.0634
 1634TIP3   OH2 4907   1.380   1.006   3.950 -0.6767 -0.1315  0.2278
 1634TIP3    H1 4908   1.401   0.914   3.963  0.9441  0.3250  1.1046
 1634TIP3    H2 4909   1.351   1.036   4.037 -1.0362  0.2266 -0.0123
 1635TIP3   OH2 4910   5.523   5.217   3.839 -0.0436 -0.7159  0.0289
 1635TIP3    H1 4911   5.488   5.193   3.753  0.4356 -0.6160 -0.1971
 1635TIP3    H2 4912   5.604   5.265   3.820 -0.4134  0.1176  0.5016
 1636TIP3   OH2 4913   3.048   5.434   1.291  0.0003 -0.7281 -0.1830
 1636TIP3    H1 4914   3.143   5.440   1.296  0.2246 -3.4383  0.3389
 1636TIP3    H2 4915   3.027   5.460   1.201  1.1638  0.1864 -0.2153
 1637TIP3   OH2 4916   0.585   4.520   0.390 -0.1631 -0.2877 -0.1080
 1637TIP3    H1 4917   0.592   4.477   0.305  1.3437 -0.0666 -0.1178
 1637TIP3    H2 4918   0.491   4.540   0.399 -0.4684 -1.0493 -1.3328
 1638TIP3   OH2 4919   1.381   0.160   0.322 -0.0419  0.7168 -0.2909
 1638TIP3    H1 4920   1.296   0.158   0.367 -0.4730  0.2619 -1.0895
 1638TIP3    H2 4921   1.391   0.252   0.296  0.7003  1.2087  1.5788
 1639TIP3   OH2 4922   2.066   4.188   2.410  0.5939 -0.4950  0.0455
 1639TIP3    H1 4923   2.066   4.095   2.429  0.6351 -0.4156  0.4424
 1639TIP3    H2 4924   2.158   4.209   2.393  0.5593 -0.5622 -0.2341
 1640TIP3   OH2 4925   1.220   3.751   4.351 -0.4508  0.0354 -0.3602
 1640TIP3    H1 4926   1.292   3.691   4.332 -0.1142 -0.5583  2.3473
 1640TIP3    H2 4927   1.252   3.837   4.323  0.5061 -0.5143 -1.0070
 1641TIP3   OH2 4928   2.662   4.835   2.332 -0.0430  0.5779  0.2967
 1641TIP3    H1 4929   2.689   4.810   2.420  1.6560  0.3853 -0.2453
 1641TIP3    H2 4930   2.715   4.912   2.311  1.2359 -0.6871 -1.3676
 1642TIP3   OH2 4931   5.049   5.092   0.290  0.3122 -0.0357  0.0553
 1642TIP3    H1 4932   5.013   5.146   0.360  1.6753  1.1687 -0.1275
 1642TIP3    H2 4933   5.079   5.013   0.334  0.2678  0.2871  0.6822
 1643TIP3   OH2 4934   5.805   2.242   4.149  0.0979 -0.1150  0.2216
 1643TIP3    H1 4935   5.781   2.170   4.090  0.4280 -0.1233  0.0960
 1643TIP3    H2 4936   5.894   2.222   4.176 -0.0298 -0.0743  0.6732
 1644TIP3   OH2 4937   1.278   1.607   3.897  0.5520  0.1572 -0.1994
 1644TIP3    H1 4938   1.269   1.599   3.992  3.4009 -0.5736  0.0979
 1644TIP3    H2 4939   1.188   1.600   3.864 -0.7256  1.9847  2.4766
 1645TIP3   OH2 4940   2.997   3.059   4.113 -0.0504  0.0587 -0.5311
 1645TIP3    H1 4941   3.009   3.108   4.194 -0.4559  0.4817 -0.7138
 1645TIP3    H2 4942   3.059   3.100   4.051  1.3016 -1.2043 -0.0616
 1646TIP3   OH2 4943   1.102   3.601   1.653  0.2533  0.7703  0.2795
 1646TIP3    H1 4944   1.075   3.693   1.647  0.3320  0.8344  0.8654
 1646TIP3    H2 4945   1.197   3.603   1.639 -0.0372  0.5059 -2.1568
 1647TIP3   OH2 4946   1.980   2.918   4.149 -0.3411  0.3281  0.0615
 1647TIP3    H1 4947   2.041   2.852   4.116  2.2253  2.4101  0.3709
 1647TIP3    H2 4948   1.935   2.950   4.071  0.5945  0.3355 -0.4871
 1648TIP3   OH2 4949   1.273   0.617   2.052  0.2267  0.0199 -0.5653
 1648TIP3    H1 4950   1.234   0.696   2.016 -0.4974 -0.0433  0.0476
 1648TIP3    H2 4951   1.212   0.547   2.027  0.2085 -0.1551 -0.0470
 1649TIP3   OH2 4952   5.857   4.878   3.594  0.2596 -0.4318  0.2535
 1649TIP3    H1 4953   5.893   4.838   3.673 -0.0426 -0.6025  0.3039
 1649TIP3    H2 4954   5.896   4.966   3.592  0.4437 -0.5076  0.4686
 1650TIP3   OH2 4955   2.461   1.356   4.919  0.0478  0.1155 -0.8854
 1650TIP3    H1 4956   2.548   1.394   4.914 -1.0753  2.8585 -1.6550
 1650TIP3    H2 4957   2.452   1.325   5.009  1.3277  1.0636 -0.4128
 1651TIP3   OH2 4958   5.895   1.738   3.764 -0.0679  0.2921 -0.4230
 1651TIP3    H1 4959   5.868   1.679   3.834 -1.3167  1.3436  0.0228
 1651TIP3    H2 4960   5.852   1.821   3.784  1.5814  1.3520 -1.0720
 1652TIP3   OH2 4961   5.360   1.989   0.824  0.4316 -0.3693  0.1132
 1652TIP3    H1 4962   5.347   1.998   0.729 -0.0799  2.9751  0.3907
 1652TIP3    H2 4963   5.454   1.998   0.836  0.4302 -0.1907 -0.0111
 1653TIP3   OH2 4964   5.311   3.044   2.729  0.1401  0.0316  0.0376
 1653TIP3    H1 4965   5.357   2.996   2.661  1.6569  0.4770  0.7177
 1653TIP3    H2 4966   5.347   3.010   2.811 -1.9981 -0.8543  0.7036
 1654TIP3   OH2 4967   0.251   4.755   4.921 -0.1873  0.2025  0.0704
 1654TIP3    H1 4968   0.286   4.839   4.891 -0.0446 -0.2529 -1.0792
 1654TIP3    H2 4969   0.299   4.737   5.002  0.4329  0.7941 -0.1565
 1655TIP3   OH2 4970   1.702   1.709   2.578  0.1805 -0.2925  0.1213
 1655TIP3    H1 4971   1.751   1.786   2.608  1.7419 -0.7065 -1.2205
 1655TIP3    H2 4972   1.766   1.638   2.578 -0.7193 -1.1351 -0.5971
 1656TIP3   OH2 4973   3.379   2.809   0.133  0.0265 -0.0180 -0.3889
 1656TIP3    H1 4974   3.464   2.835   0.097  1.0697 -1.0127  1.2317
 1656TIP3    H2 4975   3.336   2.763   0.061  0.8450  0.5016 -1.2328
 1657TIP3   OH2 4976   4.046   3.333   2.456 -0.0161 -0.1563 -0.3621
 1657TIP3    H1 4977   4.001   3.354   2.537 -0.1999  0.0473 -0.5170
 1657TIP3    H2 4978   3.981   3.286   2.404  0.3399 -0.9828 -0.0796
 1658TIP3   OH2 4979   1.408   4.864   2.118 -0.2046  0.0540  0.0983
 1658TIP3    H1 4980   1.484   4.837   2.169  0.5258  0.1973 -0.8926
 1658TIP3    H2 4981   1.434   4.946   2.077 -0.7130 -0.1446 -0.6397
 1659TIP3   OH2 4982   3.309   0.147   1.935  0.2947  0.1818 -0.0151
 1659TIP3    H1 4983   3.282   0.238   1.936 -0.8863 -0.1590  0.0667
 1659TIP3    H2 4984   3.285   0.116   1.848  0.2654 -0.1781  0.1200
 1660TIP3   OH2 4985   2.488   5.052   4.295 -0.0581 -0.1340 -0.0604
 1660TIP3    H1 4986   2.542   5.105   4.354  0.8056 -2.2691  1.1557
 1660TIP3    H2 4987   2.529   5.063   4.209  2.5662 -1.8802  0.8576
 1661TIP3   OH2 4988   4.807   2.310   2.146  0.1815  0.1774 -0.2573
 1661TIP3    H1 4989   4.873   2.240   2.143  0.0031 -0.0234  0.2902
 1661TIP3    H2 4990   4.836   2.373   2.080  1.2013  0.3204  0.2943
 1662TIP3   OH2 4991   5.586   3.433   0.091  0.1907  0.0423  0.5490
 1662TIP3    H1 4992   5.619   3.359   0.142  1.1944  0.9387  1.2479
 1662TIP3    H2 4993   5.572   3.503   0.156  0.2778  0.8025 -0.2289
 1663TIP3   OH2 4994   2.061   2.495   1.504 -0.8642  0.1754  0.0208
 1663TIP3    H1 4995   2.156   2.486   1.498 -0.7419  0.2886  1.4235
 1663TIP3    H2 4996   2.038   2.448   1.584 -1.9572  0.4274 -0.1351
 1664TIP3   OH2 4997   2.605   5.064   4.654 -0.0257  0.4500 -0.1200
 1664TIP3    H1 4998   2.574   5.141   4.701  1.1424  0.6831  0.3052
 1664TIP3    H2 4999   2.699   5.079   4.643 -0.1929  0.2636 -2.2718
 1665TIP3   OH2 5000   5.650   5.882   0.015 -0.5512 -0.1699 -0.2305
 1665TIP3    H1 5001   5.711   5.910   0.083 -2.2312 -2.0440  2.2038
 1665TIP3    H2 5002   5.676   5.793  -0.006 -1.3721 -0.3617 -0.4619
 1666TIP3   OH2 5003   5.527   3.114   1.642 -0.1263 -0.0130  0.1329
 1666TIP3    H1 5004   5.560   3.053   1.708 -1.2983  1.2871  2.0261
 1666TIP3    H2 5005   5.560   3.200   1.670 -0.4979  0.5496 -1.0830
 1667TIP3   OH2 5006   4.702   1.279   4.247  0.7986  0.7907  1.1052
 1667TIP3    H1 5007   4.754   1.358   4.233  0.0597  1.4342  1.8869
 1667TIP3    H2 5008   4.613   1.310   4.264 -0.2342 -0.3663 -1.7025
 1668TIP3   OH2 5009   2.158   5.662   3.378  0.5334 -0.1450 -0.5867
 1668TIP3    H1 5010   2.205   5.726   3.431  0.3815  0.7422 -1.4845
 1668TIP3    H2 5011   2.225   5.621   3.324  0.3690  0.8435 -1.5864
 1669TIP3   OH2 5012   2.297   5.604   1.927  0.2215 -0.1875 -0.1836
 1669TIP3    H1 5013   2.231   5.673   1.929  0.5493  0.1311  1.5139
 1669TIP3    H2 5014   2.353   5.622   2.003  0.1267 -2.4794  0.5139
 1670TIP3   OH2 5015   5.239   2.064   4.453  0.0208 -0.4284  0.2446
 1670TIP3    H1 5016   5.154   2.083   4.414  1.0744  2.8657 -0.7428
 1670TIP3    H2 5017   5.297   2.053   4.378  1.1919  1.3954  0.8253
 1671TIP3   OH2 5018   4.490   3.322   1.775  0.0736  0.0765  0.7273
 1671TIP3    H1 5019   4.564   3.324   1.714 -0.3355  0.0013  0.2159
 1671TIP3    H2 5020   4.528   3.342   1.860  0.4889  1.2045  0.2869
 1672TIP3   OH2 5021   1.321   5.711   3.133 -0.2757 -1.0822  0.0528
 1672TIP3    H1 5022   1.342   5.647   3.064 -1.0105 -0.7336 -0.5034
 1672TIP3    H2 5023   1.361   5.675   3.212 -0.4097 -2.0686 -0.3197
 1673TIP3   OH2 5024   2.579   5.282   4.448  0.7700 -0.1821 -0.0341
 1673TIP3    H1 5025   2.656   5.296   4.503  1.3160 -0.8335 -0.6182
 1673TIP3    H2 5026   2.506   5.320   4.498  1.1538 -1.2191  1.3688
 1674TIP3   OH2 5027   5.624   1.372   1.147  0.3326  0.0183 -0.0298
 1674TIP3    H1 5028   5.599   1.423   1.069  0.7672  2.0141  1.0537
 1674TIP3    H2 5029   5.712   1.403   1.168  1.0428 -1.9949  0.1011
 1675TIP3   OH2 5030   0.816   0.462   4.311 -0.5787 -0.6126  0.9724
 1675TIP3    H1 5031   0.887   0.482   4.373 -1.3356  0.3150  1.5733
 1675TIP3    H2 5032   0.739   0.504   4.349 -1.2557 -0.7951 -0.1612
 1676TIP3   OH2 5033   2.504   3.310   0.746  0.0870 -0.1001  0.1472
 1676TIP3    H1 5034   2.446   3.377   0.783  0.7260  0.1695  0.6926
 1676TIP3    H2 5035   2.534   3.260   0.822 -0.7949 -1.3557 -0.3103
 1677TIP3   OH2 5036   2.607   2.566   1.865  0.2798  0.5942  0.0079
 1677TIP3    H1 5037   2.555   2.645   1.856  1.4374  1.7801  2.6216
 1677TIP3    H2 5038   2.657   2.561   1.783 -1.5672  1.1387 -1.2198
 1678TIP3   OH2 5039   4.417   5.285   4.589 -0.3558  0.5701  0.6349
 1678TIP3    H1 5040   4.489   5.283   4.526 -0.3025 -4.7184  0.3919
 1678TIP3    H2 5041   4.458   5.260   4.672 -1.3463  1.6707  1.4944
 1679TIP3   OH2 5042   3.212   2.247   0.472  0.1721 -0.3635  0.9018
 1679TIP3    H1 5043   3.122   2.228   0.446  0.2360  0.6073 -0.0891
 1679TIP3    H2 5044   3.265   2.183   0.423  0.2403  1.0549 -0.9801
 1680TIP3   OH2 5045   3.620   1.125   0.641 -0.3495  0.4142 -0.0281
 1680TIP3    H1 5046   3.713   1.143   0.624 -0.5920  0.5319 -1.4106
 1680TIP3    H2 5047   3.587   1.206   0.679  0.4353 -0.1729  2.0636
 1681TIP3   OH2 5048   5.600   1.010   4.392 -0.3506  0.1252  0.2620
 1681TIP3    H1 5049   5.644   1.017   4.307 -1.6008  0.8611 -0.3559
 1681TIP3    H2 5050   5.670   1.020   4.456  0.5086  0.4001 -0.6917
 1682TIP3   OH2 5051   6.214   4.668   1.980 -0.2967 -0.4457 -0.2348
 1682TIP3    H1 5052   6.207   4.689   1.887  2.3855  0.9385 -0.2253
 1682TIP3    H2 5053   6.166   4.738   2.024 -1.4162 -1.0024 -0.5554
 1683TIP3   OH2 5054   3.311   2.255   1.617 -0.4728 -0.1920 -0.1926
 1683TIP3    H1 5055   3.340   2.178   1.567  1.7923  1.6272 -1.9080
 1683TIP3    H2 5056   3.340   2.238   1.707  0.7209 -1.0156 -0.7129
 1684TIP3   OH2 5057   4.261   4.298   4.373  0.6228 -0.1256  0.1689
 1684TIP3    H1 5058   4.170   4.274   4.388  0.3533  1.6033  1.5553
 1684TIP3    H2 5059   4.258   4.360   4.301  0.5844  0.5675  0.7543
 1685TIP3   OH2 5060   4.873   0.689   1.591 -0.2659  0.4789  0.0758
 1685TIP3    H1 5061   4.954   0.726   1.628  0.5025  1.3195 -2.2593
 1685TIP3    H2 5062   4.844   0.755   1.528 -2.4818 -0.0955  0.4232
 1686TIP3   OH2 5063   4.694   1.743   5.162  0.4661 -0.6959  0.4537
 1686TIP3    H1 5064   4.741   1.795   5.227  0.0419 -0.4275  0.5533
 1686TIP3    H2 5065   4.762   1.708   5.105  0.8251 -0.7872  0.9356
 1687TIP3   OH2 5066   1.581   4.066   3.227 -0.3543 -0.2390 -0.1055
 1687TIP3    H1 5067   1.571   4.160   3.214  2.0460  0.1679  0.5315
 1687TIP3    H2 5068   1.585   4.030   3.139 -1.4474  0.2076 -0.3570
 1688TIP3   OH2 5069   4.509   4.551   1.527 -0.1249 -0.0121  0.2092
 1688TIP3    H1 5070   4.450   4.573   1.599 -0.4187  1.6489 -0.5021
 1688TIP3    H2 5071   4.596   4.569   1.561 -0.2597  0.7260  0.1764
 1689TIP3   OH2 5072   0.622   2.043   1.784 -0.4294 -0.2722  0.0290
 1689TIP3    H1 5073   0.642   2.074   1.873 -1.3857  2.2590 -0.5549
 1689TIP3    H2 5074   0.593   1.953   1.796  1.6646 -0.7748  1.9940
 1690TIP3   OH2 5075   4.029   2.655   0.096  0.0070  0.0156 -0.3110
 1690TIP3    H1 5076   4.033   2.561   0.077 -0.8716 -0.1678  0.3526
 1690TIP3    H2 5077   4.101   2.669   0.157 -1.4272 -0.7799  1.6793
 1691TIP3   OH2 5078   4.883   3.787   3.902  0.4863  0.0639  0.0878
 1691TIP3    H1 5079   4.924   3.873   3.915 -0.4505  0.2357  2.3135
 1691TIP3    H2 5080   4.956   3.725   3.900  1.1806  0.8489 -1.5684
 1692TIP3   OH2 5081   4.880   4.981   3.076 -0.2881  0.4052  0.6778
 1692TIP3    H1 5082   4.864   5.067   3.040 -1.3330 -0.0089  0.1240
 1692TIP3    H2 5083   4.957   4.992   3.132  0.0959  1.4982 -0.0454
 1693TIP3   OH2 5084   2.203   1.858   3.293 -0.7580 -0.4019  0.1266
 1693TIP3    H1 5085   2.200   1.766   3.321  0.8584  0.1342  2.3492
 1693TIP3    H2 5086   2.276   1.861   3.230  0.0015 -0.4633  0.9792
 1694TIP3   OH2 5087   5.221   5.172   4.053 -0.1515 -0.0972  0.0202
 1694TIP3    H1 5088   5.239   5.233   4.124 -1.1398  0.5263 -0.2502
 1694TIP3    H2 5089   5.308   5.142   4.025  0.2359 -0.6443  1.7180
 1695TIP3   OH2 5090   5.447   5.385   2.392 -0.1610 -0.2659  0.2665
 1695TIP3    H1 5091   5.390   5.396   2.316 -0.6818  0.4560  0.7457
 1695TIP3    H2 5092   5.401   5.321   2.447  0.3455 -0.9892 -0.1404
 1696TIP3   OH2 5093   0.575   3.880   3.035 -0.4787 -0.1232 -0.1268
 1696TIP3    H1 5094   0.562   3.895   3.129  1.3719  0.7657  0.0354
 1696TIP3    H2 5095   0.502   3.926   2.993 -0.0155  1.5889  0.8098
 1697TIP3   OH2 5096   1.282   5.434   4.657 -0.3352 -0.7192 -0.3594
 1697TIP3    H1 5097   1.213   5.498   4.670  0.8874  1.0506 -1.9699
 1697TIP3    H2 5098   1.332   5.434   4.739 -0.1683  0.6616 -0.4473
 1698TIP3   OH2 5099   0.419   2.492   4.014 -0.0545  0.0056  0.0175
 1698TIP3    H1 5100   0.430   2.583   3.986  0.2797 -0.5140 -1.7016
 1698TIP3    H2 5101   0.500   2.472   4.061  0.3020  0.3264 -0.4419
 1699TIP3   OH2 5102   3.785   1.348   4.296  0.0129  0.1630  0.3238
 1699TIP3    H1 5103   3.866   1.366   4.344  0.2409  1.1266 -0.4032
 1699TIP3    H2 5104   3.808   1.362   4.205 -1.0107  0.5365  0.1164
 1700TIP3   OH2 5105   2.023   1.282   2.952  0.9469  0.1551  0.0669
 1700TIP3    H1 5106   2.065   1.363   2.925 -0.5229  0.7828 -0.4678
 1700TIP3    H2 5107   1.978   1.304   3.034 -0.6295  0.3246 -0.7998
 1701TIP3   OH2 5108   4.017   1.375   3.005 -0.1072 -0.0011 -0.0514
 1701TIP3    H1 5109   4.098   1.325   2.993 -0.0531  0.0511  0.0924
 1701TIP3    H2 5110   3.948   1.315   2.978  0.0876  0.5663 -1.9255
 1702TIP3   OH2 5111   0.707   4.227   1.413  0.0338 -0.3771  0.0789
 1702TIP3    H1 5112   0.707   4.323   1.421 -0.3730 -0.3018 -0.7952
 1702TIP3    H2 5113   0.701   4.211   1.319 -0.5980 -1.2714  0.2657
 1703TIP3   OH2 5114   3.640   0.203   1.996 -0.1475 -0.2304 -0.2172
 1703TIP3    H1 5115   3.615   0.155   2.075  0.1048  0.2719  0.1696
 1703TIP3    H2 5116   3.609   0.147   1.924 -0.3289 -0.7175  0.2291
 1704TIP3   OH2 5117   4.431   3.063   3.734  0.3953  0.5911  0.0364
 1704TIP3    H1 5118   4.348   3.087   3.775 -0.4454 -0.4262 -0.9922
 1704TIP3    H2 5119   4.441   3.126   3.662 -1.1398 -1.1415 -1.8264
 1705TIP3   OH2 5120   1.529   3.992   4.788 -0.2713  0.3173  0.5106
 1705TIP3    H1 5121   1.554   4.004   4.696  1.1953  0.6402  0.9154
 1705TIP3    H2 5122   1.611   3.972   4.833 -1.1175 -0.8948  1.6046
 1706TIP3   OH2 5123   0.219   2.945   2.616 -0.1132 -0.0119  0.0311
 1706TIP3    H1 5124   0.314   2.959   2.620  0.4182 -2.1586 -2.7086
 1706TIP3    H2 5125   0.186   3.017   2.561  0.3126 -0.6254 -1.0478
 1707TIP3   OH2 5126   6.188   2.747   4.633  0.1641  0.0621  0.2288
 1707TIP3    H1 5127   6.132   2.777   4.705 -0.7702  0.5558 -0.6715
 1707TIP3    H2 5128   6.273   2.787   4.651 -0.6421  2.0863 -0.1031
 1708TIP3   OH2 5129   1.235   0.906   1.240  0.1360 -0.2115 -0.1635
 1708TIP3    H1 5130   1.300   0.952   1.294  0.5277 -1.0165  0.0782
 1708TIP3    H2 5131   1.285   0.835   1.199 -0.4331 -0.3633 -0.5979
 1709TIP3   OH2 5132   5.306   0.303   3.759  0.3371 -0.1310  0.2298
 1709TIP3    H1 5133   5.345   0.321   3.673 -0.8907 -1.3563 -0.6198
 1709TIP3    H2 5134   5.246   0.376   3.774  0.5471  0.0805  0.0590
 1710TIP3   OH2 5135   4.318   0.044   1.978 -0.2744 -0.4453 -0.1564
 1710TIP3    H1 5136   4.296  -0.048   1.991  1.1058 -0.7249  0.3005
 1710TIP3    H2 5137   4.246   0.092   2.020 -0.0230 -1.3243  1.3345
 1711TIP3   OH2 5138   0.406   2.501   4.861 -0.6392  0.2085  0.1256
 1711TIP3    H1 5139   0.467   2.575   4.864 -0.2175 -0.1611  1.2209
 1711TIP3    H2 5140   0.442   2.442   4.796  0.2501 -0.0569  0.8381
 1712TIP3   OH2 5141   0.914   2.604   2.588  0.2139  0.3269  0.2239
 1712TIP3    H1 5142   0.826   2.620   2.621  0.0561 -0.6460  0.2983
 1712TIP3    H2 5143   0.971   2.658   2.643 -0.2259  0.0870  0.9236
 1713TIP3   OH2 5144   1.866   2.563   3.751  0.3680 -0.2429  0.5758
 1713TIP3    H1 5145   1.863   2.642   3.806 -0.8723  0.0331  0.1534
 1713TIP3    H2 5146   1.939   2.578   3.692 -0.7074  1.2868 -0.4489
 1714TIP3   OH2 5147   2.704   4.819   3.107 -0.2767 -0.0427 -0.1522
 1714TIP3    H1 5148   2.611   4.799   3.120 -0.0842 -0.4522  0.6818
 1714TIP3    H2 5149   2.742   4.739   3.073 -0.1193 -0.0605  0.0656
 1715TIP3   OH2 5150   4.766   2.222   1.342  0.3148  0.0253  0.3960
 1715TIP3    H1 5151   4.778   2.286   1.273  1.2045 -1.3040 -0.7390
 1715TIP3    H2 5152   4.737   2.143   1.297 -0.8428 -0.3762  1.7603
 1716TIP3   OH2 5153   4.009   4.882   2.818  0.1511  0.4383  0.5167
 1716TIP3    H1 5154   4.071   4.954   2.808  0.2114  0.5804  1.7131
 1716TIP3    H2 5155   4.062   4.803   2.806  0.4351  0.5739  0.8450
 1717TIP3   OH2 5156   2.335   3.661   4.074 -0.4128  0.2860  0.0902
 1717TIP3    H1 5157   2.284   3.704   4.005  2.2236  1.4741 -1.2702
 1717TIP3    H2 5158   2.422   3.651   4.036  0.2363 -2.3293  2.0092
 1718TIP3   OH2 5159   1.143   3.257   3.446 -0.4642 -0.0148 -0.0971
 1718TIP3    H1 5160   1.064   3.309   3.432  0.5844  1.0418 -2.6485
 1718TIP3    H2 5161   1.123   3.171   3.409 -0.1921  0.4944 -1.4677
 1719TIP3   OH2 5162   5.096   4.874   5.204  0.7307 -0.9964 -0.3653
 1719TIP3    H1 5163   5.059   4.936   5.140  2.5050  0.7942  0.2379
 1719TIP3    H2 5164   5.190   4.874   5.185  1.1339 -1.3380  1.4798
 1720TIP3   OH2 5165   1.609   4.377   1.832 -0.3885 -0.3962  0.1550
 1720TIP3    H1 5166   1.544   4.445   1.848 -1.6576 -1.6219  0.3943
 1720TIP3    H2 5167   1.576   4.300   1.878  1.1410 -1.1292  0.1181
 1721TIP3   OH2 5168   4.971   3.290   1.827 -0.1179 -1.0465 -0.6045
 1721TIP3    H1 5169   5.066   3.276   1.826  0.0327 -0.1306 -1.7115
 1721TIP3    H2 5170   4.952   3.325   1.914  0.4711 -1.7421 -0.1885
 1722TIP3   OH2 5171   3.393   1.697   4.232  0.1622 -0.4288 -0.3705
 1722TIP3    H1 5172   3.444   1.670   4.308 -0.2913  1.1335  0.5334
 1722TIP3    H2 5173   3.333   1.764   4.265  0.0244  0.3767 -2.1169
 1723TIP3   OH2 5174   1.947   2.553   4.541  0.1562  0.2019 -0.3016
 1723TIP3    H1 5175   1.919   2.479   4.596  0.3313  0.1609 -0.2667
 1723TIP3    H2 5176   1.926   2.631   4.592  1.8250  0.1318  0.5604
 1724TIP3   OH2 5177   3.939   3.399   3.627  0.3978  0.0801 -0.4129
 1724TIP3    H1 5178   3.922   3.430   3.716  2.0854  1.0481 -0.3815
 1724TIP3    H2 5179   3.885   3.320   3.618 -0.9816  0.8270  0.9048
 1725TIP3   OH2 5180   1.520   4.053   4.240 -1.0041  0.4354 -0.3970
 1725TIP3    H1 5181   1.439   4.020   4.202 -1.5323 -0.0202  1.0665
 1725TIP3    H2 5182   1.499   4.140   4.272 -0.3121  1.1982 -1.9056
 1726TIP3   OH2 5183   3.970   0.822   0.790 -0.1379 -0.2472 -0.7252
 1726TIP3    H1 5184   4.005   0.822   0.879 -1.9209  0.0983  0.0308
 1726TIP3    H2 5185   3.929   0.736   0.780  2.1978 -1.2667 -2.1755
 1727TIP3   OH2 5186   0.545   1.854   0.532  0.5586 -0.0203 -0.4320
 1727TIP3    H1 5187   0.549   1.802   0.612  0.9811  0.5512 -0.0757
 1727TIP3    H2 5188   0.621   1.912   0.537  1.8754 -1.4924 -2.3271
 1728TIP3   OH2 5189   0.518   0.427   0.146  0.3024 -0.2556 -0.3969
 1728TIP3    H1 5190   0.596   0.376   0.122  1.4083  1.3627 -0.4401
 1728TIP3    H2 5191   0.537   0.459   0.234 -1.4964 -1.9377  0.6832
 1729TIP3   OH2 5192   2.181   2.783   4.032  0.3323  0.5428  0.1807
 1729TIP3    H1 5193   2.184   2.807   3.939 -0.4657 -0.8924 -0.2495
 1729TIP3    H2 5194   2.251   2.720   4.043 -1.3481 -1.5113 -0.1878
 1730TIP3   OH2 5195   2.688   4.062   3.389 -0.0197 -0.2863  0.4752
 1730TIP3    H1 5196   2.627   3.996   3.423 -1.5105  1.1248  0.6827
 1730TIP3    H2 5197   2.704   4.121   3.463  0.6281  0.0624  0.0742
 1731TIP3   OH2 5198   5.357   4.079   0.668 -0.1986  0.1936 -1.0466
 1731TIP3    H1 5199   5.349   4.169   0.634  0.6935  0.7367  0.1002
 1731TIP3    H2 5200   5.432   4.043   0.622 -0.5639  0.0339 -1.5165
 1732TIP3   OH2 5201   3.604   0.126   2.317  0.2101  0.2503  0.0792
 1732TIP3    H1 5202   3.555   0.124   2.399  0.2578 -1.6348  0.1040
 1732TIP3    H2 5203   3.571   0.051   2.267  0.7114  0.9190 -1.3166
 1733TIP3   OH2 5204   4.425   4.930   0.614 -0.0176  0.3803 -0.0995
 1733TIP3    H1 5205   4.473   4.927   0.697  0.8959  2.5845 -0.5010
 1733TIP3    H2 5206   4.393   4.840   0.603 -0.3195  0.0434  2.6972
 1734TIP3   OH2 5207   5.599   1.675   3.216 -0.1911 -0.0275 -0.3796
 1734TIP3    H1 5208   5.690   1.689   3.191 -0.3274  0.0740 -0.8360
 1734TIP3    H2 5209   5.551   1.746   3.174 -0.5837 -0.5319 -0.7986
 1735TIP3   OH2 5210   3.835   4.852   3.174 -0.9644 -0.2616  0.0581
 1735TIP3    H1 5211   3.824   4.919   3.241 -2.1675 -0.1930 -0.1796
 1735TIP3    H2 5212   3.929   4.835   3.172 -0.3897  2.5571 -0.9892
 1736TIP3   OH2 5213   2.509   2.094   0.208  0.1503  0.7154  0.3566
 1736TIP3    H1 5214   2.534   2.040   0.282  1.3417 -2.6049 -2.2189
 1736TIP3    H2 5215   2.449   2.159   0.245 -1.6971 -2.5427  3.7566
 1737TIP3   OH2 5216   1.062   2.544   3.089  0.3345  0.4765  0.7652
 1737TIP3    H1 5217   1.048   2.452   3.111  0.8205 -0.0697 -1.0744
 1737TIP3    H2 5218   1.052   2.590   3.173  1.6224 -1.4020  2.0476
 1738TIP3   OH2 5219   0.354   5.354   2.196  0.8265  0.0866  0.1439
 1738TIP3    H1 5220   0.339   5.263   2.172 -2.9907  0.7237 -0.5118
 1738TIP3    H2 5221   0.300   5.369   2.273  1.8726  1.6638  0.6366
 1739TIP3   OH2 5222   4.333   4.683   0.574  0.0194 -0.3987  0.4096
 1739TIP3    H1 5223   4.278   4.644   0.642 -0.1991 -1.4019 -0.3108
 1739TIP3    H2 5224   4.312   4.633   0.495  1.0738  0.0104 -0.1478
 1740TIP3   OH2 5225   4.219   3.660   5.099 -0.1660 -0.1202 -0.1251
 1740TIP3    H1 5226   4.143   3.717   5.082  0.7660  2.0641  2.2577
 1740TIP3    H2 5227   4.289   3.697   5.046  0.3707  0.8804  1.2201
 1741TIP3   OH2 5228   6.300   1.436   0.117 -0.4551 -0.1736  0.3332
 1741TIP3    H1 5229   6.249   1.360   0.146 -0.5686 -0.6343 -0.9919
 1741TIP3    H2 5230   6.239   1.486   0.063  0.8389 -1.5831 -2.6751
 1742TIP3   OH2 5231   6.376   2.925   4.354 -0.1451  0.4616 -0.4582
 1742TIP3    H1 5232   6.369   2.960   4.265 -1.0282  0.6187 -0.3408
 1742TIP3    H2 5233   6.293   2.880   4.368  0.4237 -0.5024 -0.0931
 1743TIP3   OH2 5234   6.323   4.404   1.909 -0.0040 -0.2765  0.0383
 1743TIP3    H1 5235   6.413   4.436   1.901  0.4526 -1.5431 -0.1243
 1743TIP3    H2 5236   6.287   4.452   1.983 -0.3518  2.7609 -1.9366
 1744TIP3   OH2 5237   3.673   2.173   2.115 -0.2820 -0.0670  0.2272
 1744TIP3    H1 5238   3.657   2.261   2.150  0.5753 -0.1723  0.9163
 1744TIP3    H2 5239   3.726   2.186   2.037  0.9134 -0.0275  1.0261
 1745TIP3   OH2 5240   5.192   4.280   1.384 -0.3799 -0.1889 -0.1203
 1745TIP3    H1 5241   5.212   4.367   1.418  1.1802 -1.7008  3.3220
 1745TIP3    H2 5242   5.098   4.270   1.394 -0.2338  0.1829  2.1865
 1746TIP3   OH2 5243   4.825   5.884   0.800 -0.5832 -0.8553 -0.0548
 1746TIP3    H1 5244   4.740   5.929   0.807 -0.5478 -0.6368 -0.8346
 1746TIP3    H2 5245   4.835   5.838   0.883 -0.5385  0.7126  0.8267
 1747TIP3   OH2 5246   3.297   5.085   4.195 -0.3183 -0.4351  0.4044
 1747TIP3    H1 5247   3.301   5.049   4.106 -0.3706  2.8755 -1.0876
 1747TIP3    H2 5248   3.370   5.146   4.199  1.5559 -2.5834  3.8176
 1748TIP3   OH2 5249   2.652   0.039   0.105  0.7370  0.1121  0.3057
 1748TIP3    H1 5250   2.729   0.085   0.137  0.3190  0.8695  0.2546
 1748TIP3    H2 5251   2.686  -0.024   0.041  1.3320  0.2326  0.4990
 1749TIP3   OH2 5252   5.400   5.695   2.615  0.0781 -0.0684 -0.2537
 1749TIP3    H1 5253   5.397   5.692   2.711 -1.0595 -1.8579 -0.3112
 1749TIP3    H2 5254   5.492   5.713   2.596  0.0707  1.8870  1.1478
 1750TIP3   OH2 5255   2.280   2.313   1.477 -0.0741  0.0732 -0.2935
 1750TIP3    H1 5256   2.353   2.331   1.536  1.1060 -0.0940 -1.6307
 1750TIP3    H2 5257   2.231   2.242   1.519 -0.3715  1.2068  1.3529
 1751TIP3   OH2 5258   5.635   5.524   3.269  0.2107  0.3675  0.7263
 1751TIP3    H1 5259   5.719   5.528   3.224  0.1895 -0.6403  0.5928
 1751TIP3    H2 5260   5.594   5.444   3.238 -0.0325 -0.0914  2.1486
 1752TIP3   OH2 5261   0.118   2.658   3.414  0.0566  0.4629 -0.2051
 1752TIP3    H1 5262   0.206   2.684   3.386 -0.0792  1.7288  0.4940
 1752TIP3    H2 5263   0.086   2.603   3.342  1.8130 -0.9514  0.0178
 1753TIP3   OH2 5264   2.320   4.132   2.337 -0.4891  0.2610 -0.2827
 1753TIP3    H1 5265   2.350   4.042   2.353 -0.6478  0.2618  0.0308
 1753TIP3    H2 5266   2.396   4.186   2.356 -0.8252  0.3028  1.0241
 1754TIP3   OH2 5267   5.492   4.606   0.999  0.4612 -0.0821  0.1498
 1754TIP3    H1 5268   5.457   4.597   1.088  0.9556 -2.3958  0.1793
 1754TIP3    H2 5269   5.414   4.608   0.943  0.0581  3.0225  0.6279
 1755TIP3   OH2 5270   1.914   2.025   2.117  0.0099  0.4842  0.0084
 1755TIP3    H1 5271   1.979   2.019   2.047 -0.4897  0.3977 -0.4583
 1755TIP3    H2 5272   1.870   1.940   2.116  0.1902  0.3747  0.6289
 1756TIP3   OH2 5273   0.549   5.083   3.267 -0.0952  0.0827  0.0409
 1756TIP3    H1 5274   0.460   5.059   3.240  0.2918 -2.5936  0.8984
 1756TIP3    H2 5275   0.605   5.023   3.218  1.3231  1.8701 -0.6375
 1757TIP3   OH2 5276   3.262   0.432   1.853  0.1156 -0.3477  0.0381
 1757TIP3    H1 5277   3.292   0.505   1.906 -1.5583  1.0264 -0.7864
 1757TIP3    H2 5278   3.256   0.467   1.764 -0.7272 -1.4722 -0.3784
 1758TIP3   OH2 5279   4.787   3.606   1.834  0.2655 -0.6170 -0.0219
 1758TIP3    H1 5280   4.817   3.593   1.744  1.3223  2.0750 -0.1750
 1758TIP3    H2 5281   4.750   3.695   1.834  2.6921  0.5974  2.6875
 1759TIP3   OH2 5282   2.265   3.329   0.541 -0.2327  0.1512  0.5253
 1759TIP3    H1 5283   2.314   3.388   0.483 -1.1115  0.2857 -0.0840
 1759TIP3    H2 5284   2.313   3.333   0.624 -0.7394  2.4099  0.7705
 1760TIP3   OH2 5285   4.063   2.320   3.993 -0.5003 -0.0390 -1.0823
 1760TIP3    H1 5286   4.047   2.239   4.042  1.9403 -0.3829 -0.7608
 1760TIP3    H2 5287   4.068   2.293   3.902  0.6183 -0.3380 -0.9475
 1761TIP3   OH2 5288   6.139   2.197   1.918 -0.2623  0.1483 -0.4870
 1761TIP3    H1 5289   6.052   2.167   1.891  1.0083 -2.0544 -2.5355
 1761TIP3    H2 5290   6.176   2.238   1.840  0.3005  1.8024  0.5957
 1762TIP3   OH2 5291   4.402   2.981   1.438 -0.3551  0.3674 -1.0653
 1762TIP3    H1 5292   4.311   2.950   1.444 -1.0588  2.4477  0.0131
 1762TIP3    H2 5293   4.405   3.027   1.354  0.8740 -2.8636 -2.9944
 1763TIP3   OH2 5294   6.101   4.898   0.110 -0.0678 -0.6417 -0.0492
 1763TIP3    H1 5295   6.063   4.813   0.089 -0.8459 -0.4427  0.4693
 1763TIP3    H2 5296   6.032   4.943   0.159 -0.3315  0.9336 -1.7331
 1764TIP3   OH2 5297   4.269   1.570   0.348  0.2965  0.4516 -0.4310
 1764TIP3    H1 5298   4.208   1.509   0.389  0.4523  0.5470 -0.0520
 1764TIP3    H2 5299   4.227   1.594   0.265 -0.3466  0.7899 -0.0116
 1765TIP3   OH2 5300   2.689   2.122   1.843 -0.2437  0.4444 -0.6219
 1765TIP3    H1 5301   2.724   2.198   1.890  1.1177 -0.5017 -0.0273
 1765TIP3    H2 5302   2.657   2.064   1.912 -0.8825  0.2843 -1.0455
 1766TIP3   OH2 5303   1.302   5.240   5.190  0.2549  0.2375  0.4805
 1766TIP3    H1 5304   1.239   5.169   5.196  0.4552  0.0830  0.7954
 1766TIP3    H2 5305   1.266   5.299   5.124 -0.1675  0.1012  0.5873
 1767TIP3   OH2 5306   0.988   4.380   4.393  0.3115 -0.3374  0.2250
 1767TIP3    H1 5307   0.908   4.359   4.442 -0.1452  1.3495  0.2805
 1767TIP3    H2 5308   1.041   4.429   4.456  0.3643  0.5570 -0.5042
 1768TIP3   OH2 5309   0.252   5.767   3.524  0.3386 -0.2063 -0.6091
 1768TIP3    H1 5310   0.273   5.860   3.515  0.7028 -0.1765  0.4306
 1768TIP3    H2 5311   0.244   5.736   3.434  4.4127 -0.1148 -1.1563
 1769TIP3   OH2 5312   0.501   1.149   0.289  0.3647 -0.2023  0.3312
 1769TIP3    H1 5313   0.475   1.060   0.266 -0.3736 -0.3906  1.7622
 1769TIP3    H2 5314   0.538   1.185   0.209  0.2738 -1.6503 -0.3878
 1770TIP3   OH2 5315   5.179   0.131   3.911 -0.1961 -0.6155 -0.3361
 1770TIP3    H1 5316   5.237   0.193   3.866  0.9463 -0.1509  1.6617
 1770TIP3    H2 5317   5.101   0.127   3.856  0.0773  1.8745 -1.0289
 1771TIP3   OH2 5318   3.653   2.975   2.433  0.0374 -0.4687  0.3360
 1771TIP3    H1 5319   3.576   2.981   2.376  0.5704 -2.9108 -0.7610
 1771TIP3    H2 5320   3.698   3.059   2.420 -1.8791  0.6168  0.2426
 1772TIP3   OH2 5321   2.151   0.388   0.161 -0.4662  0.4661  0.3537
 1772TIP3    H1 5322   2.167   0.375   0.067 -0.9618  2.2626 -0.0159
 1772TIP3    H2 5323   2.237   0.409   0.198 -0.5341  1.5145 -0.0462
 1773TIP3   OH2 5324   4.055   4.174   4.021 -0.2390 -0.4138  0.2632
 1773TIP3    H1 5325   3.993   4.172   3.947 -0.4703  1.1002  0.4024
 1773TIP3    H2 5326   4.024   4.104   4.079 -1.6621  0.1329  0.1980
 1774TIP3   OH2 5327   1.630   1.751   4.153  0.4180 -0.2319  0.3101
 1774TIP3    H1 5328   1.664   1.830   4.195  1.5753 -0.2102 -0.6159
 1774TIP3    H2 5329   1.643   1.682   4.218  1.9341 -0.1470  0.1268
 1775TIP3   OH2 5330   0.899   2.488   4.285 -0.4681 -0.2005  0.2904
 1775TIP3    H1 5331   0.895   2.577   4.248 -0.6428 -0.0171  0.7359
 1775TIP3    H2 5332   0.972   2.491   4.347  0.3501 -0.7417 -0.6355
 1776TIP3   OH2 5333   0.576   4.916   2.649 -0.0058  0.1391  0.3105
 1776TIP3    H1 5334   0.503   4.892   2.706  1.0728 -3.9302  0.2397
 1776TIP3    H2 5335   0.630   4.975   2.703 -1.8999  1.0554  1.3001
 1777TIP3   OH2 5336   0.390   0.364   1.665 -0.1215  0.4281  0.1134
 1777TIP3    H1 5337   0.452   0.427   1.701  0.1617 -0.0804  0.5272
 1777TIP3    H2 5338   0.445   0.297   1.624 -0.4037  0.1731  0.1507
 1778TIP3   OH2 5339   3.095   0.694   1.891 -0.0109 -0.3817  0.6319
 1778TIP3    H1 5340   3.070   0.606   1.864 -1.0417  0.1143 -0.0955
 1778TIP3    H2 5341   3.060   0.702   1.980 -1.3597 -0.1723  0.1195
 1779TIP3   OH2 5342   3.689   0.828   4.877  0.4078  0.1715  0.0478
 1779TIP3    H1 5343   3.610   0.832   4.823  1.1339  0.2794 -1.0253
 1779TIP3    H2 5344   3.677   0.750   4.932  0.4282 -0.9442 -1.4863
 1780TIP3   OH2 5345   1.577   0.044   0.175  0.3867 -0.2886 -0.2955
 1780TIP3    H1 5346   1.498   0.078   0.216  0.0897 -0.5509 -0.6415
 1780TIP3    H2 5347   1.638   0.028   0.247  1.2095  2.6158 -0.2181
 1781TIP3   OH2 5348   5.878   1.755   1.921  0.3460 -0.7070  0.4924
 1781TIP3    H1 5349   5.869   1.832   1.978  0.6545 -1.4514  1.5696
 1781TIP3    H2 5350   5.893   1.682   1.981  1.8964 -1.3349 -0.6016
 1782TIP3   OH2 5351   1.832   2.731   0.660 -0.2395  0.7171 -0.0600
 1782TIP3    H1 5352   1.912   2.766   0.622  0.6262 -1.2970 -0.2543
 1782TIP3    H2 5353   1.777   2.708   0.585 -1.0269  2.0876  0.0723
 1783TIP3   OH2 5354   5.098   1.640   2.828 -0.1490 -0.4256  0.2987
 1783TIP3    H1 5355   5.110   1.558   2.875  2.7968 -1.0250 -1.2467
 1783TIP3    H2 5356   5.088   1.706   2.897  0.7154 -1.6713  1.6793
 1784TIP3   OH2 5357   0.609   1.391   4.903  0.2045  0.2523  0.7252
 1784TIP3    H1 5358   0.644   1.302   4.916  0.6410  0.3652  0.3121
 1784TIP3    H2 5359   0.526   1.390   4.951  0.3683 -0.2750  1.0119
 1785TIP3   OH2 5360   4.748   0.122   1.127  0.0181 -0.0167  0.0133
 1785TIP3    H1 5361   4.690   0.065   1.178 -0.3965 -0.0173 -0.4557
 1785TIP3    H2 5362   4.737   0.092   1.036  2.0488 -1.1911  0.0792
 1786TIP3   OH2 5363   2.199   2.951   2.594  0.1610 -0.2799  0.6267
 1786TIP3    H1 5364   2.212   2.999   2.513  0.8256 -0.7404  0.4562
 1786TIP3    H2 5365   2.108   2.969   2.618  0.5897  1.6676  0.9661
 1787TIP3   OH2 5366   5.244   0.787   2.991 -0.2301 -0.6445  0.4383
 1787TIP3    H1 5367   5.321   0.745   3.029  1.5637  2.8912  1.2138
 1787TIP3    H2 5368   5.171   0.759   3.046  0.4241 -3.9549 -0.1981
 1788TIP3   OH2 5369  -0.023   4.062   3.675 -0.1206  0.6258  0.7422
 1788TIP3    H1 5370   0.057   4.010   3.667  0.0234  0.5794  2.2683
 1788TIP3    H2 5371  -0.026   4.088   3.767 -0.9509  2.1028  0.3326
 1789TIP3   OH2 5372   4.878   4.923   3.777 -0.6657  0.0316 -0.3929
 1789TIP3    H1 5373   4.857   4.830   3.778  1.1179 -0.4913 -2.3991
 1789TIP3    H2 5374   4.912   4.938   3.689  0.0552  2.3648  0.2200
 1790TIP3   OH2 5375   4.580   5.453   0.756  0.6861  0.5330 -0.0230
 1790TIP3    H1 5376   4.501   5.408   0.727  0.0114  1.0558  0.9744
 1790TIP3    H2 5377   4.565   5.545   0.733 -0.1293  1.0733  2.4152
 1791TIP3   OH2 5378   3.311   5.798   3.295 -0.0855  0.2857 -0.1825
 1791TIP3    H1 5379   3.273   5.816   3.380  0.4064  0.6941 -0.0453
 1791TIP3    H2 5380   3.402   5.828   3.302 -0.0150  0.2363 -0.8166
 1792TIP3   OH2 5381   4.616   0.289   2.683  0.6159  0.1301  0.1699
 1792TIP3    H1 5382   4.627   0.282   2.588  1.4085  3.4168 -0.0831
 1792TIP3    H2 5383   4.675   0.222   2.719  1.3162 -0.2672 -1.6065
 1793TIP3   OH2 5384   4.183   5.279   2.319  0.1137  0.7478  0.7145
 1793TIP3    H1 5385   4.268   5.296   2.280  1.0578  0.5169  2.5724
 1793TIP3    H2 5386   4.121   5.326   2.263  1.3237  0.1845 -1.1989
 1794TIP3   OH2 5387   0.287   4.169   1.334 -0.5223  0.1648 -0.0793
 1794TIP3    H1 5388   0.372   4.187   1.376  0.5737 -0.7135 -1.7916
 1794TIP3    H2 5389   0.275   4.242   1.274 -0.9919  0.2744  0.1449
 1795TIP3   OH2 5390   6.393   4.453   0.477  0.0015 -0.2768  0.4751
 1795TIP3    H1 5391   6.331   4.380   0.481 -1.0988  0.6843  1.8483
 1795TIP3    H2 5392   6.339   4.527   0.448  0.6241  0.4679  1.2025
 1796TIP3   OH2 5393   4.035   3.085   4.174 -0.1666 -0.9924  1.0617
 1796TIP3    H1 5394   4.024   2.992   4.157 -1.1044 -0.9108  1.1538
 1796TIP3    H2 5395   3.947   3.116   4.197 -0.2502  0.2743 -0.7315
 1797TIP3   OH2 5396   4.054   1.816   1.597  0.1963 -0.1229  0.2298
 1797TIP3    H1 5397   4.090   1.730   1.574 -0.9870 -0.8544  1.0124
 1797TIP3    H2 5398   4.035   1.810   1.690 -0.5686  0.7464  0.1418
 1798TIP3   OH2 5399   1.367   2.324   1.540 -0.0039  0.4497 -0.4672
 1798TIP3    H1 5400   1.434   2.303   1.474 -1.6110 -1.0977 -1.7149
 1798TIP3    H2 5401   1.325   2.403   1.506 -1.4310 -0.8458 -1.8892
 1799TIP3   OH2 5402   4.891   5.449   1.085 -0.0381 -0.2066  0.0855
 1799TIP3    H1 5403   4.909   5.361   1.052 -0.1866 -0.7809  1.4608
 1799TIP3    H2 5404   4.956   5.463   1.155  0.7565  1.2608 -0.8944
 1800TIP3   OH2 5405   4.181   2.487   1.190 -0.4000 -0.6416  0.7492
 1800TIP3    H1 5406   4.263   2.437   1.189  0.2824  0.3671  2.3595
 1800TIP3    H2 5407   4.127   2.444   1.256 -0.6158 -0.4829  0.6750
 1801TIP3   OH2 5408   3.151   1.134   1.517  0.1122 -0.0131 -0.4414
 1801TIP3    H1 5409   3.208   1.207   1.540 -0.2331  0.6177 -1.5489
 1801TIP3    H2 5410   3.169   1.068   1.584  0.4742  1.0505  0.5310
 1802TIP3   OH2 5411   2.851   0.672   4.619 -0.0925  1.0445 -0.1921
 1802TIP3    H1 5412   2.779   0.707   4.567  0.9009  0.9439 -1.7143
 1802TIP3    H2 5413   2.916   0.644   4.554  0.7169 -0.1848  1.0874
 1803TIP3   OH2 5414   6.044   5.537   3.443 -0.1024  0.0685 -0.1237
 1803TIP3    H1 5415   5.991   5.465   3.410 -0.1153 -0.0234  0.0947
 1803TIP3    H2 5416   5.981   5.602   3.473 -0.1200 -0.5370  1.2401
 1804TIP3   OH2 5417   5.479   0.250   1.518  0.3124  0.1959  0.1867
 1804TIP3    H1 5418   5.558   0.285   1.477 -0.5611 -0.1645 -1.9313
 1804TIP3    H2 5419   5.431   0.208   1.446 -0.9951 -1.0938  1.7266
 1805TIP3   OH2 5420   5.856   3.221   2.123  0.2848 -0.1518 -0.4463
 1805TIP3    H1 5421   5.824   3.155   2.062  0.1223  1.3292 -2.0294
 1805TIP3    H2 5422   5.844   3.181   2.209 -1.2305 -1.5839 -1.2519
 1806TIP3   OH2 5423   6.053   2.377   2.982 -0.6408 -0.6176  0.0887
 1806TIP3    H1 5424   6.012   2.313   2.923  0.4354 -0.6385 -0.6771
 1806TIP3    H2 5425   5.981   2.411   3.034 -1.4500 -1.4665 -0.4323
 1807TIP3   OH2 5426   1.595   3.079   3.311 -0.2561  0.2844  0.4592
 1807TIP3    H1 5427   1.525   3.129   3.270 -0.5353 -1.1589 -0.9486
 1807TIP3    H2 5428   1.567   2.987   3.303  2.0984 -0.4025 -0.8811
 1808TIP3   OH2 5429   2.404   3.996   3.205 -0.1450  0.6394  0.3059
 1808TIP3    H1 5430   2.377   4.001   3.297  0.5908  1.3010  0.4975
 1808TIP3    H2 5431   2.422   4.087   3.180  3.2380  0.1768  0.6347
 1809TIP3   OH2 5432   2.460   2.910   4.042 -0.1390 -0.0952  0.2083
 1809TIP3    H1 5433   2.527   2.883   3.979 -1.1348  0.4173 -1.1191
 1809TIP3    H2 5434   2.397   2.838   4.043 -1.9449  1.3005 -2.1043
 1810TIP3   OH2 5435   5.390   2.018   0.117  0.7202  0.2249  0.3904
 1810TIP3    H1 5436   5.365   1.963   0.191 -2.3582  0.2041 -0.5145
 1810TIP3    H2 5437   5.436   1.959   0.058 -2.1226 -1.4431 -0.3566
 1811TIP3   OH2 5438   2.160   0.901   1.313 -0.2546 -0.0695  0.7739
 1811TIP3    H1 5439   2.100   0.942   1.251  0.5497  0.7816  0.5449
 1811TIP3    H2 5440   2.247   0.929   1.285  0.3029 -1.7341  0.7702
 1812TIP3   OH2 5441   3.618   2.755   4.595 -0.4254  0.2556  0.0340
 1812TIP3    H1 5442   3.663   2.684   4.639  1.4188  0.5927 -1.2231
 1812TIP3    H2 5443   3.604   2.724   4.506 -0.2060  1.1971 -0.3447
 1813TIP3   OH2 5444   4.307   3.926   0.589 -0.6760  0.5978  0.5242
 1813TIP3    H1 5445   4.351   3.901   0.507  0.3817 -1.0231  1.5057
 1813TIP3    H2 5446   4.229   3.870   0.592 -1.9310  2.2265 -0.3788
 1814TIP3   OH2 5447   4.312   3.410   5.087 -0.4367 -0.1346 -0.0215
 1814TIP3    H1 5448   4.399   3.399   5.048 -0.3562 -0.4218  0.2327
 1814TIP3    H2 5449   4.282   3.496   5.057 -0.4673 -0.4440 -0.9007
 1815TIP3   OH2 5450   3.529   5.330   4.676  1.1629  0.1848  0.1786
 1815TIP3    H1 5451   3.453   5.387   4.687  0.2972 -0.9785  0.4527
 1815TIP3    H2 5452   3.590   5.356   4.744 -0.1859 -0.7060  1.7966
 1816TIP3   OH2 5453   0.999   5.364   4.392 -0.0615 -0.2621  0.8300
 1816TIP3    H1 5454   0.965   5.445   4.353 -0.5538 -0.9035 -0.1050
 1816TIP3    H2 5455   1.093   5.367   4.374 -0.0350  0.2114  1.0179
 1817TIP3   OH2 5456   4.457   0.238   0.612 -0.1540  0.1796 -0.5178
 1817TIP3    H1 5457   4.523   0.188   0.564 -0.8651  0.7107 -2.1360
 1817TIP3    H2 5458   4.375   0.192   0.592 -0.4250  0.2243  0.4830
 1818TIP3   OH2 5459   3.071   1.005   3.323 -0.1130  0.2270 -0.0313
 1818TIP3    H1 5460   3.143   0.967   3.272  0.5539 -1.2066  1.8530
 1818TIP3    H2 5461   3.110   1.079   3.369 -0.2880  0.4940 -0.3089
 1819TIP3   OH2 5462   0.744   3.699   0.785  0.1068 -0.1547  0.2366
 1819TIP3    H1 5463   0.752   3.685   0.879  0.5576 -0.6196  0.1322
 1819TIP3    H2 5464   0.653   3.728   0.773  0.1719  0.3279  0.8590
 1820TIP3   OH2 5465   4.059   0.219   1.559  0.3377 -0.3416 -0.6359
 1820TIP3    H1 5466   4.141   0.171   1.562  0.4280 -0.1671 -0.1736
 1820TIP3    H2 5467   4.000   0.163   1.509  0.6993 -0.5234 -0.8644
 1821TIP3   OH2 5468   4.223   1.185   0.622 -0.4236 -0.2216  0.3606
 1821TIP3    H1 5469   4.176   1.147   0.696 -0.5533  0.5286  0.6707
 1821TIP3    H2 5470   4.251   1.271   0.653  0.1407 -0.1906 -0.2210
 1822TIP3   OH2 5471   0.669   1.296   3.837 -0.3668 -0.3942 -0.3700
 1822TIP3    H1 5472   0.687   1.280   3.744  0.8705 -2.1761  0.1094
 1822TIP3    H2 5473   0.661   1.391   3.844 -3.4722 -0.3196 -2.7762
 1823TIP3   OH2 5474   2.805   0.443   4.022 -0.3010  0.1447 -0.1201
 1823TIP3    H1 5475   2.852   0.473   3.945 -0.8483  0.2324 -0.4231
 1823TIP3    H2 5476   2.719   0.417   3.989 -0.6425  0.4646  0.5065
 1824TIP3   OH2 5477   2.969   3.297   2.327 -0.7586  0.1582 -0.9412
 1824TIP3    H1 5478   3.049   3.348   2.312 -0.9223  0.3463 -1.1911
 1824TIP3    H2 5479   2.903   3.362   2.349 -0.3081 -0.1753  1.6683
 1825TIP3   OH2 5480   5.728   2.214   2.968  0.0011 -0.2293  0.4006
 1825TIP3    H1 5481   5.650   2.178   3.010 -0.9120  0.6031 -0.5281
 1825TIP3    H2 5482   5.712   2.308   2.962  1.3173  0.0417  0.6726
 1826TIP3   OH2 5483   2.481   0.707   0.360 -0.0592 -0.0522  0.5041
 1826TIP3    H1 5484   2.425   0.748   0.426  2.7057  2.6216  1.4636
 1826TIP3    H2 5485   2.457   0.749   0.278 -1.0575 -0.7340  0.4295
 1827TIP3   OH2 5486   3.501   1.261   3.844  0.6109  0.0641 -0.6859
 1827TIP3    H1 5487   3.483   1.180   3.795 -0.3525 -0.2513  0.1479
 1827TIP3    H2 5488   3.505   1.233   3.936 -2.9678  1.3535  0.0172
 1828TIP3   OH2 5489   1.888   0.230   3.922  0.1621  0.1227 -0.2064
 1828TIP3    H1 5490   1.858   0.216   4.012  1.4483  0.2137  0.2446
 1828TIP3    H2 5491   1.858   0.318   3.900 -1.5195 -0.4701 -0.4466
 1829TIP3   OH2 5492   3.589   0.501   2.548 -0.3037  0.2703 -0.5317
 1829TIP3    H1 5493   3.567   0.573   2.607 -0.4586 -0.4845  0.3459
 1829TIP3    H2 5494   3.519   0.437   2.561 -0.8767  0.4986 -2.2572
 1830TIP3   OH2 5495   3.597   0.615   4.022  0.2936  0.1883 -0.2089
 1830TIP3    H1 5496   3.596   0.603   3.928 -0.3459  0.0387 -0.1856
 1830TIP3    H2 5497   3.642   0.698   4.035  0.1627  0.3309 -0.6575
 1831TIP3   OH2 5498   2.112   0.250   0.750  0.3920  0.1142  0.1417
 1831TIP3    H1 5499   2.104   0.229   0.843 -1.3032  1.0946  0.2653
 1831TIP3    H2 5500   2.205   0.235   0.730  0.7548 -0.3113  1.9225
 1832TIP3   OH2 5501   2.443   5.640   2.140 -0.7578  0.2422  0.0347
 1832TIP3    H1 5502   2.449   5.725   2.183 -0.2910  0.2690 -0.0748
 1832TIP3    H2 5503   2.515   5.588   2.178  0.4527  0.6621 -1.5581
 1833TIP3   OH2 5504   3.726   2.421   3.417 -0.3470  0.5366  0.8747
 1833TIP3    H1 5505   3.711   2.498   3.363 -0.3216  0.2043  0.3848
 1833TIP3    H2 5506   3.747   2.455   3.504 -2.6515  1.0677  1.2951
 1834TIP3   OH2 5507   4.793   3.055   2.808  0.5739  0.3179 -0.0124
 1834TIP3    H1 5508   4.791   3.057   2.712 -0.0305  0.3352 -0.0053
 1834TIP3    H2 5509   4.882   3.028   2.829  0.6161 -0.0246 -0.5890
 1835TIP3   OH2 5510   1.249   2.867   3.047 -0.5504  0.2931 -0.3703
 1835TIP3    H1 5511   1.157   2.846   3.062 -0.3523 -0.5336 -0.3123
 1835TIP3    H2 5512   1.284   2.792   3.000  0.0165  0.7556 -0.7073
 1836TIP3   OH2 5513   3.553   0.369   4.467  0.0176 -0.4647  0.6966
 1836TIP3    H1 5514   3.511   0.417   4.397  0.5838 -0.2591  0.4962
 1836TIP3    H2 5515   3.589   0.291   4.425  1.1577  0.1063  0.5707
 1837TIP3   OH2 5516   2.491   5.559   4.299  0.0829  0.0389  0.0200
 1837TIP3    H1 5517   2.497   5.490   4.366  0.4099 -0.0217 -0.0744
 1837TIP3    H2 5518   2.457   5.514   4.222 -1.4595  0.3421  0.4909
 1838TIP3   OH2 5519   2.778   4.399   0.942 -0.0524 -0.0034  0.3887
 1838TIP3    H1 5520   2.850   4.382   1.002  0.5376  0.1177 -0.2665
 1838TIP3    H2 5521   2.710   4.439   0.996 -0.0367 -1.0445  1.2216
 1839TIP3   OH2 5522   1.407   4.146   4.965  0.7051 -0.0427 -0.0414
 1839TIP3    H1 5523   1.462   4.129   5.042  1.1581  0.4924 -0.2399
 1839TIP3    H2 5524   1.439   4.083   4.900 -0.5008 -1.3521  0.5746
 1840TIP3   OH2 5525   1.783   0.029   1.073 -0.0324 -0.4871 -0.4234
 1840TIP3    H1 5526   1.786  -0.041   1.006  2.9387  2.7044 -4.1431
 1840TIP3    H2 5527   1.862   0.014   1.125  1.2506  0.5345 -1.9597
 1841TIP3   OH2 5528   3.033   2.296   3.378  0.1706 -0.0266 -0.3356
 1841TIP3    H1 5529   2.982   2.376   3.388 -0.6270 -0.5943  0.3397
 1841TIP3    H2 5530   3.103   2.304   3.442  0.8768  0.7024 -1.1790
 1842TIP3   OH2 5531   0.339   2.532   3.709  0.0975 -0.5165 -0.2333
 1842TIP3    H1 5532   0.402   2.494   3.770  0.1761 -0.5511 -0.3341
 1842TIP3    H2 5533   0.273   2.573   3.764 -0.1212 -1.0152 -0.1184
 1843TIP3   OH2 5534   1.842   1.750   2.311 -0.3374 -0.4417 -0.0772
 1843TIP3    H1 5535   1.796   1.742   2.395  0.6702 -0.6954  0.4577
 1843TIP3    H2 5536   1.799   1.825   2.268 -0.3364  0.1939  1.0039
 1844TIP3   OH2 5537   4.921   2.011   4.699  0.0074 -0.4512  0.3596
 1844TIP3    H1 5538   4.918   2.103   4.673 -0.3219 -1.3733 -3.3381
 1844TIP3    H2 5539   4.849   1.970   4.652  0.7788 -2.7994  1.0763
 1845TIP3   OH2 5540   5.212   4.171   3.125 -0.2476  0.0801  0.3345
 1845TIP3    H1 5541   5.213   4.179   3.220  0.1768 -0.8403  0.4256
 1845TIP3    H2 5542   5.268   4.095   3.107 -0.5303  0.0832 -0.6273
 1846TIP3   OH2 5543   0.155   3.870   1.189  0.1322  0.1161 -0.2801
 1846TIP3    H1 5544   0.156   3.804   1.119  1.3021 -0.4940  0.2935
 1846TIP3    H2 5545   0.164   3.953   1.142  0.7504 -0.2735 -0.8803
 1847TIP3   OH2 5546   1.108   1.356   4.459 -0.3123  0.2273 -0.1464
 1847TIP3    H1 5547   1.088   1.448   4.479  0.0481  0.3744 -0.4512
 1847TIP3    H2 5548   1.168   1.329   4.528 -1.6986 -0.2815  0.8984
 1848TIP3   OH2 5549   0.316   4.477   2.197 -0.2261  0.2761 -0.7415
 1848TIP3    H1 5550   0.409   4.455   2.195 -0.0999  0.3784  1.5175
 1848TIP3    H2 5551   0.286   4.464   2.107  1.9473  0.1947 -1.5055
 1849TIP3   OH2 5552   1.201   4.397   0.101 -0.3542  0.1636 -0.4570
 1849TIP3    H1 5553   1.296   4.398   0.090 -0.1672  1.0391  1.0080
 1849TIP3    H2 5554   1.181   4.307   0.127  0.5120  0.6844  2.2854
 1850TIP3   OH2 5555   0.366   3.745   1.583 -0.0595 -0.4741  0.8717
 1850TIP3    H1 5556   0.397   3.803   1.653 -1.0235  1.0686  0.0661
 1850TIP3    H2 5557   0.299   3.795   1.538  0.4606 -1.4603 -1.1106
 1851TIP3   OH2 5558   0.249   5.615   0.138  0.1013 -0.4539  0.1121
 1851TIP3    H1 5559   0.329   5.564   0.154 -0.2396 -0.9261  0.3198
 1851TIP3    H2 5560   0.277   5.706   0.145  0.3667 -0.6214  1.4338
 1852TIP3   OH2 5561   2.958   4.738   3.437 -0.2227  0.6920  0.0358
 1852TIP3    H1 5562   2.968   4.737   3.342  0.3664 -2.5177  0.0195
 1852TIP3    H2 5563   3.041   4.770   3.471 -0.1230  1.0190 -0.5200
 1853TIP3   OH2 5564   4.994   4.137   2.973  0.1172 -0.6732 -0.5505
 1853TIP3    H1 5565   4.928   4.162   3.038 -0.2694 -1.8914 -0.4553
 1853TIP3    H2 5566   5.077   4.155   3.016 -0.1316  0.4337 -0.4934
 1854TIP3   OH2 5567   5.924   2.639   5.056 -0.3265  0.1140 -0.9275
 1854TIP3    H1 5568   5.952   2.728   5.037  0.4288 -0.4008 -2.3720
 1854TIP3    H2 5569   6.002   2.586   5.042  0.2897 -0.4777  3.3346
 1855TIP3   OH2 5570   4.588   4.299   3.943 -0.0925 -0.1776  0.4301
 1855TIP3    H1 5571   4.603   4.385   3.904  1.1002 -0.1528  0.9202
 1855TIP3    H2 5572   4.499   4.304   3.978  0.2429  1.1473  1.1570
 1856TIP3   OH2 5573   0.891   0.306   2.414 -0.5991 -0.5028  0.1804
 1856TIP3    H1 5574   0.946   0.241   2.457  0.4105  0.3576  0.2386
 1856TIP3    H2 5575   0.839   0.256   2.351 -1.4524 -1.6612  1.7341
 1857TIP3   OH2 5576   3.567   0.298   0.173  0.0696 -0.2129 -0.0957
 1857TIP3    H1 5577   3.620   0.373   0.147 -0.0683 -0.8307 -2.3504
 1857TIP3    H2 5578   3.619   0.222   0.147 -0.4017 -0.9010  0.9056
 1858TIP3   OH2 5579   0.767   4.990   3.485 -0.3773 -0.3980 -0.2165
 1858TIP3    H1 5580   0.754   5.020   3.395 -0.3055 -0.6187 -0.3013
 1858TIP3    H2 5581   0.796   5.068   3.532  0.6426 -0.5115 -0.6235
 1859TIP3   OH2 5582   4.834   2.800   0.081  0.3190  0.7972 -0.2527
 1859TIP3    H1 5583   4.921   2.764   0.098 -0.5287 -0.1757  2.6184
 1859TIP3    H2 5584   4.773   2.729   0.103 -1.2586  2.4622  1.1006
 1860TIP3   OH2 5585   3.960   1.896   2.088  0.6021  0.3418 -0.7702
 1860TIP3    H1 5586   3.997   1.981   2.063  0.1376  0.4504 -1.0952
 1860TIP3    H2 5587   3.878   1.918   2.132  0.6153  0.0737 -0.6124
 1861TIP3   OH2 5588   4.714   1.151   0.815 -0.0638 -0.4326  0.3195
 1861TIP3    H1 5589   4.722   1.216   0.885  0.0762  0.5745 -0.6037
 1861TIP3    H2 5590   4.787   1.169   0.757  0.9869 -2.5370  0.8866
 1862TIP3   OH2 5591   4.001   3.182   1.535 -0.5394 -0.0345  0.2192
 1862TIP3    H1 5592   4.096   3.184   1.548 -0.5955 -1.7982  1.2575
 1862TIP3    H2 5593   3.985   3.100   1.488 -1.6155 -0.2080  0.8412
 1863TIP3   OH2 5594   4.336   4.038   3.675 -0.8231 -0.4426 -0.0072
 1863TIP3    H1 5595   4.326   4.069   3.764 -1.6212  0.0192 -0.2474
 1863TIP3    H2 5596   4.355   4.117   3.624 -0.8972 -0.6228 -0.3184
 1864TIP3   OH2 5597   4.432   3.277   2.936 -0.0121 -0.0827  0.3486
 1864TIP3    H1 5598   4.407   3.312   2.851  0.3402 -1.5823 -0.4008
 1864TIP3    H2 5599   4.370   3.207   2.953  0.5480 -0.4674  0.8494
 1865TIP3   OH2 5600   0.289   0.007   1.613  0.0054 -0.6295  0.0536
 1865TIP3    H1 5601   0.268   0.071   1.681 -0.4487 -1.1860  0.4527
 1865TIP3    H2 5602   0.324   0.059   1.541 -0.4520  0.0777  0.3258
 1866TIP3   OH2 5603   1.075   4.629   5.118 -0.1882  0.3270 -0.0836
 1866TIP3    H1 5604   0.981   4.615   5.105 -0.2103  1.1893 -1.0007
 1866TIP3    H2 5605   1.117   4.575   5.051 -0.1051  1.1801 -0.7325
 1867TIP3   OH2 5606   0.222   1.812   1.639 -0.2809 -0.2650  0.0072
 1867TIP3    H1 5607   0.149   1.788   1.582  1.5806 -0.3770 -2.4726
 1867TIP3    H2 5608   0.286   1.743   1.627  0.9490  0.6991  0.7732
 1868TIP3   OH2 5609   0.076   0.087   0.241 -0.3533  0.0243 -0.6047
 1868TIP3    H1 5610   0.040   0.028   0.307  0.1090 -0.2040 -0.5550
 1868TIP3    H2 5611   0.041   0.173   0.265 -0.1712 -0.0517 -0.0483
 1869TIP3   OH2 5612   1.235   0.046   2.711 -0.4296  0.1324  0.4862
 1869TIP3    H1 5613   1.269   0.134   2.729 -2.5649  1.4527 -1.4007
 1869TIP3    H2 5614   1.154   0.041   2.762 -2.4019  0.9146 -2.3131
 1870TIP3   OH2 5615   5.183   0.982   3.631  0.4108 -0.0893  0.1477
 1870TIP3    H1 5616   5.112   0.969   3.568  1.7777 -2.3452 -1.0545
 1870TIP3    H2 5617   5.244   1.039   3.586  0.3538  0.1275  0.3428
 1871TIP3   OH2 5618   2.474   5.259   2.912  0.1760 -0.3466 -0.2001
 1871TIP3    H1 5619   2.428   5.196   2.967  1.9371 -1.2563  0.3190
 1871TIP3    H2 5620   2.480   5.216   2.826  0.2641 -0.3225 -0.2058
 1872TIP3   OH2 5621   6.086   5.082   0.601  0.0873  0.6623  0.3570
 1872TIP3    H1 5622   6.037   5.015   0.553 -0.6544  0.8992  0.7593
 1872TIP3    H2 5623   6.160   5.035   0.639  0.7642  0.4958 -1.0979
 1873TIP3   OH2 5624   0.376   5.215   4.687 -0.7064  0.3936 -0.1548
 1873TIP3    H1 5625   0.324   5.136   4.704  0.9197 -1.1429 -1.8253
 1873TIP3    H2 5626   0.355   5.237   4.596  0.7899  0.3181 -0.5405
 1874TIP3   OH2 5627   1.503   4.778   3.045 -0.1486 -0.0211 -0.0763
 1874TIP3    H1 5628   1.531   4.851   3.099 -1.2340  2.1412 -2.2112
 1874TIP3    H2 5629   1.576   4.762   2.985 -0.5155  0.4174 -0.6489
 1875TIP3   OH2 5630   3.244   1.280   2.953 -0.1179 -0.0199  0.5754
 1875TIP3    H1 5631   3.298   1.203   2.936  0.1226  0.5294 -1.4167
 1875TIP3    H2 5632   3.161   1.244   2.984  0.4120 -1.0055  0.9042
 1876TIP3   OH2 5633   5.506   0.750   5.147 -0.2487 -0.3452 -0.4735
 1876TIP3    H1 5634   5.434   0.810   5.127 -1.5119 -1.4437  0.6485
 1876TIP3    H2 5635   5.485   0.670   5.099  0.1200 -0.7405  0.0128
 1877TIP3   OH2 5636   2.832   4.047   5.011 -0.3748 -0.0223 -0.3318
 1877TIP3    H1 5637   2.736   4.046   5.006 -0.4664  1.0106  0.8116
 1877TIP3    H2 5638   2.860   4.012   4.926 -1.7554  0.0698 -0.8626
 1878TIP3   OH2 5639   5.227   4.718   3.950 -0.2908  0.3195 -0.6410
 1878TIP3    H1 5640   5.304   4.758   3.911 -0.3575  0.7709 -0.3227
 1878TIP3    H2 5641   5.260   4.670   4.025 -0.1454 -0.6593 -1.3217
 1879TIP3   OH2 5642   0.111   0.816   4.378  0.0076 -0.0423  0.1438
 1879TIP3    H1 5643   0.170   0.890   4.385  0.6136 -0.6255  1.5744
 1879TIP3    H2 5644   0.042   0.833   4.443 -0.5136 -0.1474 -0.3730
 1880TIP3   OH2 5645   1.738   5.274   4.793 -0.2433 -0.1848 -0.9571
 1880TIP3    H1 5646   1.678   5.199   4.799  1.8749 -1.9703 -0.5038
 1880TIP3    H2 5647   1.732   5.316   4.879 -0.3926 -0.7323 -0.6931
 1881TIP3   OH2 5648   3.196   5.736   0.949  0.4255 -0.1526  0.2096
 1881TIP3    H1 5649   3.129   5.670   0.969  1.0470 -0.9761 -0.3531
 1881TIP3    H2 5650   3.155   5.793   0.884 -0.8232  1.2414  2.1031
 1882TIP3   OH2 5651   5.638   1.463   0.528  0.4059 -0.1429 -0.8812
 1882TIP3    H1 5652   5.650   1.427   0.616  0.0754  0.0300 -0.7632
 1882TIP3    H2 5653   5.727   1.471   0.493  0.5133 -0.6049 -0.7240
 1883TIP3   OH2 5654   1.844   1.218   1.410 -0.0729 -0.8818 -0.0890
 1883TIP3    H1 5655   1.801   1.210   1.325  0.2261 -0.5728 -0.2764
 1883TIP3    H2 5656   1.845   1.129   1.445 -0.9059 -0.8850 -0.0517
 1884TIP3   OH2 5657   0.648   5.483   2.602  0.2293  0.3503  0.0655
 1884TIP3    H1 5658   0.729   5.531   2.615  0.2566  0.0287  1.1997
 1884TIP3    H2 5659   0.659   5.439   2.518  0.3505  2.0090 -0.8302
 1885TIP3   OH2 5660   0.490   3.533   3.164  0.4582  0.5276 -0.1561
 1885TIP3    H1 5661   0.405   3.547   3.208  0.5952  2.5064 -0.4038
 1885TIP3    H2 5662   0.493   3.440   3.146 -1.8569  0.4656 -0.4955
 1886TIP3   OH2 5663   6.190   5.953   3.906 -0.0178 -0.3126  0.5611
 1886TIP3    H1 5664   6.184   6.048   3.916  1.0446 -0.1054 -0.6181
 1886TIP3    H2 5665   6.255   5.939   3.837 -2.0100 -1.8221 -1.1348
 1887TIP3   OH2 5666   3.357   1.828   3.604  0.2094  0.4533 -0.2572
 1887TIP3    H1 5667   3.279   1.883   3.593  0.4057  0.9517  0.8170
 1887TIP3    H2 5668   3.431   1.889   3.600  0.3632  0.5922  2.7484
 1888TIP3   OH2 5669   1.078   5.595   1.320 -0.1570  0.5182  0.4753
 1888TIP3    H1 5670   1.169   5.624   1.314 -0.3848  1.1422 -0.0478
 1888TIP3    H2 5671   1.061   5.549   1.238 -0.6004  1.2730  0.1305
 1889TIP3   OH2 5672   2.860   5.939   1.278  0.4473 -0.2763  0.0968
 1889TIP3    H1 5673   2.804   6.016   1.287  1.6396  0.5293  0.9368
 1889TIP3    H2 5674   2.881   5.936   1.185  0.6928  0.6705  0.1028
 1890TIP3   OH2 5675   4.211   5.489   0.636  0.8387 -0.0918 -0.0785
 1890TIP3    H1 5676   4.223   5.511   0.544 -1.3099  1.0811 -0.1368
 1890TIP3    H2 5677   4.221   5.573   0.682 -2.0545  0.1342  0.2887
 1891TIP3   OH2 5678   4.286   3.141   3.218  0.1039  0.5333 -1.0316
 1891TIP3    H1 5679   4.251   3.074   3.277  2.0229 -1.2019 -1.7466
 1891TIP3    H2 5680   4.313   3.212   3.276  2.1101 -1.1891  0.3214
 1892TIP3   OH2 5681   4.317   4.317   2.425 -0.2326 -0.2452  0.2330
 1892TIP3    H1 5682   4.251   4.363   2.372 -3.1521 -0.6823  3.1210
 1892TIP3    H2 5683   4.320   4.367   2.507  2.4132 -0.8441  0.5828
 1893TIP3   OH2 5684   2.690   5.211   1.402  0.0122 -0.0177  0.3135
 1893TIP3    H1 5685   2.664   5.287   1.349 -1.2259 -0.4040  0.3197
 1893TIP3    H2 5686   2.658   5.231   1.490  0.7011 -0.0456  0.5705
 1894TIP3   OH2 5687   3.306   3.469   1.569 -0.1957 -0.6558  0.1653
 1894TIP3    H1 5688   3.359   3.392   1.552 -0.6608 -0.8371 -0.5317
 1894TIP3    H2 5689   3.366   3.532   1.609  0.2103 -1.3379  0.6426
 1895TIP3   OH2 5690   0.494   3.760   0.689  0.1714  0.0928  0.2738
 1895TIP3    H1 5691   0.416   3.779   0.741  0.4463  1.5167  0.2022
 1895TIP3    H2 5692   0.499   3.832   0.626 -1.0825 -2.3639 -2.9166
 1896TIP3   OH2 5693   3.183   1.318   1.855  0.5720 -0.2567 -0.2925
 1896TIP3    H1 5694   3.262   1.312   1.909  0.1426 -0.7058  0.3014
 1896TIP3    H2 5695   3.128   1.246   1.886 -0.4299  0.5691 -0.1104
 1897TIP3   OH2 5696   2.937   1.295   1.596 -0.0269  0.1927 -0.4653
 1897TIP3    H1 5697   3.013   1.245   1.565  0.7007  1.6621 -1.1442
 1897TIP3    H2 5698   2.925   1.363   1.530  1.4779  3.3759  2.3060
 1898TIP3   OH2 5699   4.327   5.938   4.340 -0.3635  0.5508  0.3848
 1898TIP3    H1 5700   4.343   5.905   4.428 -0.6114 -0.4871  0.0467
 1898TIP3    H2 5701   4.286   5.865   4.293 -1.7640  1.6130 -0.1164
 1899TIP3   OH2 5702   3.882   1.200   0.622 -0.4827  0.0279 -1.1681
 1899TIP3    H1 5703   3.875   1.286   0.662 -1.3698  0.0394 -1.3294
 1899TIP3    H2 5704   3.932   1.148   0.685 -0.1719  0.5883 -0.9509
 1900TIP3   OH2 5705   1.374   1.488   1.105 -0.1893 -0.2955  0.5710
 1900TIP3    H1 5706   1.306   1.541   1.064 -0.6350 -0.8921  0.5391
 1900TIP3    H2 5707   1.456   1.532   1.081 -0.5603  0.4603  0.6622
 1901TIP3   OH2 5708   2.512   5.972   2.086 -0.3319  0.1218  0.2577
 1901TIP3    H1 5709   2.437   5.976   2.145 -0.5891  1.9804 -0.1315
 1901TIP3    H2 5710   2.484   6.021   2.008  1.2849  0.9022  0.1321
 1902TIP3   OH2 5711   2.477   0.048   1.719  0.1251  0.7153 -0.3255
 1902TIP3    H1 5712   2.509   0.002   1.798  0.4498 -1.7750 -1.7833
 1902TIP3    H2 5713   2.386   0.068   1.738  0.5418  1.3437  1.1622
 1903TIP3   OH2 5714   5.720   1.586   4.627  0.0793  0.5092  0.6617
 1903TIP3    H1 5715   5.773   1.662   4.651  1.3501 -0.0105 -0.3943
 1903TIP3    H2 5716   5.644   1.592   4.684  0.5460  2.1093  1.1913
 1904TIP3   OH2 5717   1.218   2.989   3.399  0.0269 -0.0846 -0.1345
 1904TIP3    H1 5718   1.173   2.908   3.424 -1.1214  1.0334  1.6278
 1904TIP3    H2 5719   1.283   2.961   3.334 -2.3340 -1.9591 -1.8680
 1905TIP3   OH2 5720   2.365   2.596   0.563 -0.5637 -0.1156  0.3448
 1905TIP3    H1 5721   2.378   2.681   0.605  0.3570 -1.1751  2.3610
 1905TIP3    H2 5722   2.452   2.572   0.530 -0.5243 -0.8048  0.9197
 1906TIP3   OH2 5723   6.052   3.781   0.233  0.3338  0.3283 -0.1949
 1906TIP3    H1 5724   6.021   3.872   0.238  1.2960  0.6682 -0.3121
 1906TIP3    H2 5725   6.128   3.785   0.175  1.0249 -0.3866  0.6500
 1907TIP3   OH2 5726   5.240   2.292   3.427  0.2999  0.6518 -0.6994
 1907TIP3    H1 5727   5.245   2.328   3.338 -2.1239  0.1725 -1.1197
 1907TIP3    H2 5728   5.147   2.269   3.437  0.6534  0.0840  1.7286
 1908TIP3   OH2 5729   5.471   1.467   2.272 -0.2502 -0.3277 -0.0222
 1908TIP3    H1 5730   5.480   1.408   2.346  1.3922 -0.5062 -0.3394
 1908TIP3    H2 5731   5.435   1.413   2.202  1.3806 -1.0200 -0.3556
 1909TIP3   OH2 5732   3.694   2.721   2.802 -0.4425  0.3756  0.6176
 1909TIP3    H1 5733   3.649   2.713   2.887  0.5961  1.2393  1.2823
 1909TIP3    H2 5734   3.678   2.812   2.776  0.3759  0.5008  0.5537
 1910TIP3   OH2 5735   5.654   0.239   3.662  0.0858  0.1071 -0.3849
 1910TIP3    H1 5736   5.691   0.158   3.699  1.7373  0.1378 -1.8482
 1910TIP3    H2 5737   5.640   0.295   3.738 -0.0926 -1.1519  0.5501
 1911TIP3   OH2 5738   3.117   0.673   0.852  0.0702 -0.5554 -0.2226
 1911TIP3    H1 5739   3.125   0.651   0.944 -0.1090  0.4855  0.0509
 1911TIP3    H2 5740   3.205   0.660   0.816  0.6513  0.9852  0.5475
 1912TIP3   OH2 5741   2.465   1.118   0.047  0.0472  0.4016 -0.7287
 1912TIP3    H1 5742   2.484   1.161   0.130  0.6063  0.3543 -0.8236
 1912TIP3    H2 5743   2.413   1.181  -0.002 -0.3238  0.4117 -0.3243
 1913TIP3   OH2 5744   3.154   0.872   5.050  0.0922 -0.1073 -0.2088
 1913TIP3    H1 5745   3.074   0.909   5.087 -0.1419 -0.9656  0.1549
 1913TIP3    H2 5746   3.181   0.806   5.113 -0.5633 -1.9230 -1.7384
 1914TIP3   OH2 5747   2.550   1.730   2.220 -0.1643  0.1634 -0.1222
 1914TIP3    H1 5748   2.632   1.780   2.227  0.4277 -0.1640 -3.0430
 1914TIP3    H2 5749   2.571   1.645   2.258  1.5261 -0.4901 -2.2309
 1915TIP3   OH2 5750   4.739   5.790   2.030  0.2920 -0.0758  0.1105
 1915TIP3    H1 5751   4.692   5.769   2.111  0.5820 -1.2333 -0.0047
 1915TIP3    H2 5752   4.671   5.787   1.962  0.2126  0.0128  0.1847
 1916TIP3   OH2 5753   1.402   3.369   5.183  0.5822  0.8339 -0.0440
 1916TIP3    H1 5754   1.464   3.348   5.113 -0.8221  1.2813 -1.4910
 1916TIP3    H2 5755   1.374   3.284   5.216  1.4721  0.6215  0.1871
 1917TIP3   OH2 5756   3.257   4.942   2.547  0.1672 -0.7983 -0.0184
 1917TIP3    H1 5757   3.263   4.972   2.638 -1.7669 -0.9199  0.1934
 1917TIP3    H2 5758   3.168   4.907   2.539  0.0548 -0.1462 -2.1605
 1918TIP3   OH2 5759   1.113   4.240   0.756 -0.3257  0.1558  0.2955
 1918TIP3    H1 5760   1.049   4.226   0.686  0.4090  1.0494 -0.5820
 1918TIP3    H2 5761   1.151   4.154   0.772 -1.1632 -0.2293  0.2612
 1919TIP3   OH2 5762   0.201   4.324   5.178  0.4591  0.9261 -0.7530
 1919TIP3    H1 5763   0.134   4.259   5.196  0.3056  1.4459  0.6605
 1919TIP3    H2 5764   0.271   4.276   5.133  0.0157 -0.0420 -0.4243
 1920TIP3   OH2 5765   4.448   3.103   2.621  0.7322  0.4201 -0.4630
 1920TIP3    H1 5766   4.353   3.101   2.633  0.4163 -2.2975 -2.3118
 1920TIP3    H2 5767   4.481   3.042   2.687  0.9786 -0.0250 -0.9906
 1921TIP3   OH2 5768   4.895   1.358   2.514  0.5192  0.2852  0.5133
 1921TIP3    H1 5769   4.919   1.286   2.455 -0.6176 -0.6159  1.1094
 1921TIP3    H2 5770   4.971   1.415   2.513  1.2206 -0.6069 -0.4606
 1922TIP3   OH2 5771   5.276   3.529   0.936 -0.1580 -0.2587 -0.4702
 1922TIP3    H1 5772   5.257   3.452   0.989  1.1040  0.4826  1.1292
 1922TIP3    H2 5773   5.370   3.544   0.946 -0.4827  1.9261 -0.0876
 1923TIP3   OH2 5774   4.347   2.288   3.993 -0.3766  0.3156 -0.8518
 1923TIP3    H1 5775   4.276   2.254   4.047 -1.3706  1.1043 -1.6134
 1923TIP3    H2 5776   4.335   2.244   3.909  2.1597 -2.1936 -0.0522
 1924TIP3   OH2 5777   3.766   2.364   4.174 -0.2333  0.1549 -0.0406
 1924TIP3    H1 5778   3.769   2.412   4.256 -0.6892 -0.1663  0.1759
 1924TIP3    H2 5779   3.837   2.301   4.180  0.6042  1.0436 -0.4877
 1925TIP3   OH2 5780   0.287   3.623   1.852  0.1967 -0.2402 -0.2222
 1925TIP3    H1 5781   0.351   3.573   1.803  0.0569 -1.3253  0.6607
 1925TIP3    H2 5782   0.228   3.557   1.889 -0.6123  0.6441  0.1149
 1926TIP3   OH2 5783   5.761   3.014   1.965 -0.1691  0.7569 -0.1080
 1926TIP3    H1 5784   5.835   2.985   1.912  0.2360  0.4844  0.5940
 1926TIP3    H2 5785   5.684   2.975   1.922  0.2218 -0.0732 -0.0755
 1927TIP3   OH2 5786   3.221   5.231   3.158 -0.5066  0.2677  0.3089
 1927TIP3    H1 5787   3.295   5.239   3.098 -1.5543 -0.2539 -1.1096
 1927TIP3    H2 5788   3.238   5.151   3.207  1.5395  1.8775  2.4986
 1928TIP3   OH2 5789   3.359   1.101   0.850 -0.0374 -0.5220 -0.2833
 1928TIP3    H1 5790   3.330   1.191   0.838  1.3560 -0.2065 -1.4961
 1928TIP3    H2 5791   3.278   1.049   0.845 -0.8165  0.6276  0.1776
 1929TIP3   OH2 5792   5.028   2.486   0.287  0.3234  0.4387  0.2882
 1929TIP3    H1 5793   4.941   2.471   0.323  1.3146 -1.0347  2.3216
 1929TIP3    H2 5794   5.047   2.409   0.234 -0.1028  1.3843 -1.2758
 1930TIP3   OH2 5795   5.818   3.912   4.389 -0.4186 -0.3736 -0.1723
 1930TIP3    H1 5796   5.796   3.950   4.303 -0.6911 -0.6522 -0.2282
 1930TIP3    H2 5797   5.913   3.903   4.388 -0.3354  0.4078 -0.1183
 1931TIP3   OH2 5798   1.023   4.972   4.256 -0.0934 -0.2265  0.0764
 1931TIP3    H1 5799   1.051   4.981   4.166 -2.5759 -0.1652 -0.7728
 1931TIP3    H2 5800   1.058   4.887   4.284 -0.7195 -1.0689 -1.5581
 1932TIP3   OH2 5801   2.018   5.451   4.449 -0.0290 -0.1150  0.3482
 1932TIP3    H1 5802   1.936   5.421   4.487  0.6466 -1.4409  0.7939
 1932TIP3    H2 5803   2.037   5.388   4.379 -0.4969  1.4383 -1.2552
 1933TIP3   OH2 5804   1.201   5.775   0.640 -0.1586  0.2998 -0.2330
 1933TIP3    H1 5805   1.267   5.710   0.662  0.3418  0.8798 -0.0189
 1933TIP3    H2 5806   1.192   5.769   0.545  1.3534  1.3217 -0.4534
 1934TIP3   OH2 5807   4.607   1.063   0.086  0.4159 -0.0162  0.0201
 1934TIP3    H1 5808   4.634   0.972   0.098 -1.6781 -0.9540 -1.5348
 1934TIP3    H2 5809   4.521   1.068   0.129 -0.0201  0.8848 -0.9156
 1935TIP3   OH2 5810   2.473   2.009   3.407 -0.3194  0.1802  0.3004
 1935TIP3    H1 5811   2.557   1.975   3.437  0.3663  1.4212 -0.1590
 1935TIP3    H2 5812   2.455   1.961   3.326 -0.5304 -0.7566  0.8863
 1936TIP3   OH2 5813   1.258   3.652   3.611 -0.0706  0.2110 -0.4278
 1936TIP3    H1 5814   1.264   3.681   3.701 -1.3747  0.1844 -0.3177
 1936TIP3    H2 5815   1.164   3.653   3.591  0.2956  2.8666 -2.6482
 1937TIP3   OH2 5816   3.461   1.847   3.944 -0.4002 -0.4280  0.0098
 1937TIP3    H1 5817   3.368   1.857   3.921 -0.1255 -0.2656 -1.1007
 1937TIP3    H2 5818   3.507   1.907   3.885  0.3515  0.1356  1.1487
 1938TIP3   OH2 5819   5.552   2.918   4.289  0.6931  0.2900  0.1235
 1938TIP3    H1 5820   5.582   2.844   4.341 -0.2122  0.1167  0.4161
 1938TIP3    H2 5821   5.487   2.961   4.344  1.3054  1.3916  0.0074
 1939TIP3   OH2 5822   0.456   4.930   3.890 -0.5067  0.1847 -0.1511
 1939TIP3    H1 5823   0.455   4.962   3.981  0.8307  0.3946 -0.1835
 1939TIP3    H2 5824   0.482   5.007   3.839  0.4991 -0.3589 -0.4905
 1940TIP3   OH2 5825   0.243   2.038   2.659 -0.3657  0.1792  1.1298
 1940TIP3    H1 5826   0.338   2.032   2.646 -0.6311 -0.8362 -0.8695
 1940TIP3    H2 5827   0.214   2.103   2.594 -1.0569  0.3324  1.5839
 1941TIP3   OH2 5828   5.666   3.542   3.012 -0.5379 -0.4263 -0.2254
 1941TIP3    H1 5829   5.696   3.590   2.936 -0.0132  0.1955  0.3640
 1941TIP3    H2 5830   5.746   3.512   3.055 -0.8220 -0.6505  0.1514
 1942TIP3   OH2 5831   2.410   2.311   4.868  0.7670 -0.5755 -0.0471
 1942TIP3    H1 5832   2.427   2.254   4.943  2.7974 -0.3753 -0.3103
 1942TIP3    H2 5833   2.455   2.393   4.888 -1.3493  0.6742 -0.0871
 1943TIP3   OH2 5834   6.215   1.983   4.198 -0.2302 -0.2562  0.3125
 1943TIP3    H1 5835   6.264   2.018   4.124  1.1436 -0.7977  0.9348
 1943TIP3    H2 5836   6.258   1.900   4.218 -1.4612 -0.7819  0.8471
 1944TIP3   OH2 5837   4.440   1.459   5.004 -0.1850  0.1098  0.2921
 1944TIP3    H1 5838   4.352   1.428   4.986 -0.0889 -0.2051  0.3676
 1944TIP3    H2 5839   4.491   1.435   4.927  0.1203 -0.8324  0.7685
 1945TIP3   OH2 5840   2.530   1.061   4.647  0.2598 -0.4685 -0.3232
 1945TIP3    H1 5841   2.467   1.029   4.712 -0.7079  0.7293 -0.6464
 1945TIP3    H2 5842   2.609   1.080   4.697 -0.4483  0.3680  0.4940
 1946TIP3   OH2 5843   6.088   5.097   1.029  0.6523 -0.1522  0.4988
 1946TIP3    H1 5844   6.052   5.138   0.950  0.3710  0.1177  0.7663
 1946TIP3    H2 5845   6.158   5.040   0.996  1.0432  0.5320  0.1174
 1947TIP3   OH2 5846   4.290   0.336   1.142  0.1519 -0.2207 -0.5306
 1947TIP3    H1 5847   4.368   0.340   1.198  0.9576 -0.1809 -1.6190
 1947TIP3    H2 5848   4.276   0.426   1.113 -1.5468  0.1515  1.2637
 1948TIP3   OH2 5849   1.402   4.674   3.307 -0.2864 -0.1916  0.1315
 1948TIP3    H1 5850   1.482   4.702   3.261  0.2631 -0.1694  1.0854
 1948TIP3    H2 5851   1.399   4.729   3.385 -1.8332  0.5653 -0.4144
 1949TIP3   OH2 5852   5.294   5.027   4.927  0.2900  0.0266  0.4363
 1949TIP3    H1 5853   5.342   4.980   4.858  0.0666 -0.3131  0.5077
 1949TIP3    H2 5854   5.205   5.033   4.894  0.5148  1.2228  0.0207
 1950TIP3   OH2 5855   4.295   4.579   4.797  0.1729  0.6518 -0.2322
 1950TIP3    H1 5856   4.333   4.661   4.828  0.0480  0.8782 -0.6742
 1950TIP3    H2 5857   4.202   4.596   4.789 -0.0151  0.1399  0.6984
 1951TIP3   OH2 5858   5.892   1.855   5.112 -0.0314 -0.1141  0.2003
 1951TIP3    H1 5859   5.946   1.820   5.040 -0.5786 -1.6627  0.4988
 1951TIP3    H2 5860   5.844   1.927   5.072 -0.2151 -0.8441 -0.9710
 1952TIP3   OH2 5861   2.945   1.461   3.131  0.0830 -0.1707 -0.4872
 1952TIP3    H1 5862   2.940   1.547   3.089 -1.5025 -0.7298 -1.5405
 1952TIP3    H2 5863   2.896   1.470   3.212 -0.1479 -0.0966 -0.6345
 1953TIP3   OH2 5864   2.359   3.847   2.221 -0.2380 -0.1126 -0.0732
 1953TIP3    H1 5865   2.280   3.859   2.168 -0.6403 -2.0212  0.0093
 1953TIP3    H2 5866   2.333   3.784   2.289  0.9302  0.4499  0.9390
 1954TIP3   OH2 5867   2.616   1.126   0.307 -0.0115 -0.0113 -0.3068
 1954TIP3    H1 5868   2.558   1.068   0.356 -0.5299  0.7717  0.0151
 1954TIP3    H2 5869   2.651   1.071   0.237  0.1431 -0.9382  0.4717
 1955TIP3   OH2 5870   2.983   5.927   3.391 -0.1450  0.4469  0.8394
 1955TIP3    H1 5871   3.048   5.902   3.456 -0.2675 -0.8873  0.4953
 1955TIP3    H2 5872   2.956   5.843   3.352 -0.8091  1.1266 -0.2065
 1956TIP3   OH2 5873   2.300   1.522   0.275  0.5418  0.3880 -0.4268
 1956TIP3    H1 5874   2.243   1.559   0.208 -1.1254 -0.3253  0.5388
 1956TIP3    H2 5875   2.345   1.598   0.313 -2.2336  1.4519  0.9930
 1957TIP3   OH2 5876   3.296   0.571   0.404  0.3977 -0.4446 -0.3603
 1957TIP3    H1 5877   3.304   0.661   0.371 -1.4242  0.9646  2.6015
 1957TIP3    H2 5878   3.242   0.526   0.339  2.3700  0.1389 -2.5330
 1958TIP3   OH2 5879   0.896   2.661   5.010 -0.0745  0.5846  0.3720
 1958TIP3    H1 5880   0.914   2.569   5.030 -1.8487  0.0623 -0.2108
 1958TIP3    H2 5881   0.972   2.690   4.960 -0.1118 -1.0259 -0.7038
 1959TIP3   OH2 5882   2.351   0.457   5.098  0.3452 -0.7005 -0.4330
 1959TIP3    H1 5883   2.409   0.532   5.080  1.5894 -1.7293 -0.8262
 1959TIP3    H2 5884   2.366   0.437   5.191  0.3319 -0.7179 -0.4348
 1960TIP3   OH2 5885   5.939   4.929   1.646 -0.1293  0.4566 -0.3439
 1960TIP3    H1 5886   5.927   5.000   1.709 -0.8566  1.4397 -1.5436
 1960TIP3    H2 5887   5.862   4.934   1.589 -1.2159 -2.5411  0.6662
 1961TIP3   OH2 5888   1.820   4.592   5.176 -0.9320 -0.0224 -0.2471
 1961TIP3    H1 5889   1.789   4.683   5.174 -0.8597  0.0018 -0.3205
 1961TIP3    H2 5890   1.762   4.545   5.117 -0.0617  0.2778 -1.3904
 1962TIP3   OH2 5891   0.901   1.897   3.533 -0.0586  0.3131  0.0602
 1962TIP3    H1 5892   0.834   1.829   3.540 -1.2497  1.4035 -0.3653
 1962TIP3    H2 5893   0.871   1.967   3.591  1.1512  0.4927  0.4978
 1963TIP3   OH2 5894   1.512   3.937   2.225  0.0317  0.3260 -0.1002
 1963TIP3    H1 5895   1.445   3.939   2.157 -1.2902 -2.3354  1.0077
 1963TIP3    H2 5896   1.593   3.919   2.178 -0.5262  0.4675 -1.1538
 1964TIP3   OH2 5897   0.864   0.590   1.639  0.2951  0.3353  0.6011
 1964TIP3    H1 5898   0.867   0.617   1.547 -2.2009  0.7127  0.5551
 1964TIP3    H2 5899   0.943   0.537   1.651  0.0092 -0.9019 -2.1620
 1965TIP3   OH2 5900   4.565   5.174   1.996  0.1608 -0.6047  0.0004
 1965TIP3    H1 5901   4.510   5.099   1.971  0.5075 -1.0780  0.6217
 1965TIP3    H2 5902   4.523   5.210   2.074  0.7797 -1.0434  0.5515
 1966TIP3   OH2 5903   4.291   1.884   2.977 -0.2712  0.1237 -0.1598
 1966TIP3    H1 5904   4.257   1.848   2.895 -0.9191 -0.5159  0.3774
 1966TIP3    H2 5905   4.238   1.843   3.045 -0.5802  1.5934  0.5243
 1967TIP3   OH2 5906   2.895   5.544   2.680  0.0985  0.3526 -0.7442
 1967TIP3    H1 5907   2.829   5.518   2.744 -2.2498 -0.1627 -3.2024
 1967TIP3    H2 5908   2.942   5.617   2.722 -0.4779 -0.7078  1.9610
 1968TIP3   OH2 5909   1.919   2.633   4.168  0.2913 -0.4553 -0.0734
 1968TIP3    H1 5910   1.899   2.551   4.213 -0.3477 -1.4392 -2.0176
 1968TIP3    H2 5911   1.938   2.696   4.238 -2.7139 -1.3043  1.6810
 1969TIP3   OH2 5912   2.609   1.939   0.019  0.2143  0.1126 -0.4061
 1969TIP3    H1 5913   2.644   1.869   0.074 -0.7955  0.7165  1.0684
 1969TIP3    H2 5914   2.609   2.016   0.076 -0.1424  0.9629 -1.5109
 1970TIP3   OH2 5915   2.591   2.486   2.961 -0.2031  0.4754  0.5648
 1970TIP3    H1 5916   2.544   2.455   2.883 -0.4222 -0.4865  1.0733
 1970TIP3    H2 5917   2.524   2.487   3.030  0.2452  0.2596  1.0036
 1971TIP3   OH2 5918   4.988   4.349   3.703  0.0883  0.4407 -0.0337
 1971TIP3    H1 5919   4.914   4.290   3.721  0.4782 -0.2044 -0.5161
 1971TIP3    H2 5920   5.027   4.365   3.789  1.1819 -1.6039 -0.0743
 1972TIP3   OH2 5921   3.597   2.940   0.040 -0.5510  0.1388 -0.4122
 1972TIP3    H1 5922   3.682   2.928   0.082  0.1711 -0.6681 -1.9852
 1972TIP3    H2 5923   3.619   2.958  -0.052 -2.0484  1.4378 -0.5481
 1973TIP3   OH2 5924   2.369   1.589   1.390 -0.2659  0.7849 -0.0057
 1973TIP3    H1 5925   2.422   1.611   1.466 -1.2104  2.0722  0.3201
 1973TIP3    H2 5926   2.408   1.638   1.318 -1.2043  2.0705  0.3192
 1974TIP3   OH2 5927   2.513   0.458   3.930  0.0543  0.4943 -0.0833
 1974TIP3    H1 5928   2.546   0.544   3.906  0.0012  0.9403  1.3169
 1974TIP3    H2 5929   2.418   0.463   3.916  0.0606  0.6549 -0.0719
 1975TIP3   OH2 5930   3.190   2.050   1.362 -0.8221  0.1742 -0.2276
 1975TIP3    H1 5931   3.143   1.987   1.416  0.0165 -0.3261 -0.0579
 1975TIP3    H2 5932   3.274   2.062   1.406 -0.5734  0.6358 -0.8047
 1976TIP3   OH2 5933   1.594   3.407   0.693  0.2516  0.2168  0.4239
 1976TIP3    H1 5934   1.595   3.327   0.642  1.9805 -0.0243  0.7713
 1976TIP3    H2 5935   1.559   3.473   0.634  0.1631 -0.4942 -0.3384
 1977TIP3   OH2 5936   1.620   2.230   1.381 -0.2202 -0.0851  0.1388
 1977TIP3    H1 5937   1.668   2.253   1.461 -0.7052  2.9563 -0.3394
 1977TIP3    H2 5938   1.686   2.231   1.312 -0.1024 -1.0885  0.2157
 1978TIP3   OH2 5939   1.444   0.545   2.859 -0.5320  0.1760 -0.2117
 1978TIP3    H1 5940   1.413   0.520   2.772 -1.8063  1.4632 -0.1620
 1978TIP3    H2 5941   1.473   0.636   2.849 -0.1029  0.1332  0.5741
 1979TIP3   OH2 5942   2.658   5.442   3.651  0.4011  0.2217 -0.4081
 1979TIP3    H1 5943   2.722   5.414   3.716  0.5673 -1.0489 -1.0720
 1979TIP3    H2 5944   2.611   5.362   3.628  0.1058  0.6987 -1.5706
 1980TIP3   OH2 5945   5.820   3.185   3.784  0.6980  0.3138 -0.1219
 1980TIP3    H1 5946   5.755   3.235   3.734  0.0347 -1.8077 -1.4850
 1980TIP3    H2 5947   5.812   3.220   3.873 -1.6969  0.7543 -0.4313
 1981TIP3   OH2 5948   1.377   1.065   4.831 -0.0604  0.3275 -0.5885
 1981TIP3    H1 5949   1.441   1.122   4.873  0.3620  0.1684 -1.0117
 1981TIP3    H2 5950   1.296   1.116   4.831 -0.5769 -0.3644  2.1023
 1982TIP3   OH2 5951   2.283   0.597   2.780  0.6888 -0.0675 -0.0938
 1982TIP3    H1 5952   2.257   0.608   2.871 -1.4334 -0.4903 -0.6004
 1982TIP3    H2 5953   2.327   0.512   2.777  1.1006  0.1193  0.5956
 1983TIP3   OH2 5954   5.626   0.283   4.332 -0.1069 -0.3332 -0.6619
 1983TIP3    H1 5955   5.621   0.358   4.391  0.2474 -0.7550 -0.0833
 1983TIP3    H2 5956   5.544   0.286   4.282  1.3677  2.4973 -3.1973
 1984TIP3   OH2 5957   0.643   2.663   2.100 -0.5457 -0.4824 -0.2661
 1984TIP3    H1 5958   0.702   2.634   2.171 -0.0423 -2.2104 -1.3152
 1984TIP3    H2 5959   0.696   2.656   2.021 -0.7604  2.4621 -0.7770
 1985TIP3   OH2 5960   5.385   1.902   2.565  0.7695 -0.1538 -0.2737
 1985TIP3    H1 5961   5.431   1.826   2.530 -0.5779 -1.0505 -0.1529
 1985TIP3    H2 5962   5.332   1.868   2.637  0.8805  1.0730  0.4273
 1986TIP3   OH2 5963   5.372   4.758   2.688  0.2750  0.3480  0.0214
 1986TIP3    H1 5964   5.423   4.723   2.762 -0.2652  0.8084  0.6236
 1986TIP3    H2 5965   5.282   4.736   2.709  0.0479  1.0937 -0.1666
 1987TIP3   OH2 5966   2.386   5.501   3.278  0.1287  0.0853  0.5781
 1987TIP3    H1 5967   2.420   5.588   3.296  0.3678  0.2199 -0.5006
 1987TIP3    H2 5968   2.453   5.441   3.312  1.6134  0.3446 -1.6867
 1988TIP3   OH2 5969   5.252   4.105   0.338  0.3422 -0.5633 -0.0531
 1988TIP3    H1 5970   5.189   4.107   0.410  0.7308 -0.4336  0.2904
 1988TIP3    H2 5971   5.240   4.189   0.293  1.0382 -0.0425  0.6952
 1989TIP3   OH2 5972   6.333   5.223   3.972  0.6330 -0.0343 -0.2530
 1989TIP3    H1 5973   6.292   5.162   4.034 -1.3027  2.7976  1.4904
 1989TIP3    H2 5974   6.427   5.211   3.986  0.2714 -0.9941  1.7292
 1990TIP3   OH2 5975   3.644   1.599   4.105 -0.2099  0.5041  0.1637
 1990TIP3    H1 5976   3.667   1.557   4.022 -0.4361  1.1627 -0.2405
 1990TIP3    H2 5977   3.703   1.560   4.169  0.5676  0.6138 -0.4698
 1991TIP3   OH2 5978   0.291   2.635   1.688 -0.3063  0.5555 -0.3470
 1991TIP3    H1 5979   0.211   2.589   1.662 -0.2634 -0.3535  1.0383
 1991TIP3    H2 5980   0.266   2.687   1.764 -0.1726  2.3181 -1.4600
 1992TIP3   OH2 5981   1.646   2.930   2.971 -0.2443 -0.0055 -0.3192
 1992TIP3    H1 5982   1.601   2.933   2.887  0.3812 -1.1503 -0.7147
 1992TIP3    H2 5983   1.577   2.948   3.035 -0.9271 -0.0705 -1.0154
 1993TIP3   OH2 5984   1.449   0.319   5.134 -0.3822  0.4238  0.2944
 1993TIP3    H1 5985   1.497   0.258   5.079  1.8095  1.2724  1.1438
 1993TIP3    H2 5986   1.426   0.391   5.075 -2.6585 -0.9479 -0.6229
 1994TIP3   OH2 5987   3.947   3.794   3.223  0.2948 -0.2873 -0.0142
 1994TIP3    H1 5988   3.938   3.698   3.218 -0.1073 -0.2683  0.2801
 1994TIP3    H2 5989   3.929   3.825   3.135 -2.7027 -0.2474  0.5022
 1995TIP3   OH2 5990   5.942   5.242   1.309  0.2306 -0.1057  0.3802
 1995TIP3    H1 5991   6.019   5.232   1.253  0.3467 -0.6086  0.6227
 1995TIP3    H2 5992   5.976   5.234   1.398 -0.1689 -0.7921  0.4739
 1996TIP3   OH2 5993   0.614   0.617   3.199 -0.0214 -0.3462  0.1666
 1996TIP3    H1 5994   0.565   0.698   3.211 -0.7679 -0.4010 -2.0163
 1996TIP3    H2 5995   0.547   0.548   3.197  0.6432 -1.1610  2.5623
 1997TIP3   OH2 5996   0.935   0.052   2.591  0.0030  0.1726  0.0981
 1997TIP3    H1 5997   1.005   0.088   2.536 -0.7424  0.7003 -0.5329
 1997TIP3    H2 5998   0.900  -0.021   2.540 -0.0387  0.0317  0.3272
 1998TIP3   OH2 5999   2.288   2.075   3.881  0.1744  0.1374  0.2989
 1998TIP3    H1 6000   2.303   2.153   3.934  0.5344  0.2062  0.1004
 1998TIP3    H2 6001   2.329   2.096   3.796 -2.8842  1.1936 -1.0451
 1999TIP3   OH2 6002   6.318   3.639   4.169 -0.4315  0.4552 -0.5622
 1999TIP3    H1 6003   6.274   3.557   4.193 -1.5834  1.0717 -0.4374
 1999TIP3    H2 6004   6.348   3.626   4.080 -1.5472  0.2497 -0.9251
 2000TIP3   OH2 6005   4.815   4.963   4.222 -0.3995  0.2352 -0.0336
 2000TIP3    H1 6006   4.754   4.899   4.186 -0.3639 -0.9300  1.8566
 2000TIP3    H2 6007   4.898   4.943   4.179 -0.5091 -0.6499  0.1503
 2001TIP3   OH2 6008   5.520   5.131   4.462  0.2218  0.4634  0.2699
 2001TIP3    H1 6009   5.468   5.191   4.515  1.7644 -0.3622  2.9242
 2001TIP3    H2 6010   5.455   5.083   4.410 -1.5001  0.9817  1.8058
 2002TIP3   OH2 6011   2.984   2.306   4.327 -0.2132  0.0555 -0.2451
 2002TIP3    H1 6012   2.929   2.350   4.392  0.2994 -0.2281  0.3876
 2002TIP3    H2 6013   2.921   2.263   4.268 -0.7007 -1.4259  1.2597
 2003TIP3   OH2 6014   3.524   1.634   0.197  0.1351  0.3159 -0.1801
 2003TIP3    H1 6015   3.452   1.587   0.238 -1.4314  2.4640 -0.3069
 2003TIP3    H2 6016   3.559   1.572   0.132  0.7195 -2.0268  2.1528
 2004TIP3   OH2 6017   0.769   1.033   4.597  0.2273 -0.0582 -0.3707
 2004TIP3    H1 6018   0.806   0.945   4.609 -0.8907 -0.7684 -1.7850
 2004TIP3    H2 6019   0.834   1.080   4.545  1.0058  0.1216  0.7100
 2005TIP3   OH2 6020   0.461   1.465   1.744 -0.2044 -0.7747  0.5316
 2005TIP3    H1 6021   0.520   1.521   1.694 -1.7179  0.4073  0.0070
 2005TIP3    H2 6022   0.479   1.377   1.711  0.7229 -0.3514 -0.1468
 2006TIP3   OH2 6023   0.497   4.198   2.608  0.3874  0.3950  0.6081
 2006TIP3    H1 6024   0.458   4.112   2.622  0.5438  0.2446  0.1250
 2006TIP3    H2 6025   0.580   4.195   2.655  0.3463  0.3134  0.6751
 2007TIP3   OH2 6026   2.826   3.508   2.238  0.6046  0.2182 -0.1581
 2007TIP3    H1 6027   2.889   3.554   2.183  0.8055  0.3744  0.2017
 2007TIP3    H2 6028   2.784   3.577   2.289  0.7928  0.0206  0.2667
 2008TIP3   OH2 6029   4.186   3.651   0.088 -0.1028 -0.1242  0.1867
 2008TIP3    H1 6030   4.211   3.614   0.004 -0.1931 -0.1858  0.1866
 2008TIP3    H2 6031   4.266   3.692   0.121  0.8966 -2.9870  1.6126
 2009TIP3   OH2 6032   4.161   5.778   0.212 -0.1101 -0.1892 -0.5260
 2009TIP3    H1 6033   4.211   5.768   0.131  1.0449 -1.3330  0.2854
 2009TIP3    H2 6034   4.070   5.766   0.186  0.2561 -0.6860 -1.6337
 2010TIP3   OH2 6035   4.128   4.541   3.374 -0.0954 -0.3804 -0.0319
 2010TIP3    H1 6036   4.182   4.478   3.326 -0.9748 -1.7704  0.7153
 2010TIP3    H2 6037   4.155   4.529   3.466  1.0445  1.7046 -0.0312
 2011TIP3   OH2 6038   5.529  -0.012   1.568 -0.3126  0.1036  0.0747
 2011TIP3    H1 6039   5.518   0.076   1.533 -3.7997  0.1242  0.8091
 2011TIP3    H2 6040   5.542   0.001   1.662 -0.4684 -0.1372  0.1314
 2012TIP3   OH2 6041   3.254   1.947   1.811 -0.0948 -0.3576 -0.2917
 2012TIP3    H1 6042   3.324   1.911   1.866  1.0911  2.8691  0.5356
 2012TIP3    H2 6043   3.179   1.890   1.827  1.7404 -2.7496  0.3690
 2013TIP3   OH2 6044   3.628   2.134   3.360  0.1250 -0.0942  0.0360
 2013TIP3    H1 6045   3.653   2.222   3.389 -0.2810  0.0199  0.0342
 2013TIP3    H2 6046   3.665   2.128   3.272 -0.1519  0.2081 -0.1032
 2014TIP3   OH2 6047   1.556   0.684   0.662 -0.2433  0.2727  0.1475
 2014TIP3    H1 6048   1.583   0.714   0.749 -2.0534  1.2108  0.4301
 2014TIP3    H2 6049   1.622   0.720   0.603  0.5652  0.2910  1.0394
 2015TIP3   OH2 6050   1.133   0.085   1.914  0.4975 -0.6205 -0.3591
 2015TIP3    H1 6051   1.080   0.153   1.956  1.2025 -0.0163 -0.4197
 2015TIP3    H2 6052   1.079   0.006   1.919  1.0933 -0.9366  2.9297
 2016TIP3   OH2 6053   3.707   1.799   1.366 -0.0778 -0.4708 -0.2800
 2016TIP3    H1 6054   3.712   1.704   1.372 -0.4872 -0.4797  0.0094
 2016TIP3    H2 6055   3.660   1.816   1.284  0.4035 -0.5034 -0.5656
 2017TIP3   OH2 6056   4.671   5.798   1.666 -0.2467 -0.3910 -0.4794
 2017TIP3    H1 6057   4.643   5.887   1.644 -0.1877 -0.0042  0.9355
 2017TIP3    H2 6058   4.601   5.764   1.723 -0.1743 -1.1826 -0.8468
 2018TIP3   OH2 6059   5.957   3.488   2.663 -0.1508 -0.3793 -0.1455
 2018TIP3    H1 6060   5.891   3.481   2.594  0.6736 -0.9310 -0.9210
 2018TIP3    H2 6061   5.921   3.439   2.737 -1.2376  0.5824 -0.0124
 2019TIP3   OH2 6062   2.695   0.504   0.361 -0.5953 -0.6214 -0.4573
 2019TIP3    H1 6063   2.629   0.570   0.336 -1.8639 -1.6980 -0.0738
 2019TIP3    H2 6064   2.659   0.463   0.440  0.6094 -1.1633 -0.1745
 2020TIP3   OH2 6065   2.219   2.799   4.977 -0.2000  0.0106 -0.2356
 2020TIP3    H1 6066   2.258   2.758   4.900  0.5063 -0.1415  0.1884
 2020TIP3    H2 6067   2.217   2.892   4.956 -0.7372 -0.1086 -0.7427
 2021TIP3   OH2 6068   4.687   5.750   1.389  0.0332  0.4432 -0.2030
 2021TIP3    H1 6069   4.739   5.672   1.409  0.8560  0.5442 -1.7594
 2021TIP3    H2 6070   4.653   5.779   1.473  2.0558  0.0504  0.7891
 2022TIP3   OH2 6071   5.974   4.250   0.011 -0.5386  0.4327 -0.2707
 2022TIP3    H1 6072   5.902   4.205  -0.034 -0.8684  0.9610 -0.2796
 2022TIP3    H2 6073   6.020   4.180   0.058  0.7103 -0.4048 -2.5613
 2023TIP3   OH2 6074   0.151   5.900   0.553 -0.7950  0.2670  0.1513
 2023TIP3    H1 6075   0.144   5.831   0.620 -0.1762 -0.3111 -0.3564
 2023TIP3    H2 6076   0.230   5.877   0.504 -0.9515  0.9771 -0.4509
 2024TIP3   OH2 6077   0.654   1.176   2.915 -0.2717 -0.0447 -0.0985
 2024TIP3    H1 6078   0.727   1.115   2.928 -0.2669  0.3143  1.9507
 2024TIP3    H2 6079   0.595   1.158   2.988 -0.2478  2.3948  0.6206
 2025TIP3   OH2 6080   2.832   4.363   2.065  0.1374  0.1110  0.0189
 2025TIP3    H1 6081   2.926   4.364   2.044  0.1723 -0.9987  0.0713
 2025TIP3    H2 6082   2.818   4.443   2.114  1.3303 -0.3110  1.1041
 2026TIP3   OH2 6083   3.898   2.652   3.018 -0.3544  0.1515 -0.1436
 2026TIP3    H1 6084   3.957   2.656   3.094  0.2167  0.5547 -0.5957
 2026TIP3    H2 6085   3.952   2.683   2.945 -1.1987  0.7111 -0.5322
 2027TIP3   OH2 6086   3.511   3.787   0.434  0.1859 -0.1109 -0.4770
 2027TIP3    H1 6087   3.459   3.827   0.504 -1.7272  1.2001 -2.5014
 2027TIP3    H2 6088   3.587   3.845   0.424 -0.0075  0.2136 -0.0936
 2028TIP3   OH2 6089   2.854   4.668   4.361 -0.3918 -0.0909 -0.2983
 2028TIP3    H1 6090   2.939   4.626   4.368 -0.3612  0.0027 -0.1206
 2028TIP3    H2 6091   2.872   4.751   4.318 -0.4983 -0.4014 -0.9631
 2029TIP3   OH2 6092   4.231   2.786   2.039 -0.0279 -0.0079  0.2650
 2029TIP3    H1 6093   4.137   2.774   2.032 -0.1087  1.5020 -4.1687
 2029TIP3    H2 6094   4.243   2.879   2.060  0.4706 -0.0426  0.1664
 2030TIP3   OH2 6095   2.534   1.047   1.507  0.3069  0.3656 -0.2687
 2030TIP3    H1 6096   2.581   1.127   1.530  1.2019 -0.0346 -0.6600
 2030TIP3    H2 6097   2.480   1.071   1.432  0.6181  0.5850 -0.4206
 2031TIP3   OH2 6098   4.685   1.552   1.206 -0.0390 -0.3120 -0.2462
 2031TIP3    H1 6099   4.592   1.539   1.222 -0.2275 -2.7703 -2.6457
 2031TIP3    H2 6100   4.710   1.623   1.265 -3.0732 -0.5629  1.5206
 2032TIP3   OH2 6101   1.533   2.067   1.152  0.0938 -0.2693 -0.1286
 2032TIP3    H1 6102   1.468   2.090   1.086 -0.7838  1.2088  1.1634
 2032TIP3    H2 6103   1.563   2.152   1.187  1.6405 -0.9600  0.3287
 2033TIP3   OH2 6104   5.926   3.630   4.223  0.2392  0.0608 -0.0328
 2033TIP3    H1 6105   5.857   3.691   4.249 -0.4151 -0.3366 -0.8051
 2033TIP3    H2 6106   5.925   3.631   4.128  1.6361  0.4037 -0.0757
 2034TIP3   OH2 6107   0.108   1.956   0.474  0.3357  0.1037  0.0855
 2034TIP3    H1 6108   0.066   1.988   0.394  0.8776 -1.1431 -0.7249
 2034TIP3    H2 6109   0.191   2.004   0.478  0.5957 -0.2941 -0.4531
 2035TIP3   OH2 6110   4.175   3.524   3.527  0.3135  0.4180 -0.0445
 2035TIP3    H1 6111   4.222   3.491   3.604 -0.0407 -0.6491 -0.2658
 2035TIP3    H2 6112   4.083   3.501   3.543  0.1702  0.6276 -0.5531
 2036TIP3   OH2 6113   4.299   4.680   1.337  0.2323 -0.3690 -0.0779
 2036TIP3    H1 6114   4.239   4.744   1.375  0.4805  0.1906 -0.6009
 2036TIP3    H2 6115   4.372   4.676   1.399 -0.2582 -0.9244  0.4745
 2037TIP3   OH2 6116   3.596   4.300   4.346 -0.2743  0.1319  0.1602
 2037TIP3    H1 6117   3.543   4.271   4.272  0.8784  0.8099 -0.9638
 2037TIP3    H2 6118   3.551   4.379   4.378 -0.3018  0.3298 -0.3643
 2038TIP3   OH2 6119   0.058   4.543   2.815  0.7465  0.2056  0.0772
 2038TIP3    H1 6120   0.112   4.464   2.806  0.4340 -0.3216  2.2906
 2038TIP3    H2 6121  -0.021   4.522   2.766  1.3776 -0.1379 -0.8337
 2039TIP3   OH2 6122   0.811   4.843   1.208  0.0432  0.2997 -0.7103
 2039TIP3    H1 6123   0.899   4.857   1.171 -0.2853  3.1628 -0.6203
 2039TIP3    H2 6124   0.771   4.930   1.209 -2.5170 -0.7932  0.0408
 2040TIP3   OH2 6125   2.568   2.882   5.036  0.3368 -0.2843  0.0942
 2040TIP3    H1 6126   2.506   2.855   4.968 -0.3520  0.4256  0.4327
 2040TIP3    H2 6127   2.645   2.911   4.988 -0.4727  1.0466 -0.4426
 2041TIP3   OH2 6128   0.384   2.613   0.808  0.0131  0.4202  0.3208
 2041TIP3    H1 6129   0.347   2.641   0.892 -2.0000  0.3367 -0.4685
 2041TIP3    H2 6130   0.464   2.665   0.799  0.4716  0.1612  2.4302
 2042TIP3   OH2 6131   4.101   2.471   1.675 -0.1681 -0.0245  0.1005
 2042TIP3    H1 6132   4.147   2.481   1.591  1.4909  1.5158  1.1239
 2042TIP3    H2 6133   4.135   2.389   1.711 -0.3506 -0.3253 -0.4019
 2043TIP3   OH2 6134   1.316   4.372   1.062 -0.0572  0.6583  0.1109
 2043TIP3    H1 6135   1.286   4.294   1.109  0.1572 -0.0346 -0.8822
 2043TIP3    H2 6136   1.369   4.338   0.990 -2.2579  1.5534 -2.0433
 2044TIP3   OH2 6137   5.125   3.688   5.053  0.5539  0.1117 -0.3699
 2044TIP3    H1 6138   5.219   3.698   5.038  0.1174  3.3971 -1.8338
 2044TIP3    H2 6139   5.087   3.682   4.965 -0.6687 -0.9759  0.1867
 2045TIP3   OH2 6140   3.814   0.621   0.652  0.4623  0.1360 -0.2809
 2045TIP3    H1 6141   3.797   0.610   0.558  0.1577  0.7889 -0.3073
 2045TIP3    H2 6142   3.735   0.587   0.695  0.0227  1.0602 -0.3208
 2046TIP3   OH2 6143   0.342   4.870   2.780 -0.7881 -0.2690 -0.1926
 2046TIP3    H1 6144   0.287   4.946   2.799  1.1771  1.1686 -0.0187
 2046TIP3    H2 6145   0.358   4.830   2.866 -1.1879 -0.4341 -0.1933
 2047TIP3   OH2 6146   5.334   3.700   0.050  0.0754 -0.1343  0.0244
 2047TIP3    H1 6147   5.401   3.728   0.113  0.2533 -0.7831  0.1285
 2047TIP3    H2 6148   5.256   3.684   0.104  0.0097  0.0394 -0.0190
 2048TIP3   OH2 6149   3.668   0.845   3.328  0.2683 -0.0819 -0.6064
 2048TIP3    H1 6150   3.604   0.834   3.399 -0.9650  0.5027 -1.5895
 2048TIP3    H2 6151   3.650   0.772   3.269  3.5917 -2.7073  1.2415
 2049TIP3   OH2 6152   1.597   3.381   1.250  0.2831  0.2774  0.6819
 2049TIP3    H1 6153   1.612   3.319   1.321  0.6102  0.0059  0.3850
 2049TIP3    H2 6154   1.621   3.333   1.171  1.0124  0.9262  0.4837
 2050TIP3   OH2 6155   4.098   0.789   3.217 -0.2440 -0.7104  0.4327
 2050TIP3    H1 6156   4.033   0.772   3.285 -0.8600 -0.1025  0.0052
 2050TIP3    H2 6157   4.121   0.882   3.228 -1.9563  0.0271 -1.5148
 2051TIP3   OH2 6158   1.508   3.280   4.213 -0.1602  0.2433 -0.6410
 2051TIP3    H1 6159   1.435   3.276   4.151  1.4448 -1.2777 -2.5687
 2051TIP3    H2 6160   1.566   3.347   4.178  1.1234 -1.1407 -1.2801
 2052TIP3   OH2 6161   4.599   3.468   3.550 -0.4375  0.3112  0.2853
 2052TIP3    H1 6162   4.653   3.506   3.619  1.2866  0.7669 -1.2304
 2052TIP3    H2 6163   4.584   3.540   3.489  1.2528 -0.8552 -1.6537
 2053TIP3   OH2 6164   2.132   3.236   2.153  0.6723 -0.2958  0.3160
 2053TIP3    H1 6165   2.208   3.284   2.120  0.8967  0.5136  1.9098
 2053TIP3    H2 6166   2.058   3.295   2.139  0.6530 -0.2644  0.5356
 2054TIP3   OH2 6167   2.405   4.396   1.831 -0.2364  0.6607  0.3514
 2054TIP3    H1 6168   2.484   4.344   1.817 -1.4687 -1.5266  0.9729
 2054TIP3    H2 6169   2.428   4.458   1.900  0.9868  0.2103  0.3626
 2055TIP3   OH2 6170   4.967   5.184   4.368  0.5744 -0.5085 -0.2559
 2055TIP3    H1 6171   5.034   5.119   4.391 -0.1539 -1.2394 -0.1813
 2055TIP3    H2 6172   4.900   5.135   4.321 -0.0037  0.1859 -0.1764
 2056TIP3   OH2 6173   3.795   1.722   3.346 -0.0592  0.2501  0.8669
 2056TIP3    H1 6174   3.818   1.643   3.395  0.9124 -1.0273 -1.5064
 2056TIP3    H2 6175   3.706   1.706   3.314  0.4707 -0.3441 -0.3803
 2057TIP3   OH2 6176   6.215   5.327   1.136  0.6548  0.2725 -0.0799
 2057TIP3    H1 6177   6.146   5.393   1.132 -0.4127 -0.6707  1.5849
 2057TIP3    H2 6178   6.176   5.249   1.097  1.0766 -0.0423  0.1234
 2058TIP3   OH2 6179   6.304   5.717   3.465  0.3957  0.6920 -0.4342
 2058TIP3    H1 6180   6.344   5.687   3.547 -1.3382  1.0176  0.5824
 2058TIP3    H2 6181   6.211   5.693   3.473 -0.1293  2.1375 -1.6187
 2059TIP3   OH2 6182   0.154   0.701   4.780  1.0868 -0.0472 -0.2003
 2059TIP3    H1 6183   0.139   0.687   4.874 -0.8454 -0.0277 -0.4615
 2059TIP3    H2 6184   0.108   0.628   4.737  1.2388  0.4063 -1.1607
 2060TIP3   OH2 6185   0.806   4.659   4.414  0.5468 -0.3931  0.2563
 2060TIP3    H1 6186   0.798   4.569   4.448  1.3937 -0.4460  0.3341
 2060TIP3    H2 6187   0.782   4.651   4.322  0.0178 -0.5819  0.4037
 2061TIP3   OH2 6188   4.097   3.369   2.831 -0.1084  0.4011  0.0280
 2061TIP3    H1 6189   4.160   3.439   2.847 -0.6746  1.1668 -0.9799
 2061TIP3    H2 6190   4.150   3.289   2.831  0.8179  0.9959 -0.4519
 2062TIP3   OH2 6191   5.295   4.695   2.425  0.6108  0.0939 -0.8358
 2062TIP3    H1 6192   5.323   4.767   2.369  1.1447  0.8019  0.3138
 2062TIP3    H2 6193   5.307   4.727   2.514 -1.7325 -0.4036 -0.2648
 2063TIP3   OH2 6194   0.706   3.287   3.336 -0.2376 -0.1579 -0.0947
 2063TIP3    H1 6195   0.780   3.333   3.374 -1.2545  0.6184  1.0143
 2063TIP3    H2 6196   0.730   3.195   3.342  0.0718 -0.0057  1.5317
 2064TIP3   OH2 6197   2.007   0.209   2.880 -0.4879  0.5343  0.5954
 2064TIP3    H1 6198   1.998   0.154   2.958  0.2176  2.1537  1.8671
 2064TIP3    H2 6199   2.028   0.296   2.914  1.4069  0.9726 -1.4548
 2065TIP3   OH2 6200   3.864   5.237   4.520  0.2815  0.3714 -0.0810
 2065TIP3    H1 6201   3.892   5.162   4.466  0.5522 -0.8882  1.7162
 2065TIP3    H2 6202   3.905   5.221   4.605  0.0178  2.3923  0.4680
 2066TIP3   OH2 6203   4.801   1.705   4.630  0.0686 -0.2927  0.5513
 2066TIP3    H1 6204   4.773   1.777   4.686  0.3654 -0.0184  0.3482
 2066TIP3    H2 6205   4.776   1.626   4.678  0.6852 -0.0695  1.2650
 2067TIP3   OH2 6206   0.060   2.181   4.497 -0.4364 -0.1054 -0.0110
 2067TIP3    H1 6207   0.100   2.261   4.530  0.3658 -0.9725  1.1505
 2067TIP3    H2 6208   0.070   2.187   4.402 -1.9070  1.9553 -0.1067
 2068TIP3   OH2 6209   2.450   5.370   4.122 -0.9604 -0.3564 -0.0001
 2068TIP3    H1 6210   2.359   5.340   4.130 -0.9953 -0.5512 -1.0159
 2068TIP3    H2 6211   2.493   5.301   4.072 -0.0854 -0.5758  1.0299
 2069TIP3   OH2 6212   4.565   1.894   1.363  0.2574  0.4414 -0.1794
 2069TIP3    H1 6213   4.513   1.844   1.425 -1.0026 -0.0091 -1.5376
 2069TIP3    H2 6214   4.633   1.832   1.333  0.4294  0.4412  0.2024
 2070TIP3   OH2 6215   2.694   1.530   4.971 -0.3333 -0.1544  0.4000
 2070TIP3    H1 6216   2.741   1.591   5.026 -0.6151 -0.9211  1.5233
 2070TIP3    H2 6217   2.621   1.580   4.936  1.0332  0.9454 -1.0632
 2071TIP3   OH2 6218   4.999   2.213   2.467 -0.2212  0.2409  0.3073
 2071TIP3    H1 6219   4.990   2.279   2.398 -0.4037  0.5316  0.6058
 2071TIP3    H2 6220   5.091   2.188   2.465 -0.7271 -1.8807 -1.9943
 2072TIP3   OH2 6221   5.825   0.567   3.137 -0.1581 -0.2006 -0.0599
 2072TIP3    H1 6222   5.895   0.562   3.072 -0.5945 -2.3427 -0.4126
 2072TIP3    H2 6223   5.745   0.547   3.088 -0.8275  0.5762  0.6733
 2073TIP3   OH2 6224   4.833   0.671   3.332 -0.4988 -0.4523  0.1303
 2073TIP3    H1 6225   4.922   0.702   3.348 -0.4274 -1.5850  2.3335
 2073TIP3    H2 6226   4.842   0.576   3.321 -0.8337 -0.1567 -5.4004
 2074TIP3   OH2 6227   1.655   3.006   5.159 -0.6991 -0.7206 -0.2296
 2074TIP3    H1 6228   1.592   2.934   5.167 -1.1002 -0.9676 -3.9473
 2074TIP3    H2 6229   1.739   2.963   5.144 -0.0219 -0.3558  2.1514
 2075TIP3   OH2 6230   4.537   2.172   2.230 -0.1547 -0.0720 -0.3891
 2075TIP3    H1 6231   4.624   2.208   2.245  0.0210 -0.1992 -1.0681
 2075TIP3    H2 6232   4.545   2.078   2.248 -0.3240  0.0322  0.2321
 2076TIP3   OH2 6233   0.578   4.707   1.179  0.7340  0.9437  0.2072
 2076TIP3    H1 6234   0.656   4.759   1.199  1.3157  0.1914 -0.0550
 2076TIP3    H2 6235   0.556   4.730   1.089  1.0657  0.6465  0.0489
 2077TIP3   OH2 6236   3.641   2.435   2.212 -0.3907  0.6543 -0.0368
 2077TIP3    H1 6237   3.603   2.521   2.194 -0.0853  1.1105  1.3131
 2077TIP3    H2 6238   3.605   2.412   2.298 -0.7263 -0.7329 -0.5333
 2078TIP3   OH2 6239   5.012   2.458   0.690  0.5211 -0.1649 -0.0035
 2078TIP3    H1 6240   4.960   2.468   0.610 -1.4770 -0.2753  1.2018
 2078TIP3    H2 6241   4.998   2.539   0.738  1.0249 -0.4275  0.5959
 2079TIP3   OH2 6242   5.873   0.811   1.684 -0.1920 -0.0208 -0.1078
 2079TIP3    H1 6243   5.957   0.774   1.712 -0.2470  0.1057  0.2354
 2079TIP3    H2 6244   5.823   0.737   1.650  0.8581  0.2163 -2.3389
 2080TIP3   OH2 6245   0.687   3.497   0.114 -0.5642 -0.4597 -0.0702
 2080TIP3    H1 6246   0.699   3.509   0.208  3.5365 -1.5279 -0.2439
 2080TIP3    H2 6247   0.671   3.584   0.079  0.3521  0.3464  1.4321
 2081TIP3   OH2 6248   4.198   1.791   2.229  0.3702 -0.5854 -0.1828
 2081TIP3    H1 6249   4.111   1.787   2.188 -0.0885  0.8137  0.5584
 2081TIP3    H2 6250   4.182   1.767   2.320  0.7980 -0.5052 -0.0871
 2082TIP3   OH2 6251   4.405   5.519   4.856  0.6839 -0.5787 -0.3799
 2082TIP3    H1 6252   4.363   5.604   4.872  0.4302 -1.1581  2.6367
 2082TIP3    H2 6253   4.498   5.539   4.849  0.4766  0.1014 -1.4774
 2083TIP3   OH2 6254   0.268   2.515   4.266 -0.3503 -0.2156  0.1388
 2083TIP3    H1 6255   0.179   2.493   4.239  0.1271 -2.8939  0.4501
 2083TIP3    H2 6256   0.315   2.527   4.183 -0.4678 -1.2630 -0.0896
 2084TIP3   OH2 6257   0.832   1.541   0.402 -0.1276 -0.0329 -0.0578
 2084TIP3    H1 6258   0.835   1.562   0.495 -1.8831  0.7867 -0.1377
 2084TIP3    H2 6259   0.748   1.495   0.390  0.7059 -1.3915 -1.0155
 2085TIP3   OH2 6260   4.521   3.635   5.017  0.0767 -0.0077  0.0845
 2085TIP3    H1 6261   4.608   3.596   5.014  0.1810  0.2701 -0.9579
 2085TIP3    H2 6262   4.529   3.715   4.964 -0.6687  0.3179  0.4450
 2086TIP3   OH2 6263   6.259   1.601   4.990 -0.2851  0.3805  0.6176
 2086TIP3    H1 6264   6.346   1.580   4.954 -0.6540 -1.9410  0.9401
 2086TIP3    H2 6265   6.234   1.524   5.040 -2.0739  1.4625  1.5016
 2087TIP3   OH2 6266   5.931   0.085   1.366 -0.1146  0.3524  0.2485
 2087TIP3    H1 6267   5.900   0.092   1.276 -0.6812  0.4179  0.4431
 2087TIP3    H2 6268   5.989   0.160   1.378 -0.1106  0.3942 -0.0321
 2088TIP3   OH2 6269   5.333   5.892   1.216 -1.1357  0.0547  0.0427
 2088TIP3    H1 6270   5.391   5.941   1.158  1.1551 -1.2991  1.0797
 2088TIP3    H2 6271   5.281   5.960   1.259  1.6763  1.6717  1.1693
 2089TIP3   OH2 6272   4.669   0.064   0.882  0.0198 -0.8040 -0.1300
 2089TIP3    H1 6273   4.723   0.095   0.809 -0.9216 -0.3082 -0.6456
 2089TIP3    H2 6274   4.687  -0.030   0.887  1.1123 -0.6048 -0.1175
 2090TIP3   OH2 6275   6.268   3.875   0.405  0.4137  0.3334  0.5984
 2090TIP3    H1 6276   6.248   3.893   0.497  0.6842  0.6673  0.5914
 2090TIP3    H2 6277   6.252   3.781   0.396 -0.9883  0.5443  0.6283
 2091TIP3   OH2 6278   4.135   3.175   3.579  0.4119  0.5477  0.1658
 2091TIP3    H1 6279   4.109   3.118   3.651  0.1459 -0.5799 -0.7983
 2091TIP3    H2 6280   4.079   3.252   3.589 -1.4910 -0.7118 -0.3272
 2092TIP3   OH2 6281   5.302   3.348   5.031 -0.1323  0.6496  0.0544
 2092TIP3    H1 6282   5.357   3.307   5.098  1.3625 -0.1962 -1.5876
 2092TIP3    H2 6283   5.362   3.364   4.958 -1.9146  0.4555 -1.5258
 2093TIP3   OH2 6284   0.979   3.654   0.115  0.0721 -0.0179  0.3363
 2093TIP3    H1 6285   1.058   3.604   0.095  1.2478  1.2602  1.5615
 2093TIP3    H2 6286   0.945   3.612   0.194 -1.2778 -1.4022 -0.9209
 2094TIP3   OH2 6287   5.690   3.758   4.629 -0.0628  0.4749  0.0744
 2094TIP3    H1 6288   5.670   3.665   4.620 -1.6115  0.9319 -1.7452
 2094TIP3    H2 6289   5.707   3.788   4.540  2.3009  1.5901  0.8171
 2095TIP3   OH2 6290   3.122   4.863   0.994  0.1111  0.2982 -0.0348
 2095TIP3    H1 6291   3.130   4.955   0.967 -0.0494  0.3542  0.1052
 2095TIP3    H2 6292   3.107   4.868   1.088  0.2698  0.1200 -0.0004
 2096TIP3   OH2 6293   4.605   5.264   0.426 -0.4068 -0.3779  0.0274
 2096TIP3    H1 6294   4.554   5.183   0.432 -1.2922  0.2156  0.9185
 2096TIP3    H2 6295   4.653   5.268   0.508  0.1716 -0.3347 -0.3087
 2097TIP3   OH2 6296   1.661   2.310   1.041 -0.3015  0.3953  0.2653
 2097TIP3    H1 6297   1.612   2.391   1.056 -0.8768  0.2625 -0.7997
 2097TIP3    H2 6298   1.751   2.331   1.069 -0.4985  1.3127  0.2434
 2098TIP3   OH2 6299   4.412   0.382   0.868 -0.9527  0.2193 -0.8085
 2098TIP3    H1 6300   4.372   0.315   0.925  0.1840  0.4907  0.3709
 2098TIP3    H2 6301   4.418   0.340   0.782 -1.1714 -0.8394 -0.3227
 2099TIP3   OH2 6302   6.089   2.599   0.605  0.0349 -0.3291  0.5139
 2099TIP3    H1 6303   6.124   2.511   0.597  2.0771  0.3568  1.3535
 2099TIP3    H2 6304   6.155   2.655   0.567  0.0486  1.0548  2.4058
 2100TIP3   OH2 6305   0.022   2.583   0.773 -0.5235  0.1418  0.1787
 2100TIP3    H1 6306   0.096   2.575   0.713  0.2002 -0.2401  1.0936
 2100TIP3    H2 6307  -0.004   2.493   0.791  0.7737  0.0932  2.2107
 2101TIP3   OH2 6308   1.022   3.405   3.845  0.0135 -0.3240  0.5209
 2101TIP3    H1 6309   0.980   3.417   3.930 -0.6121  0.8260  0.0791
 2101TIP3    H2 6310   1.107   3.448   3.854 -0.2784  0.2940  0.4119
 2102TIP3   OH2 6311   4.898   2.147   1.840  0.1787 -0.3082 -0.6615
 2102TIP3    H1 6312   4.934   2.227   1.802 -1.5123  1.5554  1.3987
 2102TIP3    H2 6313   4.936   2.143   1.928 -0.2307 -1.4461 -0.5201
 2103TIP3   OH2 6314   3.717   2.307   3.892 -0.4247 -0.0358  0.1042
 2103TIP3    H1 6315   3.649   2.364   3.857 -0.1325  0.4600  0.3320
 2103TIP3    H2 6316   3.731   2.338   3.982  0.9327  0.6488 -0.3207
 2104TIP3   OH2 6317   2.131   5.329   5.160 -0.1462 -0.1024 -0.2457
 2104TIP3    H1 6318   2.043   5.335   5.195 -0.1022  1.9370 -0.3954
 2104TIP3    H2 6319   2.121   5.288   5.075 -1.1802  1.5122 -0.9377
 2105TIP3   OH2 6320   0.466   5.322   1.896 -0.0292 -0.0256  0.5266
 2105TIP3    H1 6321   0.499   5.235   1.873  0.8752 -0.1368  2.1041
 2105TIP3    H2 6322   0.392   5.306   1.955  0.4844  0.2538  1.2652
 2106TIP3   OH2 6323   6.102   0.417   4.187  0.2628  0.0254 -0.0662
 2106TIP3    H1 6324   6.173   0.363   4.222  1.1508  1.1719 -0.0478
 2106TIP3    H2 6325   6.069   0.367   4.112  0.3345 -1.0378  0.5917
 2107TIP3   OH2 6326   3.106   2.070   2.177  0.3863 -0.0098 -0.1903
 2107TIP3    H1 6327   3.145   1.986   2.197 -0.2844  0.2939  2.8411
 2107TIP3    H2 6328   3.158   2.134   2.226  0.2339  1.2661 -1.5810
 2108TIP3   OH2 6329   4.325   5.532   1.617 -0.5100 -0.2783 -0.8866
 2108TIP3    H1 6330   4.242   5.572   1.643  0.7558  1.9759  0.0041
 2108TIP3    H2 6331   4.354   5.582   1.541  2.2468  2.4272  1.6388
 2109TIP3   OH2 6332   2.092   2.575   0.626  0.0893 -0.1871  0.1541
 2109TIP3    H1 6333   2.050   2.497   0.591  2.4867 -0.4537 -2.4592
 2109TIP3    H2 6334   2.185   2.554   0.629  0.6907  2.1694  0.4685
 2110TIP3   OH2 6335   1.302   0.448   1.655 -0.4168  0.1289 -0.7235
 2110TIP3    H1 6336   1.327   0.528   1.702  0.3195 -0.1990 -0.5361
 2110TIP3    H2 6337   1.383   0.396   1.653 -1.2241 -1.2577  0.4797
 2111TIP3   OH2 6338   2.440   3.528   0.424 -0.1066  0.6670  0.2061
 2111TIP3    H1 6339   2.530   3.506   0.398  0.0263  1.2821  0.1172
 2111TIP3    H2 6340   2.451   3.592   0.494 -0.4727  1.8811 -0.8223
 2112TIP3   OH2 6341   0.366   5.434   4.465  0.1946 -0.1923 -0.0502
 2112TIP3    H1 6342   0.317   5.371   4.412 -0.1611 -0.3818  0.4983
 2112TIP3    H2 6343   0.302   5.469   4.527  0.0290  1.7500 -1.2122
 2113TIP3   OH2 6344   0.334   0.768   3.033 -0.4717  0.0461  0.1729
 2113TIP3    H1 6345   0.429   0.767   3.048  0.0592  2.4565 -2.2095
 2113TIP3    H2 6346   0.298   0.810   3.112  0.5382 -0.1189  0.7432
 2114TIP3   OH2 6347   0.266   4.479   3.965 -0.0648 -0.0074  0.2155
 2114TIP3    H1 6348   0.315   4.549   3.922 -2.0056  0.7060 -0.9478
 2114TIP3    H2 6349   0.212   4.440   3.896  0.9218 -2.7130  0.8122
 2115TIP3   OH2 6350   1.016   0.469   2.240  0.3444  0.5231  0.1077
 2115TIP3    H1 6351   1.106   0.491   2.262  0.5682 -0.5904  0.3335
 2115TIP3    H2 6352   0.973   0.452   2.324 -0.2812  1.7599  0.0603
 2116TIP3   OH2 6353   6.316   1.729   4.144 -0.0418 -0.0747 -0.3871
 2116TIP3    H1 6354   6.407   1.705   4.129 -0.3760 -1.1126 -0.8583
 2116TIP3    H2 6355   6.283   1.660   4.202 -0.0660  1.2498  1.2316
 2117TIP3   OH2 6356   1.913   1.230   0.158  0.3954 -0.4678  0.0611
 2117TIP3    H1 6357   1.873   1.179   0.229  0.0485  0.7548  0.7826
 2117TIP3    H2 6358   2.001   1.251   0.190  0.1548  0.2903  0.2616
 2118TIP3   OH2 6359   6.118   4.151   3.533 -0.0766 -0.0950 -0.3506
 2118TIP3    H1 6360   6.185   4.097   3.575 -0.7242 -2.2462 -1.8520
 2118TIP3    H2 6361   6.077   4.200   3.604  0.7715 -1.3985  1.0879
 2119TIP3   OH2 6362   0.119   2.397   0.418  0.4897 -0.3395  0.0617
 2119TIP3    H1 6363   0.100   2.366   0.329  1.6481 -1.6381  0.2396
 2119TIP3    H2 6364   0.126   2.492   0.409 -1.0314 -0.2822 -0.9091
 2120TIP3   OH2 6365   1.960   0.282   0.521 -0.4815  0.4587  0.3815
 2120TIP3    H1 6366   1.985   0.369   0.491 -2.3419  1.8065  2.4027
 2120TIP3    H2 6367   1.999   0.275   0.608  0.3535 -1.1161 -0.0830
 2121TIP3   OH2 6368   3.535   2.709   0.758  0.1621  0.2989 -0.0277
 2121TIP3    H1 6369   3.481   2.752   0.824  0.9795  0.7246  0.3839
 2121TIP3    H2 6370   3.488   2.723   0.675 -0.7867 -0.1061  0.4346
 2122TIP3   OH2 6371   4.676   1.910   3.577 -0.2670  0.1315 -0.1634
 2122TIP3    H1 6372   4.660   1.985   3.634 -1.3258 -0.9871  1.0996
 2122TIP3    H2 6373   4.771   1.903   3.573 -0.1648  0.9187  0.5576
 2123TIP3   OH2 6374   1.601   0.277   3.328 -0.0437 -0.0370  0.3743
 2123TIP3    H1 6375   1.544   0.329   3.384  0.3322  0.3091  0.4420
 2123TIP3    H2 6376   1.668   0.242   3.386 -0.5115 -0.9257  0.3967
 2124TIP3   OH2 6377   2.680   4.295   1.741  0.2604  0.7961  0.0609
 2124TIP3    H1 6378   2.720   4.215   1.774  0.7694 -0.7529 -3.7472
 2124TIP3    H2 6379   2.725   4.311   1.657 -1.3945  3.8128 -0.3915
 2125TIP3   OH2 6380   1.000   1.933   0.337 -0.1740 -0.2912  0.3244
 2125TIP3    H1 6381   0.964   2.019   0.316 -0.0135 -0.1968  0.4355
 2125TIP3    H2 6382   0.976   1.918   0.428  0.9448  0.2244  0.7282
 2126TIP3   OH2 6383   3.495   1.281   3.549  0.0052  0.3483 -0.2366
 2126TIP3    H1 6384   3.432   1.295   3.619  1.1308 -0.8575  1.0820
 2126TIP3    H2 6385   3.531   1.368   3.531  0.7180  0.5004  1.7063
 2127TIP3   OH2 6386   4.274   1.065   2.433 -0.2237  0.1002  0.7316
 2127TIP3    H1 6387   4.190   1.031   2.399 -1.7927  0.6791  3.7120
 2127TIP3    H2 6388   4.279   1.153   2.398 -0.8652  0.0536  0.4956
 2128TIP3   OH2 6389   0.119   3.432   1.206  0.1239 -0.0466 -0.4433
 2128TIP3    H1 6390   0.080   3.436   1.119  1.0115  1.0640 -0.8139
 2128TIP3    H2 6391   0.208   3.400   1.192  0.5337  0.8869 -0.0513
 2129TIP3   OH2 6392   5.734   0.051   4.574 -0.3551 -0.3535  0.3545
 2129TIP3    H1 6393   5.710   0.098   4.654 -2.0076  0.6365 -0.6625
 2129TIP3    H2 6394   5.816   0.091   4.545 -0.0865 -0.2883  1.1934
 2130TIP3   OH2 6395   3.940   4.504   3.647 -0.3373  0.1375  0.3439
 2130TIP3    H1 6396   3.978   4.581   3.605 -0.3868 -0.5180 -0.9664
 2130TIP3    H2 6397   4.014   4.444   3.657 -0.4042  0.1327  0.8675
 2131TIP3   OH2 6398   1.121   5.227   2.620 -0.0728 -0.1810  0.1274
 2131TIP3    H1 6399   1.091   5.186   2.701 -0.7755 -0.1440 -0.1060
 2131TIP3    H2 6400   1.052   5.289   2.597 -1.4391 -2.3464 -2.1249
 2132TIP3   OH2 6401   1.235   4.818   1.779 -0.8969  0.1642  0.4976
 2132TIP3    H1 6402   1.229   4.890   1.842 -1.8935  1.2030 -0.7420
 2132TIP3    H2 6403   1.149   4.777   1.781 -1.1775  0.6487 -0.6622
 2133TIP3   OH2 6404   3.148   0.720   3.085 -0.0034  0.1704  0.0586
 2133TIP3    H1 6405   3.186   0.804   3.110  0.0139 -0.0052  0.6253
 2133TIP3    H2 6406   3.153   0.720   2.989 -1.1572  1.3725 -0.0428
 2134TIP3   OH2 6407   5.301   5.389   3.602 -0.4417  0.0139 -0.2363
 2134TIP3    H1 6408   5.384   5.410   3.645 -0.3134 -0.2800 -0.3346
 2134TIP3    H2 6409   5.276   5.470   3.557  0.3308 -0.1983 -1.0789
 2135TIP3   OH2 6410   0.135   1.999   4.905 -0.0149 -0.3432 -0.3749
 2135TIP3    H1 6411   0.131   1.983   4.811 -0.5226  0.1460 -0.4478
 2135TIP3    H2 6412   0.198   1.936   4.938 -1.1248 -1.7074 -0.7851
 2136TIP3   OH2 6413   6.043   4.381   4.622 -0.3294 -0.8116  0.1698
 2136TIP3    H1 6414   6.109   4.449   4.634 -1.3300  0.7599 -2.3588
 2136TIP3    H2 6415   5.992   4.383   4.703 -0.8139  2.0896 -0.1040
 2137TIP3   OH2 6416   0.813   2.642   1.881 -0.3854  0.2071 -0.6674
 2137TIP3    H1 6417   0.892   2.590   1.892 -0.3390  0.5523  0.9080
 2137TIP3    H2 6418   0.835   2.705   1.812  0.3800 -0.2979 -0.8968
 2138TIP3   OH2 6419   1.386   4.055   1.464 -0.4219  0.7325 -0.2631
 2138TIP3    H1 6420   1.329   4.128   1.441 -1.0538  0.2097 -0.3654
 2138TIP3    H2 6421   1.460   4.096   1.508 -1.7229  1.2987  1.5233
 2139TIP3   OH2 6422   5.370   1.832   1.084 -0.0257  1.1282 -0.1960
 2139TIP3    H1 6423   5.294   1.880   1.050 -0.8953 -0.4150 -0.5366
 2139TIP3    H2 6424   5.421   1.810   1.006 -0.6017 -0.0572 -0.2643
 2140TIP3   OH2 6425   5.052   2.702   2.849  0.4389  0.2699 -0.2304
 2140TIP3    H1 6426   4.994   2.667   2.782  3.5650 -0.5015 -2.8045
 2140TIP3    H2 6427   5.055   2.796   2.833  1.3479  0.0584 -1.3987
 2141TIP3   OH2 6428   6.191   4.683   0.774  0.3450 -0.0581  0.1625
 2141TIP3    H1 6429   6.207   4.772   0.744 -0.8422  0.7663  1.8255
 2141TIP3    H2 6430   6.243   4.675   0.854 -1.5705  0.1053  1.4892
 2142TIP3   OH2 6431   1.002   5.290   0.144 -0.1416  0.1751 -0.4027
 2142TIP3    H1 6432   0.912   5.257   0.139 -0.7736  1.5214  1.2183
 2142TIP3    H2 6433   1.004   5.365   0.085 -0.2715  0.5022  0.0007
 2143TIP3   OH2 6434   3.311   1.663   1.929  0.0114 -0.1034 -0.1214
 2143TIP3    H1 6435   3.370   1.641   2.001 -1.1343 -0.4346  0.7200
 2143TIP3    H2 6436   3.229   1.620   1.949 -1.1960  1.9803 -0.2309
 2144TIP3   OH2 6437   0.914   1.419   4.704  0.1787 -0.2466 -0.4258
 2144TIP3    H1 6438   0.987   1.479   4.690 -0.0538  0.1430 -0.0149
 2144TIP3    H2 6439   0.937   1.372   4.784 -0.7070  0.9628  0.5811
 2145TIP3   OH2 6440   0.265   4.937   3.688 -0.0687  0.6495  0.9500
 2145TIP3    H1 6441   0.285   4.916   3.779  0.7704  0.9012  0.8351
 2145TIP3    H2 6442   0.346   4.918   3.641 -1.1212 -1.5328 -0.1213
 2146TIP3   OH2 6443   0.265   0.505   3.416  0.5004  0.4981  0.4890
 2146TIP3    H1 6444   0.183   0.550   3.433 -0.2370 -1.2280  1.6476
 2146TIP3    H2 6445   0.261   0.483   3.323 -0.0119  1.0618  0.3726
 2147TIP3   OH2 6446   4.138   1.675   0.118  0.3946  0.2329 -0.1352
 2147TIP3    H1 6447   4.179   1.657   0.033 -0.2247  1.8011 -0.8158
 2147TIP3    H2 6448   4.060   1.620   0.119  1.1208 -0.8225  0.0367
 2148TIP3   OH2 6449   1.857   3.622   1.046  0.0686 -0.3539 -0.2961
 2148TIP3    H1 6450   1.905   3.646   0.967 -0.4099  1.5671 -0.0646
 2148TIP3    H2 6451   1.925   3.614   1.114  0.4257 -1.5055 -0.7724
 2149TIP3   OH2 6452   2.595   2.378   0.613  0.7948  0.3011 -0.1904
 2149TIP3    H1 6453   2.610   2.354   0.705  1.6931 -0.2427 -0.4665
 2149TIP3    H2 6454   2.615   2.471   0.609  1.4310  0.1802  0.0340
 2150TIP3   OH2 6455   4.521   0.835   4.259  0.4106 -0.0263  0.1146
 2150TIP3    H1 6456   4.590   0.809   4.320  1.6094  0.6960 -0.8981
 2150TIP3    H2 6457   4.539   0.786   4.179 -0.4513 -0.0727 -0.0676
 2151TIP3   OH2 6458   3.715   3.762   4.929 -0.3653 -0.2220  0.2330
 2151TIP3    H1 6459   3.674   3.839   4.889  0.2767  1.0420  1.9157
 2151TIP3    H2 6460   3.713   3.696   4.860 -0.0535  1.5871 -1.6022
 2152TIP3   OH2 6461   4.616   4.482   2.539 -0.0587  0.1578 -0.1344
 2152TIP3    H1 6462   4.688   4.545   2.551  1.5684 -1.7942  1.0584
 2152TIP3    H2 6463   4.613   4.466   2.445 -1.1181  2.6113 -0.5907
 2153TIP3   OH2 6464   0.539   3.239   1.505  0.1650 -0.2537 -0.1673
 2153TIP3    H1 6465   0.480   3.313   1.493 -0.3127 -0.2904  1.6214
 2153TIP3    H2 6466   0.545   3.199   1.419 -2.2889 -0.1177 -0.4798
 2154TIP3   OH2 6467   0.380   2.376   1.709  0.7725 -0.0326 -0.1810
 2154TIP3    H1 6468   0.456   2.373   1.767 -0.8510 -1.0995  2.0589
 2154TIP3    H2 6469   0.371   2.468   1.685  1.8867  0.3301  0.7258
 2155TIP3   OH2 6470   5.775   3.282   4.048 -0.1304 -0.5913  0.3520
 2155TIP3    H1 6471   5.759   3.250   4.137  0.7573 -0.3392  0.6113
 2155TIP3    H2 6472   5.709   3.349   4.034  0.0876 -0.2300  1.0381
 2156TIP3   OH2 6473   4.676   0.956   1.771 -0.3381  0.0692  0.0427
 2156TIP3    H1 6474   4.629   1.040   1.773 -0.1686  0.1637  0.0997
 2156TIP3    H2 6475   4.653   0.917   1.687 -0.3655  0.2027 -0.0115
 2157TIP3   OH2 6476   6.283   4.369   0.993 -0.4444 -0.0876 -0.3833
 2157TIP3    H1 6477   6.226   4.375   1.069  1.7542 -1.5743  1.4916
 2157TIP3    H2 6478   6.291   4.460   0.961 -2.4325  0.3709  0.2908
 2158TIP3   OH2 6479   3.400   3.638   5.135  0.0855 -0.0729 -0.0412
 2158TIP3    H1 6480   3.380   3.641   5.042 -2.2039 -0.7418  0.3617
 2158TIP3    H2 6481   3.461   3.565   5.144 -0.7222 -0.8931 -0.8855
 2159TIP3   OH2 6482   0.440   5.808   0.792 -0.4299  0.2284  0.1638
 2159TIP3    H1 6483   0.476   5.853   0.716 -0.8116  2.0494  0.9942
 2159TIP3    H2 6484   0.393   5.733   0.756 -1.3189  1.5111 -1.4913
 2160TIP3   OH2 6485   0.864   3.026   3.388  0.4609 -0.1980  0.2112
 2160TIP3    H1 6486   0.946   3.012   3.341  1.4814 -0.2261  1.9138
 2160TIP3    H2 6487   0.823   2.939   3.391  1.4569 -0.6560  1.2447
 2161TIP3   OH2 6488   2.586   0.193   5.059 -0.4245  0.1101  0.6256
 2161TIP3    H1 6489   2.623   0.280   5.076 -0.3648 -0.0445  1.3285
 2161TIP3    H2 6490   2.572   0.190   4.964  1.3542  0.1736  0.3387
 2162TIP3   OH2 6491   4.460   0.101   3.381  0.2850 -1.0305 -0.6598
 2162TIP3    H1 6492   4.485   0.193   3.381 -1.0686 -0.6139 -2.0016
 2162TIP3    H2 6493   4.380   0.098   3.329 -1.4380 -2.5133  1.8182
 2163TIP3   OH2 6494   0.668   4.156   1.154  0.1961 -0.3632 -0.2140
 2163TIP3    H1 6495   0.601   4.087   1.162  0.9603 -0.9912  1.1613
 2163TIP3    H2 6496   0.742   4.112   1.112 -0.0661  0.2156 -1.3223
 2164TIP3   OH2 6497   5.513   0.948   1.674 -0.1306  0.8700 -0.1635
 2164TIP3    H1 6498   5.511   1.009   1.748  0.4023 -1.1245  1.6020
 2164TIP3    H2 6499   5.428   0.959   1.631 -1.2589  0.7758  1.9240
 2165TIP3   OH2 6500   1.400   1.309   0.774 -0.0248 -0.6600  0.1686
 2165TIP3    H1 6501   1.345   1.321   0.852 -1.4285  0.5000 -0.9328
 2165TIP3    H2 6502   1.416   1.215   0.769 -0.1821 -0.7868  1.6647
 2166TIP3   OH2 6503   3.382   1.489   0.608 -0.3376  0.5358 -0.1004
 2166TIP3    H1 6504   3.451   1.436   0.648 -0.9714 -0.0068  0.2919
 2166TIP3    H2 6505   3.301   1.457   0.648 -0.9921 -0.0048 -1.7666
 2167TIP3   OH2 6506   6.029   5.815   3.264  0.6111  0.1497  0.1386
 2167TIP3    H1 6507   6.117   5.834   3.229  0.7725 -0.4853  0.1878
 2167TIP3    H2 6508   6.027   5.720   3.273 -0.2374  0.1189 -0.2622
 2168TIP3   OH2 6509   1.803   5.393   2.760  0.9401  0.0174  0.4705
 2168TIP3    H1 6510   1.757   5.464   2.715 -0.8825 -0.6254  1.2408
 2168TIP3    H2 6511   1.894   5.403   2.733  0.4165  1.5176 -0.8917
 2169TIP3   OH2 6512   2.754   5.869   1.992 -1.1310 -0.5415  0.7285
 2169TIP3    H1 6513   2.838   5.896   2.029  0.2947 -1.6662 -1.4408
 2169TIP3    H2 6514   2.689   5.898   2.055  0.8633  0.6390  2.3545
 2170TIP3   OH2 6515   0.591   3.840   1.847  0.1788  0.4396 -0.0308
 2170TIP3    H1 6516   0.650   3.770   1.823 -1.1219 -1.2976  1.5227
 2170TIP3    H2 6517   0.646   3.903   1.895  0.6908 -1.5788  2.2118
 2171TIP3   OH2 6518   2.978   3.371   3.787  0.5115 -0.1005  0.3514
 2171TIP3    H1 6519   2.965   3.315   3.711 -1.5370  1.0253 -0.2048
 2171TIP3    H2 6520   2.993   3.458   3.749  1.5190  0.1257  1.2267
 2172TIP3   OH2 6521   5.078   1.741   2.048 -0.1269  0.4405  0.4146
 2172TIP3    H1 6522   5.035   1.726   1.964  2.0376 -0.0008 -0.6862
 2172TIP3    H2 6523   5.047   1.669   2.104  0.8191 -1.1294 -1.0167
 2173TIP3   OH2 6524   3.786   1.204   0.374 -0.6831  0.4193  0.0994
 2173TIP3    H1 6525   3.860   1.182   0.430 -0.9727  0.2920  0.4352
 2173TIP3    H2 6526   3.776   1.299   0.385  0.9678  0.8748 -1.8426
 2174TIP3   OH2 6527   1.666   3.059   4.145  0.1254 -0.2047  0.2929
 2174TIP3    H1 6528   1.744   3.110   4.128  1.0502 -1.2458  1.2459
 2174TIP3    H2 6529   1.597   3.124   4.162  1.1146  0.7140  0.8775
 2175TIP3   OH2 6530   4.732   5.491   3.264 -0.0060  0.3539  0.4218
 2175TIP3    H1 6531   4.723   5.396   3.273 -0.2727  0.2150 -1.1525
 2175TIP3    H2 6532   4.807   5.503   3.207 -0.3725  1.0712  0.0767
 2176TIP3   OH2 6533   1.859   3.747   0.217  0.4324 -0.6830 -0.0141
 2176TIP3    H1 6534   1.772   3.739   0.177 -0.1734  4.8019 -0.5627
 2176TIP3    H2 6535   1.845   3.799   0.296  3.0703 -1.4286  1.0648
 2177TIP3   OH2 6536   5.581   0.202   3.121  0.4248 -0.2334 -0.5147
 2177TIP3    H1 6537   5.599   0.204   3.215  3.0337 -0.0646 -0.9554
 2177TIP3    H2 6538   5.532   0.121   3.108  1.3118 -1.0187  0.8017
 2178TIP3   OH2 6539   5.852   1.519   2.058 -0.0791 -0.0613  0.1041
 2178TIP3    H1 6540   5.943   1.489   2.059 -0.5622 -1.6169  0.6509
 2178TIP3    H2 6541   5.814   1.480   1.979 -0.0346  1.4562 -0.7095
 2179TIP3   OH2 6542   3.559   5.273   1.126  0.3817  0.9648 -0.3291
 2179TIP3    H1 6543   3.465   5.273   1.106 -0.1694 -1.2270  1.7235
 2179TIP3    H2 6544   3.599   5.225   1.054 -0.9209 -2.7952  1.1582
 2180TIP3   OH2 6545   1.340   5.590   2.672 -0.1351  0.0418  0.4507
 2180TIP3    H1 6546   1.333   5.575   2.767  1.5078 -0.5798  0.5084
 2180TIP3    H2 6547   1.253   5.622   2.647 -0.8861 -0.6297  2.0072
 2181TIP3   OH2 6548   0.787   1.411   2.793 -0.2931  0.8121 -0.7396
 2181TIP3    H1 6549   0.846   1.343   2.762 -0.1432  1.4753 -1.9612
 2181TIP3    H2 6550   0.700   1.371   2.792 -0.0249  0.1800  0.0176
 2182TIP3   OH2 6551   0.122   2.908   1.637  0.3310 -0.1962 -0.0709
 2182TIP3    H1 6552   0.190   2.881   1.698  0.0341  0.7218  0.6934
 2182TIP3    H2 6553   0.055   2.949   1.693 -0.3525 -0.1270 -0.9205
 2183TIP3   OH2 6554   3.418   5.682   0.280 -0.2926  0.0857 -0.5010
 2183TIP3    H1 6555   3.406   5.650   0.370 -1.4280 -0.4747 -0.8330
 2183TIP3    H2 6556   3.512   5.695   0.272 -0.0566 -0.8903  0.4302
 2184TIP3   OH2 6557   0.843   0.209   4.259  0.1263 -0.1787  0.2252
 2184TIP3    H1 6558   0.820   0.302   4.265 -0.4594 -0.2594 -0.5535
 2184TIP3    H2 6559   0.835   0.188   4.165  1.8593 -0.6230  0.1494
 2185TIP3   OH2 6560   3.330   5.507   2.782 -0.1124  0.0534 -0.5963
 2185TIP3    H1 6561   3.348   5.428   2.832  1.3733  0.6250 -0.1606
 2185TIP3    H2 6562   3.350   5.484   2.692  1.1289  0.1362 -0.3635
 2186TIP3   OH2 6563   6.014   3.512   0.920 -0.5002 -0.3785 -0.0528
 2186TIP3    H1 6564   6.070   3.567   0.974 -0.9338 -0.9568  1.0119
 2186TIP3    H2 6565   5.926   3.524   0.956 -1.0826  0.3916 -1.5976
 2187TIP3   OH2 6566   1.168   1.606   0.965  0.4629 -0.7579  0.3622
 2187TIP3    H1 6567   1.084   1.632   1.004  1.2792  0.1425  1.5940
 2187TIP3    H2 6568   1.149   1.595   0.872 -1.2784 -1.7188  0.7983
 2188TIP3   OH2 6569   5.133   2.799   4.856  0.1515  0.0310 -0.6370
 2188TIP3    H1 6570   5.205   2.740   4.877 -1.2861 -1.5595  0.0052
 2188TIP3    H2 6571   5.087   2.757   4.784  0.0355  1.1870 -1.2591
 2189TIP3   OH2 6572   4.754   4.726   2.526  0.3729  0.3327  0.0568
 2189TIP3    H1 6573   4.744   4.775   2.608 -2.3383  1.4087 -0.7999
 2189TIP3    H2 6574   4.829   4.767   2.482  0.7853  0.8732  1.2363
 2190TIP3   OH2 6575   0.891   3.009   4.723  0.1905 -0.3910 -0.9015
 2190TIP3    H1 6576   0.964   2.947   4.726 -0.3529 -1.0025  0.0725
 2190TIP3    H2 6577   0.933   3.094   4.714  0.9976 -0.7934 -1.0826
 2191TIP3   OH2 6578   2.036   5.885   4.321 -0.5214  0.0765 -0.2817
 2191TIP3    H1 6579   1.980   5.897   4.244 -0.9327  0.1406  0.0208
 2191TIP3    H2 6580   2.046   5.972   4.358 -0.4280  0.0286 -0.1922
 2192TIP3   OH2 6581   3.563   0.592   2.285  0.1575 -0.1717 -0.1276
 2192TIP3    H1 6582   3.566   0.561   2.376  1.0140 -1.8359 -0.6881
 2192TIP3    H2 6583   3.637   0.548   2.242  2.0156  3.3230 -0.8372
 2193TIP3   OH2 6584   2.483   5.485   1.034 -0.0365 -0.2066 -0.3638
 2193TIP3    H1 6585   2.469   5.524   0.948 -1.0899 -0.3302 -0.2680
 2193TIP3    H2 6586   2.577   5.467   1.038  0.0376 -0.1133 -1.4386
 2194TIP3   OH2 6587   0.250   5.062   1.098  0.1761  0.0668  0.6425
 2194TIP3    H1 6588   0.309   5.073   1.172  0.3286  1.9451  0.2988
 2194TIP3    H2 6589   0.178   5.123   1.115  0.7518  1.3763 -1.2142
 2195TIP3   OH2 6590   3.402   3.790   0.197 -0.2102  0.0095 -0.2208
 2195TIP3    H1 6591   3.450   3.843   0.134  0.7593 -0.5766  0.0011
 2195TIP3    H2 6592   3.451   3.801   0.279  2.0470 -3.7588 -0.8536
 2196TIP3   OH2 6593   2.676   3.511   4.266  0.1339  0.0337  0.3861
 2196TIP3    H1 6594   2.622   3.439   4.232  0.3721 -0.2241  0.5444
 2196TIP3    H2 6595   2.743   3.467   4.319 -0.8273  0.4897  2.0183
 2197TIP3   OH2 6596   1.610   5.185   3.367 -0.2477 -0.5327  0.2309
 2197TIP3    H1 6597   1.533   5.196   3.422 -0.6263 -0.5496 -0.2819
 2197TIP3    H2 6598   1.598   5.100   3.325 -0.0676 -0.4301 -0.0322
 2198TIP3   OH2 6599   0.994   5.110   2.280 -0.1011  0.9220 -0.1063
 2198TIP3    H1 6600   1.018   5.190   2.234  0.0718  1.6875  1.2434
 2198TIP3    H2 6601   1.075   5.059   2.283 -0.7964 -0.5677 -3.2505
 2199TIP3   OH2 6602   1.224   0.793   2.760  0.1333  0.3344 -0.2890
 2199TIP3    H1 6603   1.209   0.852   2.686 -1.9191 -0.0403 -0.2271
 2199TIP3    H2 6604   1.216   0.849   2.837  0.9479  0.4722 -0.2954
 2200TIP3   OH2 6605   2.288   4.859   1.497  0.5863  0.5630 -0.0903
 2200TIP3    H1 6606   2.271   4.766   1.511 -1.1272  0.8420  0.0094
 2200TIP3    H2 6607   2.297   4.895   1.586 -0.0782  0.6883 -0.0665
 2201TIP3   OH2 6608   0.611   4.636   3.602 -0.3530  0.1759  0.2415
 2201TIP3    H1 6609   0.597   4.544   3.579  1.8065  0.3085 -2.0778
 2201TIP3    H2 6610   0.691   4.660   3.555 -0.6040  3.1243  1.1477
 2202TIP3   OH2 6611   3.846   0.735   3.883 -0.0382 -0.0929 -0.7708
 2202TIP3    H1 6612   3.896   0.803   3.838  4.3544 -1.4915  1.4402
 2202TIP3    H2 6613   3.819   0.776   3.965  1.0996 -0.4413 -0.2016
 2203TIP3   OH2 6614   0.350   5.638   1.740  0.0768 -0.0698  0.4519
 2203TIP3    H1 6615   0.308   5.682   1.813  0.8340 -1.8386  2.0367
 2203TIP3    H2 6616   0.285   5.573   1.711  0.5207 -0.7116  0.8754
 2204TIP3   OH2 6617   0.904   0.263   0.279  0.0246  0.6816 -0.0696
 2204TIP3    H1 6618   0.859   0.210   0.215  0.1746  0.5116 -0.0353
 2204TIP3    H2 6619   0.861   0.243   0.362 -1.2281  2.0751 -0.3289
 2205TIP3   OH2 6620   3.693   4.611   5.074 -0.6671 -0.7268  0.2240
 2205TIP3    H1 6621   3.713   4.520   5.050 -2.5564 -1.2590  0.5121
 2205TIP3    H2 6622   3.626   4.638   5.012 -1.1210 -0.0143  1.0075
 2206TIP3   OH2 6623   6.207   4.867   1.698 -0.3051  0.0334 -0.6908
 2206TIP3    H1 6624   6.246   4.945   1.659 -0.7777  1.0106  0.7325
 2206TIP3    H2 6625   6.113   4.883   1.694 -0.3545  0.6750  1.7905
 2207TIP3   OH2 6626   1.873   4.408   3.368 -0.1904 -0.4122  0.7933
 2207TIP3    H1 6627   1.859   4.321   3.406 -1.2695 -0.9966 -0.8470
 2207TIP3    H2 6628   1.831   4.468   3.429 -0.0443 -1.0968  1.5885
 2208TIP3   OH2 6629   0.100   3.998   2.588  0.5057  0.2116 -0.4797
 2208TIP3    H1 6630   0.042   3.922   2.584 -1.4645  1.6734 -2.4970
 2208TIP3    H2 6631   0.118   4.020   2.497  0.5386  2.4403 -0.0021
 2209TIP3   OH2 6632   1.143   4.799   3.885 -0.0892 -0.4137 -0.0895
 2209TIP3    H1 6633   1.088   4.732   3.844 -1.0431  0.3964 -0.1842
 2209TIP3    H2 6634   1.218   4.751   3.919 -0.6528 -1.5000 -0.3231
 2210TIP3   OH2 6635   2.715   0.756   1.895  0.2324 -0.4713  0.5503
 2210TIP3    H1 6636   2.655   0.714   1.956 -0.0979 -0.3101  0.3355
 2210TIP3    H2 6637   2.660   0.811   1.840  0.6432  0.1590  0.7487
 2211TIP3   OH2 6638   2.438   2.160   4.365  0.5135 -0.5027  0.5932
 2211TIP3    H1 6639   2.481   2.243   4.346 -2.0264  0.6912 -0.4224
 2211TIP3    H2 6640   2.399   2.173   4.452 -0.2073 -0.4635  0.2719
 2212TIP3   OH2 6641   4.696   3.611   2.934 -0.5635  0.2249 -0.1530
 2212TIP3    H1 6642   4.692   3.590   3.028  0.0203 -1.0829 -0.4074
 2212TIP3    H2 6643   4.755   3.686   2.929  0.1311 -0.2626  0.4527
 2213TIP3   OH2 6644   2.807   0.555   1.521  0.0310 -0.1486  0.0091
 2213TIP3    H1 6645   2.737   0.619   1.513 -0.9188 -1.0054  1.1770
 2213TIP3    H2 6646   2.886   0.608   1.534 -0.8498  0.8080  1.8569
 2214TIP3   OH2 6647   0.452   5.535   1.487 -0.3582 -0.0879 -0.5888
 2214TIP3    H1 6648   0.405   5.577   1.415 -2.2073 -0.7423  0.1559
 2214TIP3    H2 6649   0.421   5.581   1.565 -0.2453 -0.9693 -0.0123
 2215TIP3   OH2 6650   0.465   1.335   2.101 -0.2699  0.0398  0.4554
 2215TIP3    H1 6651   0.442   1.270   2.167  1.1465 -3.1096 -1.8897
 2215TIP3    H2 6652   0.406   1.317   2.028  1.2282  0.2185 -0.8679
 2216TIP3   OH2 6653   2.157   4.009   0.952 -0.3263  0.1851  0.3715
 2216TIP3    H1 6654   2.069   3.992   0.984 -0.5308 -0.1892 -0.3640
 2216TIP3    H2 6655   2.144   4.059   0.871  0.0180 -1.8207 -0.9916
 2217TIP3   OH2 6656   3.986   4.799   0.296  0.0730 -0.7008 -0.2052
 2217TIP3    H1 6657   4.014   4.756   0.377 -1.1928  1.8126  1.6817
 2217TIP3    H2 6658   3.896   4.769   0.283 -0.2225  0.0344  0.1446
 2218TIP3   OH2 6659   1.570   3.071   0.980  0.0531 -0.2716  0.3732
 2218TIP3    H1 6660   1.520   3.136   0.932  1.2614  0.4771  0.0973
 2218TIP3    H2 6661   1.573   2.995   0.921  0.0155 -0.0016  0.0219
 2219TIP3   OH2 6662   3.620   5.317   4.429  0.0052  0.5643  0.3594
 2219TIP3    H1 6663   3.565   5.337   4.505  0.8795 -0.5919  1.3407
 2219TIP3    H2 6664   3.698   5.276   4.466 -0.3539 -1.7852 -1.2290
 2220TIP3   OH2 6665   3.055   0.939   0.653  0.4886 -0.1900  0.5934
 2220TIP3    H1 6666   3.132   0.977   0.612 -0.2628  1.7038  0.8439
 2220TIP3    H2 6667   3.054   0.848   0.624  2.5895 -0.1512  0.2964
 2221TIP3   OH2 6668   3.088   1.899   3.050 -0.5788 -0.1876  0.1774
 2221TIP3    H1 6669   3.075   1.991   3.029 -1.5016 -0.4644 -0.5795
 2221TIP3    H2 6670   3.175   1.878   3.016 -0.4193  0.3685  0.2421
 2222TIP3   OH2 6671   2.249   5.788   5.122 -0.1254 -0.2577  0.2760
 2222TIP3    H1 6672   2.256   5.699   5.086 -1.4438 -0.7914  1.2224
 2222TIP3    H2 6673   2.339   5.814   5.139  0.3347 -1.1018 -0.7624
 2223TIP3   OH2 6674   4.590   5.844   1.152 -0.1967 -0.5317 -0.1741
 2223TIP3    H1 6675   4.653   5.813   1.086  0.7985  1.1389 -0.0875
 2223TIP3    H2 6676   4.624   5.811   1.235  0.4447  0.1262 -0.1599
 2224TIP3   OH2 6677   3.862   4.256   3.810  0.0047  0.0266 -0.2761
 2224TIP3    H1 6678   3.798   4.236   3.741 -1.6585  0.4627  1.0809
 2224TIP3    H2 6679   3.882   4.349   3.797  0.3886 -0.1187 -0.7261
 2225TIP3   OH2 6680   5.013   4.543   2.380 -0.2172  0.2534  0.0347
 2225TIP3    H1 6681   4.943   4.560   2.317  0.8307 -1.9252 -1.8400
 2225TIP3    H2 6682   5.065   4.624   2.380 -2.8228  2.1265  1.8291
 2226TIP3   OH2 6683   5.286   2.308   0.699  0.5070  0.6344 -0.0938
 2226TIP3    H1 6684   5.206   2.357   0.683  0.6364  1.4354  1.5264
 2226TIP3    H2 6685   5.283   2.287   0.793  1.2551 -1.0384 -0.4047
 2227TIP3   OH2 6686   2.244   2.568   3.755 -0.2397  0.8361  0.0572
 2227TIP3    H1 6687   2.293   2.647   3.776  3.9199 -1.5677  0.4061
 2227TIP3    H2 6688   2.173   2.566   3.819 -0.4567  4.1340  0.0916
 2228TIP3   OH2 6689   6.076   1.073   2.603  0.4534  0.3938 -0.5978
 2228TIP3    H1 6690   5.982   1.088   2.611  0.3568 -0.5116  0.3267
 2228TIP3    H2 6691   6.083   0.989   2.558  0.8032  0.2147 -0.2154
 2229TIP3   OH2 6692   5.655   1.913   3.619 -0.3485 -0.1802 -0.3083
 2229TIP3    H1 6693   5.684   1.909   3.710 -1.2934  1.1450  0.0831
 2229TIP3    H2 6694   5.641   2.006   3.603 -0.7208 -0.4525 -1.6449
 2230TIP3   OH2 6695   5.128   0.839   2.340 -0.0459  0.0350 -0.3678
 2230TIP3    H1 6696   5.075   0.798   2.408 -0.0597 -0.8853 -0.9156
 2230TIP3    H2 6697   5.205   0.872   2.387 -0.6769  0.6039  0.2904
 2231TIP3   OH2 6698   2.793   1.685   2.554 -0.3343 -0.6015 -0.2187
 2231TIP3    H1 6699   2.697   1.691   2.555 -0.2767  2.5960  2.6195
 2231TIP3    H2 6700   2.821   1.761   2.503  0.6730 -0.2529  0.8147
 2232TIP3   OH2 6701   0.816   5.201   5.018 -0.3059  0.2611  0.6311
 2232TIP3    H1 6702   0.833   5.108   5.031 -1.5398 -0.0334  0.3308
 2232TIP3    H2 6703   0.730   5.215   5.057  0.8937  1.8443  2.9135
 2233TIP3   OH2 6704   2.365   0.615   3.658  0.1457 -0.3929 -0.2698
 2233TIP3    H1 6705   2.321   0.691   3.620  0.9614  1.6470  2.5845
 2233TIP3    H2 6706   2.455   0.644   3.674  0.6009 -2.0968  0.5402
 2234TIP3   OH2 6707   4.038   2.680   2.311 -0.2148 -0.3037  0.7531
 2234TIP3    H1 6708   4.025   2.734   2.233  2.0943  1.1793  1.3007
 2234TIP3    H2 6709   3.968   2.615   2.307  0.0316 -0.5442 -2.7698
 2235TIP3   OH2 6710   4.079   2.002   3.696 -0.6079  0.0706  0.3397
 2235TIP3    H1 6711   4.004   1.942   3.706 -1.2418  1.0304  1.7287
 2235TIP3    H2 6712   4.052   2.082   3.741  1.5218  0.1983  1.5282
 2236TIP3   OH2 6713   5.540   2.190   5.185 -0.0324  0.7169  0.2712
 2236TIP3    H1 6714   5.479   2.201   5.112 -0.8995 -1.2515  0.6359
 2236TIP3    H2 6715   5.508   2.251   5.252 -2.2790 -0.9470  0.8247
 2237TIP3   OH2 6716   0.269   4.206   3.569 -0.4082 -0.1844 -0.0412
 2237TIP3    H1 6717   0.260   4.110   3.572 -0.6894 -0.1549  0.0784
 2237TIP3    H2 6718   0.234   4.236   3.652  1.9563 -0.1328  1.0136
 2238TIP3   OH2 6719   5.440   5.774   3.540 -0.1085 -0.0240  0.6838
 2238TIP3    H1 6720   5.508   5.775   3.473 -0.8085 -1.9414 -0.1180
 2238TIP3    H2 6721   5.389   5.695   3.522 -1.0761  0.0586  2.7298
 2239TIP3   OH2 6722   1.478   3.334   2.427  0.6108 -0.8407 -0.3447
 2239TIP3    H1 6723   1.384   3.324   2.440  0.5976 -2.5871 -1.3877
 2239TIP3    H2 6724   1.512   3.244   2.426  1.9115 -0.3983 -2.4204
 2240TIP3   OH2 6725   1.436   4.625   2.747  0.1647  0.0315 -0.0114
 2240TIP3    H1 6726   1.385   4.547   2.770 -0.5459  0.9543  1.7312
 2240TIP3    H2 6727   1.512   4.622   2.804 -0.2898  1.0279  0.6704
 2241TIP3   OH2 6728   0.221   3.440   4.372 -0.5665  0.0679  0.0719
 2241TIP3    H1 6729   0.269   3.458   4.453 -0.6760  2.1655 -0.2658
 2241TIP3    H2 6730   0.148   3.385   4.398 -1.2374  1.5980  1.6364
 2242TIP3   OH2 6731   3.938   0.044   4.159 -0.0181 -0.0553 -0.2631
 2242TIP3    H1 6732   3.939   0.046   4.063  2.5667  0.8035 -0.2982
 2242TIP3    H2 6733   3.959   0.133   4.185 -1.0055 -0.1973  1.1595
 2243TIP3   OH2 6734   1.126   4.361   4.953  0.4002  0.7088 -0.3443
 2243TIP3    H1 6735   1.211   4.398   4.926  0.9628 -0.6404 -0.5161
 2243TIP3    H2 6736   1.148   4.298   5.021 -0.2775 -0.7694 -1.4400
 2244TIP3   OH2 6737   5.202   3.531   3.238 -0.0947  0.0834 -0.2012
 2244TIP3    H1 6738   5.259   3.529   3.161 -0.4729  1.9493 -0.5720
 2244TIP3    H2 6739   5.236   3.603   3.291 -0.7814 -0.1920  0.6418
 2245TIP3   OH2 6740   2.238   2.357   2.171  0.3643 -0.4024  0.4772
 2245TIP3    H1 6741   2.219   2.297   2.099  0.5854  0.7085 -0.5288
 2245TIP3    H2 6742   2.312   2.409   2.140 -1.8675  2.6757 -0.1157
 2246TIP3   OH2 6743   0.638   5.056   1.083 -0.4660  0.1463  0.0729
 2246TIP3    H1 6744   0.627   5.124   1.150 -0.6854  0.6560 -0.4744
 2246TIP3    H2 6745   0.645   5.104   1.001  0.6678 -0.4256 -0.1922
 2247TIP3   OH2 6746   5.007   2.024   4.007 -0.4292  0.0129  0.4957
 2247TIP3    H1 6747   5.029   2.071   3.926  1.8130  0.8969  1.5387
 2247TIP3    H2 6748   4.960   2.089   4.060  1.8777  0.9021  1.5715
 2248TIP3   OH2 6749   0.879   1.342   0.118 -0.0018 -0.1637 -0.3617
 2248TIP3    H1 6750   0.901   1.435   0.122  3.1919 -0.7947 -0.6086
 2248TIP3    H2 6751   0.925   1.303   0.193  3.4532 -2.2153 -3.2433
 2249TIP3   OH2 6752   3.249   4.761   3.775  0.4393  0.8116 -0.8066
 2249TIP3    H1 6753   3.292   4.678   3.758  0.3814  0.7977 -0.8856
 2249TIP3    H2 6754   3.282   4.820   3.707 -0.2106  0.6067 -1.3118
 2250TIP3   OH2 6755   3.937   1.283   3.350 -0.6946 -0.0283 -0.2896
 2250TIP3    H1 6756   3.879   1.334   3.294 -1.9428 -0.1739  0.8298
 2250TIP3    H2 6757   3.885   1.208   3.378 -0.4503  0.5144  1.7896
 2251TIP3   OH2 6758   2.955   3.635   4.853 -0.0546 -0.0656 -0.1017
 2251TIP3    H1 6759   3.011   3.709   4.877 -0.1229  0.5648 -1.8023
 2251TIP3    H2 6760   2.871   3.654   4.895  0.5136 -0.2445  1.1701
 2252TIP3   OH2 6761   3.576   5.186   3.362  0.2796 -0.2627 -0.4415
 2252TIP3    H1 6762   3.647   5.124   3.352  0.2386 -0.4305  0.2918
 2252TIP3    H2 6763   3.505   5.150   3.309 -0.5824 -2.1305  1.8193
 2253TIP3   OH2 6764   4.304   3.547   0.399  0.2584  0.2134 -0.0992
 2253TIP3    H1 6765   4.324   3.499   0.479  0.0703  0.0880 -0.1281
 2253TIP3    H2 6766   4.305   3.481   0.330 -1.1495  0.0387  0.0214
 2254TIP3   OH2 6767   3.067   5.327   4.195  0.0577 -0.4866  0.2119
 2254TIP3    H1 6768   2.974   5.306   4.200  0.2542 -1.6474 -0.4807
 2254TIP3    H2 6769   3.101   5.268   4.127  0.7664  1.8662 -1.6109
 2255TIP3   OH2 6770   4.846   3.833   2.884 -0.0675 -0.1096  0.5244
 2255TIP3    H1 6771   4.792   3.904   2.920 -0.3957  0.2334 -0.6209
 2255TIP3    H2 6772   4.881   3.868   2.802  1.0074 -0.7336  0.6956
 2256TIP3   OH2 6773   1.622   3.405   3.672  0.4070  0.2406 -0.6490
 2256TIP3    H1 6774   1.647   3.366   3.589 -1.1706 -1.0395 -0.5734
 2256TIP3    H2 6775   1.527   3.415   3.667  0.2331 -0.1001  1.0841
 2257TIP3   OH2 6776   2.344   0.343   1.188  0.2484 -0.1008  0.0650
 2257TIP3    H1 6777   2.405   0.325   1.260  1.4080 -0.2177 -0.9223
 2257TIP3    H2 6778   2.400   0.375   1.117 -0.9609  0.6850 -0.5570
 2258TIP3   OH2 6779   0.012   3.868   3.035 -0.6699 -0.7324 -0.6592
 2258TIP3    H1 6780  -0.038   3.886   3.115 -0.2641  0.1129 -0.5833
 2258TIP3    H2 6781   0.034   3.955   3.001  2.2332 -1.0181  0.2350
 2259TIP3   OH2 6782   3.105   4.096   4.855  0.0864 -0.4371  0.6860
 2259TIP3    H1 6783   3.096   4.172   4.912  0.5176  1.2873 -1.4033
 2259TIP3    H2 6784   3.196   4.099   4.825 -0.2328 -0.9942 -0.4329
 2260TIP3   OH2 6785   1.891   3.359   0.716  0.6404  0.8840  0.1604
 2260TIP3    H1 6786   1.840   3.411   0.653  0.8871  1.4593  0.4327
 2260TIP3    H2 6787   1.835   3.355   0.793  0.3136  0.1299 -0.1067
 2261TIP3   OH2 6788   3.686   2.649   3.228 -0.2983  0.3441 -0.0679
 2261TIP3    H1 6789   3.753   2.688   3.284  0.0436  0.4159 -0.5251
 2261TIP3    H2 6790   3.720   2.659   3.139  1.2200 -3.5416 -0.1323
 2262TIP3   OH2 6791   0.804   4.024   4.881 -0.1093 -0.4535 -0.4948
 2262TIP3    H1 6792   0.789   3.930   4.882  0.3712 -0.5599 -1.4569
 2262TIP3    H2 6793   0.779   4.051   4.792 -1.3102  0.5209  0.1001
 2263TIP3   OH2 6794   1.512   5.601   4.616  0.5422 -0.4775 -0.4812
 2263TIP3    H1 6795   1.443   5.543   4.583 -2.5135  0.4611  3.4111
 2263TIP3    H2 6796   1.474   5.688   4.611  1.0123  0.0050  2.4185
 2264TIP3   OH2 6797   0.997   1.904   0.624 -0.4558  0.5495 -0.3782
 2264TIP3    H1 6798   1.059   1.968   0.659  0.6579  0.7156 -2.4397
 2264TIP3    H2 6799   1.031   1.820   0.653 -1.8937  0.7876  2.3008
 2265TIP3   OH2 6800   5.087   2.712   0.136  0.2432 -0.1069  0.2676
 2265TIP3    H1 6801   5.076   2.647   0.206  2.3586 -0.7335  0.0745
 2265TIP3    H2 6802   5.172   2.751   0.153  0.5674  0.1078 -1.6616
 2266TIP3   OH2 6803   0.845   2.773   4.445  0.4744  0.2695  0.2623
 2266TIP3    H1 6804   0.848   2.705   4.513  1.1852 -1.2897 -1.2595
 2266TIP3    H2 6805   0.757   2.767   4.409 -0.1511  1.5938  1.4656
 2267TIP3   OH2 6806   0.013   0.669   3.009  0.1480  0.2468 -0.1827
 2267TIP3    H1 6807   0.025   0.686   2.916  0.2375  0.5238 -0.1228
 2267TIP3    H2 6808   0.086   0.714   3.051  0.6597 -0.6976 -0.0486
 2268TIP3   OH2 6809   5.702   5.421   3.779  0.1303  0.5202 -0.2763
 2268TIP3    H1 6810   5.771   5.487   3.774 -1.1149  1.8360 -0.6856
 2268TIP3    H2 6811   5.661   5.423   3.692  0.1052 -0.8319 -0.3104
 2269TIP3   OH2 6812   3.359   4.339   0.473  0.2100  0.3107 -0.1429
 2269TIP3    H1 6813   3.303   4.417   0.476  0.5439  0.5272  0.6249
 2269TIP3    H2 6814   3.298   4.267   0.458 -0.3860  0.4510  1.4033
 2270TIP3   OH2 6815   4.703   4.799   1.575 -0.3771 -0.1811  0.7690
 2270TIP3    H1 6816   4.660   4.884   1.571  0.1791  0.1681  1.8450
 2270TIP3    H2 6817   4.750   4.791   1.492 -2.1900 -0.4113 -0.2799
 2271TIP3   OH2 6818   1.860   4.656   4.725  0.7763 -0.0290  0.2421
 2271TIP3    H1 6819   1.775   4.663   4.681  0.7341  0.0387  0.3343
 2271TIP3    H2 6820   1.904   4.739   4.706  0.7788 -0.0204  0.2862
 2272TIP3   OH2 6821   1.271   1.710   2.902 -0.2572 -0.3142  0.2940
 2272TIP3    H1 6822   1.284   1.651   2.976  2.5086 -0.4071 -0.1288
 2272TIP3    H2 6823   1.283   1.798   2.939 -0.2351 -0.2843  0.2164
 2273TIP3   OH2 6824   3.104   0.742   2.151  0.9539 -0.3521 -0.1087
 2273TIP3    H1 6825   3.058   0.826   2.155 -0.8553 -1.3231  0.3055
 2273TIP3    H2 6826   3.180   0.755   2.208  0.3571  0.8114  0.4672
 2274TIP3   OH2 6827   2.407   5.164   3.371  0.6813  0.4230 -0.6804
 2274TIP3    H1 6828   2.327   5.174   3.319  0.0924 -3.3664 -0.7938
 2274TIP3    H2 6829   2.478   5.192   3.313 -0.2563 -0.2172 -2.1910
 2275TIP3   OH2 6830   4.285   2.304   1.779 -0.2464  0.4702 -0.2595
 2275TIP3    H1 6831   4.347   2.311   1.707 -0.7607 -2.7156 -1.2094
 2275TIP3    H2 6832   4.338   2.274   1.853 -0.2446  0.1497 -0.3856
 2276TIP3   OH2 6833   1.104   4.593   0.276  0.2129  0.1491  0.2603
 2276TIP3    H1 6834   1.021   4.620   0.235  0.1933  1.5294  1.1434
 2276TIP3    H2 6835   1.134   4.520   0.222 -2.1208 -1.1412  0.5406
 2277TIP3   OH2 6836   6.157   2.705   1.074  0.1553  0.2056 -0.5673
 2277TIP3    H1 6837   6.187   2.742   0.991 -0.3942 -0.3554 -1.0306
 2277TIP3    H2 6838   6.094   2.637   1.049  0.4395 -0.4012  0.2852
 2278TIP3   OH2 6839   3.568   4.642   4.831  0.1572  0.4312  0.7994
 2278TIP3    H1 6840   3.480   4.628   4.796  0.5370  0.5210 -0.2548
 2278TIP3    H2 6841   3.626   4.612   4.760  0.9763  2.5599  0.4891
 2279TIP3   OH2 6842   1.793   5.835   3.546  0.1390 -0.0005  0.1350
 2279TIP3    H1 6843   1.768   5.803   3.460  0.2044  0.4421 -0.0535
 2279TIP3    H2 6844   1.863   5.777   3.575  1.4621  0.9913 -0.9439
 2280TIP3   OH2 6845   0.204   2.688   0.384 -0.1607 -0.0035  0.6396
 2280TIP3    H1 6846   0.226   2.768   0.431 -1.0749  0.8574 -0.3371
 2280TIP3    H2 6847   0.288   2.644   0.372  1.1211  2.8138 -2.3331
 2281TIP3   OH2 6848   4.129   3.995   3.493 -0.3771 -0.1390  0.0681
 2281TIP3    H1 6849   4.168   3.909   3.479  0.6617  0.0841  1.3987
 2281TIP3    H2 6850   4.179   4.033   3.565 -1.8226  0.9651  0.5377
 2282TIP3   OH2 6851   1.845   1.503   3.996  0.6338 -0.6142  0.0578
 2282TIP3    H1 6852   1.924   1.541   3.958  1.1204 -1.3033  0.3553
 2282TIP3    H2 6853   1.876   1.454   4.072 -0.1841 -0.2154  0.6663
 2283TIP3   OH2 6854   4.912   2.604   4.967 -0.1194  0.4270  0.1474
 2283TIP3    H1 6855   4.893   2.523   5.014  0.2204  0.5265  0.4658
 2283TIP3    H2 6856   5.007   2.614   4.974 -0.4279  2.6106  3.1109
 2284TIP3   OH2 6857   2.352   3.420   2.086  0.0590 -0.0247  0.0037
 2284TIP3    H1 6858   2.340   3.503   2.039  0.1926 -0.5803 -1.0315
 2284TIP3    H2 6859   2.405   3.366   2.027  0.2147 -0.7454  0.7888
 2285TIP3   OH2 6860   5.488   0.576   1.433  0.6939  0.5795 -0.1023
 2285TIP3    H1 6861   5.412   0.633   1.418  0.5887  0.6347  0.5771
 2285TIP3    H2 6862   5.493   0.521   1.355 -0.4006  0.1833  0.0874
 2286TIP3   OH2 6863   1.180   5.334   1.968 -0.0040  0.3988  0.4604
 2286TIP3    H1 6864   1.089   5.358   1.984 -0.2094  0.7447 -1.0383
 2286TIP3    H2 6865   1.229   5.377   2.038 -1.0788 -0.7543  1.9835
 2287TIP3   OH2 6866   2.446   2.249   5.127 -0.0541  0.5524  0.2522
 2287TIP3    H1 6867   2.485   2.333   5.152 -2.6695  2.1051 -0.4511
 2287TIP3    H2 6868   2.443   2.199   5.209  0.4758  1.6281  0.9569
 2288TIP3   OH2 6869   0.995   0.998   2.687 -0.0214  0.3779 -0.4996
 2288TIP3    H1 6870   0.982   1.075   2.742 -1.5536  0.2113 -0.6067
 2288TIP3    H2 6871   1.023   1.034   2.603 -1.6217  0.9118 -0.8357
 2289TIP3   OH2 6872   2.446   4.194   2.610  0.1957  0.2892 -0.5469
 2289TIP3    H1 6873   2.365   4.241   2.630  1.1445  2.4460 -1.4836
 2289TIP3    H2 6874   2.417   4.104   2.592 -2.0222  1.0224 -0.9833
 2290TIP3   OH2 6875   4.874   0.386   3.575 -0.1704 -0.7484 -0.1107
 2290TIP3    H1 6876   4.908   0.308   3.619 -1.4763 -0.7967  0.8649
 2290TIP3    H2 6877   4.872   0.362   3.483 -0.2334 -1.7587  0.1403
 2291TIP3   OH2 6878   2.670   1.373   3.726 -0.2041 -0.4865 -0.0727
 2291TIP3    H1 6879   2.651   1.436   3.657  1.7383  0.7720  0.4452
 2291TIP3    H2 6880   2.766   1.372   3.731 -0.2709 -1.3109  1.8993
 2292TIP3   OH2 6881   3.148   2.936   0.208  0.7111 -0.2752  0.2440
 2292TIP3    H1 6882   3.134   2.985   0.127 -1.9929 -1.5948 -0.2043
 2292TIP3    H2 6883   3.223   2.879   0.189  0.7807  0.1963 -0.9609
 2293TIP3   OH2 6884   6.157   2.092   4.445 -0.4903  0.1168  0.0195
 2293TIP3    H1 6885   6.186   2.056   4.361 -0.9437  1.5551 -0.7968
 2293TIP3    H2 6886   6.237   2.125   4.487 -0.1250 -1.4468  0.6156
 2294TIP3   OH2 6887   4.618   2.140   2.621  0.1067  0.2574 -0.5346
 2294TIP3    H1 6888   4.679   2.100   2.558  0.5179  0.9195 -0.5628
 2294TIP3    H2 6889   4.570   2.205   2.571  1.9193  2.3045  0.2550
 2295TIP3   OH2 6890   2.982   0.386   4.670  0.4599  0.1142 -0.7097
 2295TIP3    H1 6891   3.016   0.392   4.759  0.5442 -3.3227 -0.3887
 2295TIP3    H2 6892   2.888   0.373   4.681  0.6022 -1.3582 -1.0075
 2296TIP3   OH2 6893   0.697   2.750   3.737  0.3376  0.1323 -0.0294
 2296TIP3    H1 6894   0.783   2.780   3.710  0.7409 -0.9086  0.0473
 2296TIP3    H2 6895   0.714   2.671   3.788 -0.6466  0.0091  0.1273
 2297TIP3   OH2 6896   1.732   3.115   2.203  0.4863  0.3908 -0.7170
 2297TIP3    H1 6897   1.775   3.052   2.146 -0.5263 -1.8285  0.8403
 2297TIP3    H2 6898   1.641   3.117   2.172  0.7769  2.2092 -1.6159
 2298TIP3   OH2 6899   1.159   2.975   2.716  0.1871  0.6360 -0.3568
 2298TIP3    H1 6900   1.132   2.883   2.720  1.4958  0.2619  1.1078
 2298TIP3    H2 6901   1.091   3.018   2.664 -0.2821 -1.2040 -1.3518
 2299TIP3   OH2 6902   2.872   3.574   1.447 -0.5878  0.4171  0.7047
 2299TIP3    H1 6903   2.867   3.533   1.361  0.8240  0.8143  0.4088
 2299TIP3    H2 6904   2.905   3.505   1.504  1.7696  1.0638  0.2105
 2300TIP3   OH2 6905   3.918   4.870   1.347  0.0352 -0.2344  0.3702
 2300TIP3    H1 6906   3.827   4.898   1.332  0.5015  0.7479 -0.7248
 2300TIP3    H2 6907   3.942   4.824   1.266  0.3580 -0.9756  0.8723
 2301TIP3   OH2 6908   2.622   1.810   3.676  0.3676  0.0752  0.4706
 2301TIP3    H1 6909   2.665   1.885   3.717  2.1172 -0.8603  0.4606
 2301TIP3    H2 6910   2.548   1.790   3.733 -0.6496  2.2757  0.0336
 2302TIP3   OH2 6911   1.257   2.271   1.811  0.0052  0.5626  0.5031
 2302TIP3    H1 6912   1.208   2.209   1.756 -0.0435  1.6506 -0.7343
 2302TIP3    H2 6913   1.319   2.311   1.751  1.0178  0.6890  1.6141
 2303TIP3   OH2 6914   6.169   2.366   3.232 -0.0410  0.4833  0.3111
 2303TIP3    H1 6915   6.096   2.318   3.272  0.3030  0.5802  1.0697
 2303TIP3    H2 6916   6.167   2.340   3.140  0.3190 -1.2159  0.7565
 2304TIP3   OH2 6917   2.899   3.911   1.507  0.0453  0.2503  0.7731
 2304TIP3    H1 6918   2.891   3.819   1.483 -1.1045  0.8990 -1.5975
 2304TIP3    H2 6919   2.938   3.953   1.431  0.2929  1.7755  1.7013
 2305TIP3   OH2 6920   3.407   1.968   2.247  0.1760 -0.0797 -0.2087
 2305TIP3    H1 6921   3.463   1.925   2.311 -0.0200  0.2993  0.2241
 2305TIP3    H2 6922   3.461   1.976   2.168  0.1372 -1.3297 -0.3839
 2306TIP3   OH2 6923   4.303   4.637   1.671  0.6006 -0.4834 -0.4200
 2306TIP3    H1 6924   4.267   4.701   1.609  0.6062 -0.8230 -0.7827
 2306TIP3    H2 6925   4.266   4.662   1.755  0.3515 -0.1920 -0.6110
 2307TIP3   OH2 6926   4.824   2.710   1.880  0.2377 -0.3112 -0.2916
 2307TIP3    H1 6927   4.776   2.757   1.948 -0.1519 -0.5827 -0.3733
 2307TIP3    H2 6928   4.864   2.779   1.826  2.2402 -0.0859  1.3697
 2308TIP3   OH2 6929   1.742   1.433   5.035 -0.0919 -0.3004  0.0435
 2308TIP3    H1 6930   1.750   1.509   4.978  0.0823  0.3410  0.8966
 2308TIP3    H2 6931   1.788   1.458   5.115 -0.6923 -1.0063  0.6254
 2309TIP3   OH2 6932   0.713   5.477   1.638  0.0698 -0.3070  0.0443
 2309TIP3    H1 6933   0.620   5.478   1.619 -0.0667 -1.6313  0.5073
 2309TIP3    H2 6934   0.754   5.510   1.558 -0.8436  2.3765  0.5844
 2310TIP3   OH2 6935   1.237   2.227   0.538 -0.3175 -0.4638  0.1427
 2310TIP3    H1 6936   1.206   2.285   0.607  1.3422  1.1523 -0.4060
 2310TIP3    H2 6937   1.257   2.145   0.584  0.5011  0.4760  1.5457
 2311TIP3   OH2 6938   0.979   0.592   4.611 -0.2437 -0.4073  0.3568
 2311TIP3    H1 6939   0.970   0.670   4.556  1.1581 -1.9234 -2.2519
 2311TIP3    H2 6940   1.073   0.575   4.611 -0.3442 -1.1323  2.3752
 2312TIP3   OH2 6941   6.153   3.289   0.960 -0.0785 -0.2462  0.6743
 2312TIP3    H1 6942   6.091   3.227   0.922  1.2340 -1.7216  0.8226
 2312TIP3    H2 6943   6.126   3.374   0.926 -1.9308 -0.8813  0.4397
 2313TIP3   OH2 6944   4.499   3.525   4.712  0.2179 -0.4670 -0.7345
 2313TIP3    H1 6945   4.412   3.563   4.726 -1.1725 -3.1534 -1.4408
 2313TIP3    H2 6946   4.519   3.543   4.620  1.0783  1.2826 -0.2539
 2314TIP3   OH2 6947   4.993   0.237   2.952 -0.1913 -0.0866 -0.1891
 2314TIP3    H1 6948   5.005   0.149   2.915 -1.2048 -0.1877 -0.3042
 2314TIP3    H2 6949   4.899   0.252   2.946 -0.4750 -0.2433  2.6832
 2315TIP3   OH2 6950   5.408   4.491   3.734  0.0218  0.1836  0.2395
 2315TIP3    H1 6951   5.444   4.574   3.703  0.6308 -0.5851 -1.2007
 2315TIP3    H2 6952   5.332   4.475   3.679 -0.2809 -0.0655  0.7213
 2316TIP3   OH2 6953   4.713   2.770   3.090 -0.4809 -0.6084 -0.4043
 2316TIP3    H1 6954   4.711   2.699   3.026  1.7298  0.2064 -1.5146
 2316TIP3    H2 6955   4.632   2.818   3.076 -0.0283 -0.3801 -2.7804
 2317TIP3   OH2 6956   2.519   3.232   3.016  0.4696  0.0007 -0.6687
 2317TIP3    H1 6957   2.568   3.225   3.098  1.0995  1.7825 -0.8490
 2317TIP3    H2 6958   2.427   3.222   3.043  0.5659  1.7531  0.4842
 2318TIP3   OH2 6959   2.188   5.144   2.396  0.6930 -0.4642 -0.0681
 2318TIP3    H1 6960   2.267   5.186   2.430  0.9116  0.2926 -1.4581
 2318TIP3    H2 6961   2.182   5.173   2.306 -0.5967 -1.3776 -0.3047
 2319TIP3   OH2 6962   4.218   1.983   1.820  0.4903 -0.1038 -0.1328
 2319TIP3    H1 6963   4.207   2.051   1.886 -0.5302  0.9968 -1.4027
 2319TIP3    H2 6964   4.296   2.009   1.771 -0.8499  1.1275 -1.7002
 2320TIP3   OH2 6965   0.221   1.144   0.750 -0.4958  0.4872  1.0507
 2320TIP3    H1 6966   0.228   1.235   0.781 -0.5104  1.5495 -1.8232
 2320TIP3    H2 6967   0.278   1.140   0.674  0.6200 -2.3830  1.8933
 2321TIP3   OH2 6968   3.616   5.194   5.092  0.0526 -0.0661  0.4515
 2321TIP3    H1 6969   3.531   5.192   5.136 -0.4455 -1.6819 -0.4832
 2321TIP3    H2 6970   3.670   5.133   5.143  0.2385 -0.0467  0.2776
 2322TIP3   OH2 6971   0.402   2.974   3.811 -0.3618 -0.4038  0.1588
 2322TIP3    H1 6972   0.323   3.017   3.846 -0.4532 -0.3237 -0.1401
 2322TIP3    H2 6973   0.393   2.982   3.716  0.6354  0.7438  0.1345
 2323TIP3   OH2 6974   4.165   5.963   3.746 -0.0611  0.1208  0.1492
 2323TIP3    H1 6975   4.167   6.048   3.701  0.7652  0.1414  0.2097
 2323TIP3    H2 6976   4.217   5.905   3.690 -0.7080 -0.3759  0.0570
 2324TIP3   OH2 6977   2.596   0.797   3.229 -0.2691 -0.4972 -0.6443
 2324TIP3    H1 6978   2.692   0.802   3.235 -0.2463  0.6274 -1.6241
 2324TIP3    H2 6979   2.565   0.843   3.308  0.0475  4.2287 -2.9232
 2325TIP3   OH2 6980   2.412   0.163   0.408  0.5732 -0.3372 -0.5687
 2325TIP3    H1 6981   2.353   0.117   0.347 -0.4229  0.4385 -0.2071
 2325TIP3    H2 6982   2.373   0.250   0.419  1.6422  0.1028 -0.1002
 2326TIP3   OH2 6983   1.041   3.984   5.049  0.1323 -0.5348 -0.1656
 2326TIP3    H1 6984   0.966   4.016   4.999  1.4250 -1.0536 -2.6664
 2326TIP3    H2 6985   1.021   3.892   5.065 -0.8689 -0.0563  1.5304
 2327TIP3   OH2 6986   0.272   4.295   0.658  0.1011 -0.0892 -0.1564
 2327TIP3    H1 6987   0.350   4.271   0.709 -0.3464  1.4650  1.3738
 2327TIP3    H2 6988   0.201   4.246   0.697  0.0075 -0.1097 -0.3499
 2328TIP3   OH2 6989   5.448   2.024   3.952  0.3793 -0.4607 -0.5198
 2328TIP3    H1 6990   5.409   2.026   3.865 -1.4815  2.3067  0.2535
 2328TIP3    H2 6991   5.543   2.018   3.936  0.3445  2.8461 -2.9028
 2329TIP3   OH2 6992   3.571   4.063   3.534  0.0766  0.4268 -0.0808
 2329TIP3    H1 6993   3.651   4.081   3.485  0.3676  0.4988  0.4113
 2329TIP3    H2 6994   3.505   4.117   3.491  0.0142 -0.5108 -1.2234
 2330TIP3   OH2 6995   3.071   4.464   0.736  0.2241  0.7354 -0.2021
 2330TIP3    H1 6996   3.092   4.507   0.819  0.2090 -0.6330  0.5477
 2330TIP3    H2 6997   3.082   4.370   0.755 -0.1805  0.3790 -1.6381
 2331TIP3   OH2 6998   1.411   5.606   4.085  0.5063 -0.0496 -0.1073
 2331TIP3    H1 6999   1.337   5.636   4.138  0.3178  0.3680 -0.5914
 2331TIP3    H2 7000   1.370   5.555   4.015  0.6479  0.4528 -0.5596
 2332TIP3   OH2 7001   5.671   5.512   0.825 -0.2772  0.1315  0.1223
 2332TIP3    H1 7002   5.644   5.471   0.743 -0.2810  0.4112 -0.0180
 2332TIP3    H2 7003   5.763   5.536   0.812 -0.5657  1.1248 -0.1918
 2333TIP3   OH2 7004   2.913   2.090   3.236 -0.3000 -0.2071  0.0838
 2333TIP3    H1 7005   2.966   2.114   3.160 -0.6588  0.3332  0.0024
 2333TIP3    H2 7006   2.942   2.149   3.305 -0.8179  0.1085  0.0307
 2334TIP3   OH2 7007   0.662   1.762   3.462  0.2128  0.0577 -0.4106
 2334TIP3    H1 7008   0.640   1.792   3.373 -1.0298 -0.8194 -0.4304
 2334TIP3    H2 7009   0.621   1.826   3.520 -0.3039 -0.2160 -0.4679
 2335TIP3   OH2 7010   5.601   4.157   3.159 -0.2375 -0.8991 -0.2441
 2335TIP3    H1 7011   5.527   4.096   3.162 -0.9860 -0.0482 -0.5764
 2335TIP3    H2 7012   5.630   4.156   3.068 -2.0961  1.2769 -0.9726
 2336TIP3   OH2 7013   3.486   2.325   2.476  0.6105 -0.2634 -0.1188
 2336TIP3    H1 7014   3.447   2.397   2.526  1.4930  1.3570 -1.6565
 2336TIP3    H2 7015   3.549   2.286   2.537 -0.1271  0.0502  0.8618
 2337TIP3   OH2 7016   2.487   5.748   3.262 -0.6933 -0.4824  0.6172
 2337TIP3    H1 7017   2.410   5.777   3.213  0.9463  0.0560 -1.8220
 2337TIP3    H2 7018   2.534   5.829   3.283 -0.3441 -0.8640  1.3520
 2338TIP3   OH2 7019   5.515   1.158   1.844  0.7719  0.2771 -0.2664
 2338TIP3    H1 7020   5.456   1.153   1.919  0.1676  0.2555 -0.7368
 2338TIP3    H2 7021   5.503   1.246   1.809  0.2571 -0.0549 -0.9647
 2339TIP3   OH2 7022   5.676   1.840   0.254  0.0349 -0.0872  0.3588
 2339TIP3    H1 7023   5.620   1.796   0.190 -2.6416  3.6030 -0.1681
 2339TIP3    H2 7024   5.668   1.787   0.333 -1.7682 -1.3466 -0.5938
 2340TIP3   OH2 7025   4.869   4.633   4.549 -0.1454  0.7054  0.4235
 2340TIP3    H1 7026   4.876   4.546   4.590  1.1572  0.9006  0.6363
 2340TIP3    H2 7027   4.867   4.615   4.455 -0.1680  0.4365  0.4746
 2341TIP3   OH2 7028   1.041   0.673   1.275 -1.0640  0.1639 -0.6918
 2341TIP3    H1 7029   0.963   0.703   1.322 -0.7172  1.2585 -0.7835
 2341TIP3    H2 7030   1.098   0.750   1.272 -0.0686 -0.5559 -0.8162
 2342TIP3   OH2 7031   3.633   1.895   4.174  0.2286  0.4157 -0.5846
 2342TIP3    H1 7032   3.616   1.989   4.187 -0.7867  0.1997 -0.2241
 2342TIP3    H2 7033   3.717   1.880   4.216 -0.6630  0.7304  1.4756
 2343TIP3   OH2 7034   5.084   1.697   1.355  0.1093  0.1447 -0.0453
 2343TIP3    H1 7035   5.146   1.681   1.426  1.9638 -0.2192 -1.6477
 2343TIP3    H2 7036   5.095   1.622   1.296 -1.3063  0.4748 -0.7661
 2344TIP3   OH2 7037   0.876   1.630   2.360  0.1747 -0.2967  0.0884
 2344TIP3    H1 7038   0.832   1.643   2.444  1.2137  0.6790  0.5056
 2344TIP3    H2 7039   0.826   1.684   2.298  1.7083  2.2082  0.8928
 2345TIP3   OH2 7040   1.897   3.379   1.511 -0.1201  0.4470  0.4590
 2345TIP3    H1 7041   1.976   3.426   1.536 -0.2228  1.1971 -0.5673
 2345TIP3    H2 7042   1.833   3.448   1.489 -0.5119 -0.1447 -0.3415
 2346TIP3   OH2 7043   2.186   0.590   3.022 -0.0999  0.1097  0.8844
 2346TIP3    H1 7044   2.220   0.556   3.105  1.0658  1.0407  0.8147
 2346TIP3    H2 7045   2.119   0.527   2.996  0.2031 -0.7244  2.0407
 2347TIP3   OH2 7046   4.766   3.770   4.340 -0.2503  0.2812 -0.4183
 2347TIP3    H1 7047   4.825   3.694   4.343  1.5298  1.5100 -2.2579
 2347TIP3    H2 7048   4.694   3.742   4.284  0.0240 -0.2639 -0.5088
 2348TIP3   OH2 7049   5.692   0.548   4.148 -0.5099  0.0379  0.3102
 2348TIP3    H1 7050   5.607   0.582   4.176 -1.4842 -1.6371 -0.4393
 2348TIP3    H2 7051   5.678   0.454   4.140  0.8676 -0.0619 -1.6849
 2349TIP3   OH2 7052   2.680   2.273   4.622 -0.0334 -0.5022 -0.3604
 2349TIP3    H1 7053   2.712   2.313   4.541 -0.8480 -0.4110 -0.6439
 2349TIP3    H2 7054   2.623   2.340   4.660  2.3154  0.5151  1.6307
 2350TIP3   OH2 7055   5.171   4.392   4.727  0.5550  0.2936  0.1160
 2350TIP3    H1 7056   5.167   4.486   4.708  0.4677 -0.0237 -1.5973
 2350TIP3    H2 7057   5.121   4.351   4.656 -1.2059 -0.9363  1.9882
 2351TIP3   OH2 7058   2.520   1.651   4.801 -0.3746 -0.1940 -0.0349
 2351TIP3    H1 7059   2.448   1.591   4.814  0.5967 -2.2868 -3.2048
 2351TIP3    H2 7060   2.488   1.713   4.735 -0.1405  0.5965  0.5703
 2352TIP3   OH2 7061   1.284   5.498   1.734 -0.0034 -0.1807  0.3620
 2352TIP3    H1 7062   1.254   5.441   1.805  0.3520 -0.8606 -0.0199
 2352TIP3    H2 7063   1.213   5.562   1.723  0.0318  0.0527  1.4556
 2353TIP3   OH2 7064   1.080   2.738   3.310  0.7862 -0.2127  0.0821
 2353TIP3    H1 7065   1.014   2.759   3.376  0.2968 -0.9285 -0.1687
 2353TIP3    H2 7066   1.065   2.803   3.241  2.0710  1.2947  1.1636
 2354TIP3   OH2 7067   2.228   0.530   3.289  0.2203 -0.1009 -0.1314
 2354TIP3    H1 7068   2.158   0.583   3.327  2.4071  1.7364  1.6487
 2354TIP3    H2 7069   2.299   0.535   3.353  2.5890 -0.4646 -2.5563
 2355TIP3   OH2 7070   5.056   2.939   5.147 -0.1989  0.5429 -0.0537
 2355TIP3    H1 7071   4.977   2.891   5.121  0.5617 -1.2837  0.8603
 2355TIP3    H2 7072   5.115   2.931   5.073  0.4792 -1.2974  0.6149
 2356TIP3   OH2 7073   5.279   4.517   1.984  0.7473  0.5767  0.0076
 2356TIP3    H1 7074   5.232   4.530   1.902  0.1396  1.4031  0.4710
 2356TIP3    H2 7075   5.228   4.451   2.031  1.2637 -0.1233 -0.3935
 2357TIP3   OH2 7076   1.723   0.073   3.712  0.5747  0.1445  0.3979
 2357TIP3    H1 7077   1.765   0.129   3.777  0.9177  1.1159 -0.6329
 2357TIP3    H2 7078   1.629   0.089   3.725  0.6799  1.6742 -0.4548
 2358TIP3   OH2 7079   0.033   4.591   3.090 -0.4134  0.9072 -0.3964
 2358TIP3    H1 7080   0.050   4.579   2.996 -1.4745  0.1008 -0.5027
 2358TIP3    H2 7081   0.098   4.536   3.133 -0.6356  0.3850 -0.7071
 2359TIP3   OH2 7082   3.024   0.930   1.195 -0.1124 -0.8580 -0.0220
 2359TIP3    H1 7083   2.952   0.971   1.244  1.2486  1.2070  0.3703
 2359TIP3    H2 7084   3.097   0.928   1.256  1.3106  0.7875 -1.5722
 2360TIP3   OH2 7085   5.189   2.952   3.014 -0.3137 -0.7837 -0.1861
 2360TIP3    H1 7086   5.207   3.043   2.991 -2.5455 -0.4780 -1.0239
 2360TIP3    H2 7087   5.103   2.955   3.058  0.4347 -2.2818  1.5300
 2361TIP3   OH2 7088   5.939   0.254   0.757 -0.0250 -0.4591 -0.2648
 2361TIP3    H1 7089   6.005   0.189   0.780  0.8197  0.5564  0.2351
 2361TIP3    H2 7090   5.900   0.220   0.676  1.8490 -0.5422 -1.1856
 2362TIP3   OH2 7091   2.574   1.112   2.464  0.3274 -0.4984 -0.3939
 2362TIP3    H1 7092   2.644   1.140   2.524 -0.5505 -0.3359  0.5788
 2362TIP3    H2 7093   2.494   1.145   2.504 -0.1198  1.7261 -2.8787
 2363TIP3   OH2 7094   0.354   5.655   4.957  0.2488  0.2594  0.6182
 2363TIP3    H1 7095   0.373   5.690   4.870  0.5520 -0.2442  0.4710
 2363TIP3    H2 7096   0.439   5.655   5.002  0.1074  0.4490  0.8903
 2364TIP3   OH2 7097   0.899   5.542   3.662 -0.0142  0.2185 -0.3758
 2364TIP3    H1 7098   0.894   5.535   3.758  0.6444  1.2014 -0.2555
 2364TIP3    H2 7099   0.814   5.579   3.637  0.2433  1.0845 -0.0334
 2365TIP3   OH2 7100   2.127   1.970   0.319  0.7028  0.0063  0.2393
 2365TIP3    H1 7101   2.134   2.063   0.339 -2.0015  0.0040  1.5475
 2365TIP3    H2 7102   2.038   1.946   0.344  0.1024 -2.1957 -3.3147
 2366TIP3   OH2 7103   1.631   5.790   1.282  0.3626  0.2545 -0.0547
 2366TIP3    H1 7104   1.641   5.873   1.236 -2.3001 -0.1478 -1.6062
 2366TIP3    H2 7105   1.690   5.729   1.237  1.8617  1.1289  0.6896
 2367TIP3   OH2 7106   2.026   0.706   3.377  0.0670  0.6465  0.2913
 2367TIP3    H1 7107   2.030   0.743   3.290 -1.0695  1.2950  0.4916
 2367TIP3    H2 7108   1.937   0.671   3.384  0.5364 -0.5121  0.7554
 2368TIP3   OH2 7109   5.226   0.198   5.102 -0.1781  0.1822 -0.2551
 2368TIP3    H1 7110   5.317   0.171   5.096 -0.0168  0.6207  0.1822
 2368TIP3    H2 7111   5.229   0.293   5.111 -0.7160  0.3103 -1.2116
 2369TIP3   OH2 7112   3.502   1.590   4.471 -0.5938  0.1952 -0.4100
 2369TIP3    H1 7113   3.430   1.564   4.529  0.3332  0.0019  0.6852
 2369TIP3    H2 7114   3.507   1.520   4.406 -0.3601 -0.6235  0.4679
 2370TIP3   OH2 7115   5.677   5.045   3.306 -0.5548  0.1573  0.4180
 2370TIP3    H1 7116   5.754   5.079   3.260  0.4521 -2.5149 -0.0178
 2370TIP3    H2 7117   5.619   5.014   3.236 -1.8265  1.5613  0.7771
 2371TIP3   OH2 7118   1.019   1.368   3.053 -0.2947 -0.5376 -0.2221
 2371TIP3    H1 7119   0.976   1.448   3.083  0.0729 -1.3386  2.7892
 2371TIP3    H2 7120   1.112   1.382   3.072 -0.2041 -1.5662  0.1551
 2372TIP3   OH2 7121   4.155   1.053   3.663 -0.1534 -0.3867 -0.3193
 2372TIP3    H1 7122   4.235   1.004   3.683 -0.9576 -1.5145  0.2445
 2372TIP3    H2 7123   4.179   1.108   3.589  0.9347 -1.2901 -0.6700
 2373TIP3   OH2 7124   5.701   2.515   1.350 -0.1531 -0.2462  0.1477
 2373TIP3    H1 7125   5.630   2.570   1.382 -0.6587 -0.8559  0.0931
 2373TIP3    H2 7126   5.738   2.563   1.277 -0.1069  0.3610  0.5622
 2374TIP3   OH2 7127   5.393   3.158   0.880 -0.0555  0.8384  0.5545
 2374TIP3    H1 7128   5.394   3.069   0.844  0.0592  1.3973 -0.8491
 2374TIP3    H2 7129   5.387   3.144   0.975  1.1171 -0.6918  0.4519
 2375TIP3   OH2 7130   2.126   1.197   1.175  0.0463 -0.3896 -0.1677
 2375TIP3    H1 7131   2.148   1.283   1.139  1.3131 -0.3448  0.6291
 2375TIP3    H2 7132   2.033   1.187   1.158 -0.1811  1.2388 -0.0696
 2376TIP3   OH2 7133   6.079   1.832   2.909 -0.3497  0.3536  0.4699
 2376TIP3    H1 7134   6.146   1.887   2.869  0.2080 -1.0574 -0.6446
 2376TIP3    H2 7135   6.094   1.745   2.872 -2.2668 -0.1972  0.8480
 2377TIP3   OH2 7136   4.518   3.051  -0.006  0.0986  0.1256  0.2529
 2377TIP3    H1 7137   4.531   3.083   0.083  0.1405 -0.2420  0.3794
 2377TIP3    H2 7138   4.580   3.101  -0.059 -1.0522  1.5126  0.1644
 2378TIP3   OH2 7139   2.130   3.750   2.085 -0.3605 -0.5707 -0.1705
 2378TIP3    H1 7140   2.100   3.689   2.018 -0.2654  0.8042 -1.5322
 2378TIP3    H2 7141   2.062   3.747   2.152 -0.7001 -1.6495 -0.5363
 2379TIP3   OH2 7142   6.266   1.947   1.069 -0.1184  0.1490 -0.8196
 2379TIP3    H1 7143   6.205   2.015   1.098 -0.8581 -0.7673 -0.1440
 2379TIP3    H2 7144   6.228   1.914   0.988  0.5504  0.9173 -1.4615
 2380TIP3   OH2 7145   1.971   3.803   3.030  0.7646  0.3800 -0.1517
 2380TIP3    H1 7146   1.969   3.889   2.988 -0.8279  0.0516 -0.8214
 2380TIP3    H2 7147   1.920   3.814   3.110 -0.9634 -0.3298 -1.1106
 2381TIP3   OH2 7148   4.992   3.084   3.899 -0.2340 -0.2463  0.0542
 2381TIP3    H1 7149   4.953   3.044   3.976 -0.9825  0.5667  0.1111
 2381TIP3    H2 7150   5.062   3.024   3.873  1.3905  0.4192  2.5418
 2382TIP3   OH2 7151   4.959   0.891   3.823 -0.1609  0.7801 -0.2525
 2382TIP3    H1 7152   5.051   0.915   3.814 -0.0781 -0.0164 -2.0012
 2382TIP3    H2 7153   4.915   0.934   3.749 -0.8691 -0.2798 -0.4754
 2383TIP3   OH2 7154   3.455   2.738   2.979  0.5566 -0.1345  0.5641
 2383TIP3    H1 7155   3.390   2.715   2.913 -0.1413  0.7499  0.9210
 2383TIP3    H2 7156   3.444   2.673   3.048  0.0342  0.0204  0.6274
 2384TIP3   OH2 7157   4.718   1.995   3.133  0.9379  0.6318 -0.3229
 2384TIP3    H1 7158   4.664   1.918   3.153 -2.7229  3.0598  0.0363
 2384TIP3    H2 7159   4.710   2.006   3.039  1.0946  0.8620 -0.3091
 2385TIP3   OH2 7160   2.103   3.353   4.442 -0.5280 -0.0516 -0.1493
 2385TIP3    H1 7161   2.193   3.357   4.475 -0.6869  1.6267  0.2013
 2385TIP3    H2 7162   2.104   3.406   4.363 -1.2408  0.1613 -0.0272
 2386TIP3   OH2 7163   1.778   2.058   0.355 -0.0074  0.1468  0.1967
 2386TIP3    H1 7164   1.722   2.088   0.426 -1.1804  0.0392 -0.6700
 2386TIP3    H2 7165   1.818   1.977   0.389  2.8162  2.2081  2.3721
 2387TIP3   OH2 7166   5.634   4.376   0.615 -0.2944  0.4977  1.0146
 2387TIP3    H1 7167   5.544   4.391   0.644 -0.5903 -1.3316  1.2104
 2387TIP3    H2 7168   5.679   4.342   0.693 -0.1344 -0.9999  0.3169
 2388TIP3   OH2 7169   0.632   2.718   0.881 -0.0236 -0.2459 -0.1006
 2388TIP3    H1 7170   0.703   2.725   0.945 -0.4377 -1.2391  0.4895
 2388TIP3    H2 7171   0.662   2.770   0.806  0.3394  1.2167  1.0001
 2389TIP3   OH2 7172   1.281   0.957   1.566  0.7373  0.1488 -0.0168
 2389TIP3    H1 7173   1.334   0.898   1.620  1.4409  1.5205  0.8665
 2389TIP3    H2 7174   1.199   0.909   1.552  0.9126 -0.6691  1.4712
 2390TIP3   OH2 7175   2.354   5.289   2.621  0.1888  0.0311  0.0524
 2390TIP3    H1 7176   2.410   5.333   2.557 -0.0968  0.3217  0.0020
 2390TIP3    H2 7177   2.371   5.336   2.703 -0.0571  0.1907  0.0146
 2391TIP3   OH2 7178   1.290   1.090   1.975 -0.1362  0.3146  0.0638
 2391TIP3    H1 7179   1.322   1.178   1.956 -0.2067  0.0871 -1.1511
 2391TIP3    H2 7180   1.285   1.087   2.071  2.5276  0.7088  0.3011
 2392TIP3   OH2 7181   3.095   3.006   2.781  0.4181  0.1431 -0.6190
 2392TIP3    H1 7182   3.072   3.055   2.702  1.8891 -0.7924 -1.6887
 2392TIP3    H2 7183   3.011   2.976   2.816 -0.2689  0.5309 -1.8680
 2393TIP3   OH2 7184   1.528   3.731   3.657 -0.4475  0.0889 -0.2083
 2393TIP3    H1 7185   1.446   3.684   3.641 -1.3631  1.2473  0.8233
 2393TIP3    H2 7186   1.521   3.809   3.602  0.6712 -0.5425 -1.2709
 2394TIP3   OH2 7187   0.964   5.716   3.246 -0.1860 -0.5460  0.5502
 2394TIP3    H1 7188   0.957   5.754   3.334 -0.1350 -0.3860  0.4839
 2394TIP3    H2 7189   0.877   5.680   3.229 -1.3251  2.5421 -0.7830
 2395TIP3   OH2 7190   1.841   4.181   4.568  0.5009 -0.0823  0.2862
 2395TIP3    H1 7191   1.770   4.130   4.529  0.5543  0.2097 -0.1964
 2395TIP3    H2 7192   1.807   4.209   4.653  0.3617 -0.6691  0.4270
 2396TIP3   OH2 7193   6.220   4.456   4.273 -0.1615  0.0875  0.4654
 2396TIP3    H1 7194   6.190   4.525   4.213 -1.5264 -0.3071  0.6614
 2396TIP3    H2 7195   6.254   4.504   4.349 -1.3223  0.5661  0.7081
 2397TIP3   OH2 7196   0.544   2.610   0.038  0.1689 -0.4049  0.4890
 2397TIP3    H1 7197   0.526   2.682  -0.023  2.0987  1.7846  2.3580
 2397TIP3    H2 7198   0.473   2.615   0.102  0.7263  0.4024  1.0633
 2398TIP3   OH2 7199   3.700   5.188   2.227 -0.1424 -0.2401 -0.8774
 2398TIP3    H1 7200   3.776   5.220   2.179 -0.0854  2.2679  0.7253
 2398TIP3    H2 7201   3.736   5.122   2.286  0.8159  0.8867 -0.1695
 2399TIP3   OH2 7202   4.502   4.241   2.689  0.3472 -0.1084  0.0970
 2399TIP3    H1 7203   4.555   4.188   2.629 -1.9129  1.2797 -3.5119
 2399TIP3    H2 7204   4.503   4.329   2.649 -1.4466  0.8875  2.0460
 2400TIP3   OH2 7205   2.491   3.921   2.450  0.3614  0.7532 -0.0102
 2400TIP3    H1 7206   2.568   3.964   2.413 -2.0657  4.1190 -1.7661
 2400TIP3    H2 7207   2.456   3.868   2.377  1.4048 -1.6095  1.0846
 2401TIP3   OH2 7208   1.820   3.026   1.627 -0.0748 -0.1514 -0.6313
 2401TIP3    H1 7209   1.838   2.959   1.693 -0.1702  0.4679  0.0409
 2401TIP3    H2 7210   1.874   3.001   1.552  0.7240 -0.3900  0.0005
 2402TIP3   OH2 7211   2.595   5.760   4.976  0.3332  0.3755  0.0388
 2402TIP3    H1 7212   2.647   5.829   5.018  1.2929 -1.1397  1.4701
 2402TIP3    H2 7213   2.524   5.806   4.934  0.7879  2.2321  1.1779
 2403TIP3   OH2 7214   4.811   5.915   3.695 -0.0347  0.7412  0.6684
 2403TIP3    H1 7215   4.767   5.957   3.769 -1.8820  1.4483 -0.7780
 2403TIP3    H2 7216   4.802   5.976   3.623  1.2191 -0.1902 -0.3263
 2404TIP3   OH2 7217   1.203   3.873   3.225 -0.3306 -0.2682  0.3245
 2404TIP3    H1 7218   1.113   3.841   3.232 -0.4317 -0.2106 -0.5647
 2404TIP3    H2 7219   1.246   3.811   3.166 -0.1694  0.4781 -0.3644
 2405TIP3   OH2 7220   0.644   0.445   3.696 -0.0486 -0.2334 -0.1073
 2405TIP3    H1 7221   0.601   0.407   3.619  0.2650  1.9633 -1.4533
 2405TIP3    H2 7222   0.594   0.411   3.770 -2.7370  0.4610 -1.4690
 2406TIP3   OH2 7223   1.472   0.879   5.167 -0.0403  0.7264  0.3020
 2406TIP3    H1 7224   1.450   0.911   5.080  1.4900 -0.3859 -0.5598
 2406TIP3    H2 7225   1.544   0.935   5.196  0.8083 -0.1545 -0.0440
 2407TIP3   OH2 7226   5.658   4.575   1.600  0.4581  0.0900  0.1744
 2407TIP3    H1 7227   5.700   4.615   1.524  0.5413 -0.1051  0.1169
 2407TIP3    H2 7228   5.724   4.582   1.670  0.6797 -0.4167  0.0260
 2408TIP3   OH2 7229   0.125   3.218   2.010 -1.3439 -0.0538 -0.3227
 2408TIP3    H1 7230   0.212   3.234   2.046 -1.6422  1.5038 -0.2095
 2408TIP3    H2 7231   0.076   3.181   2.084 -1.2265  0.6530  0.1232
 2409TIP3   OH2 7232   3.002   4.006   4.607 -0.2094  0.2423  0.3948
 2409TIP3    H1 7233   2.926   3.989   4.663 -0.6931  0.6101 -0.1411
 2409TIP3    H2 7234   3.065   4.049   4.666  0.0592 -1.1045  1.1313
 2410TIP3   OH2 7235   4.306   2.500   1.486 -0.1757 -0.0409  0.0944
 2410TIP3    H1 7236   4.339   2.516   1.397  0.3279 -2.0600 -0.1276
 2410TIP3    H2 7237   4.376   2.452   1.529 -0.6083  0.5090  1.4632
 2411TIP3   OH2 7238   3.604   5.054   0.962  0.1220 -0.2939  0.2842
 2411TIP3    H1 7239   3.684   5.013   0.931  0.6844  0.4405  0.7381
 2411TIP3    H2 7240   3.533   5.003   0.922  0.7924  0.5873 -2.1452
 2412TIP3   OH2 7241   2.963   3.498   2.654 -0.4089 -0.4662  0.5513
 2412TIP3    H1 7242   2.892   3.469   2.597  0.3349 -3.2292  0.8693
 2412TIP3    H2 7243   3.043   3.472   2.608  0.3329  0.5195  1.2344
 2413TIP3   OH2 7244   5.833   2.434   3.132  0.2876 -0.1763 -0.2170
 2413TIP3    H1 7245   5.808   2.379   3.206 -0.9999 -0.0789 -0.5542
 2413TIP3    H2 7246   5.750   2.461   3.093  0.9284  0.5909 -1.0996
 2414TIP3   OH2 7247   4.687   3.317   1.598  0.1729  0.2315  0.3353
 2414TIP3    H1 7248   4.671   3.377   1.525 -1.4808  0.9208  1.1988
 2414TIP3    H2 7249   4.679   3.230   1.559 -2.7049  0.5497 -0.0145
 2415TIP3   OH2 7250   5.130   2.241   1.252 -0.0979  0.0048  0.1483
 2415TIP3    H1 7251   5.221   2.240   1.280  0.2766  0.0663 -1.0109
 2415TIP3    H2 7252   5.106   2.149   1.242  0.0297  0.0022 -0.1376
 2416TIP3   OH2 7253   4.662   3.046   1.523  0.1070  0.6407  0.4963
 2416TIP3    H1 7254   4.573   3.025   1.495  0.3838  1.6849 -1.3034
 2416TIP3    H2 7255   4.701   2.962   1.546 -0.8983  0.0139 -0.0491
 2417TIP3   OH2 7256   5.446   1.417   2.888 -0.3636  0.2843 -0.5798
 2417TIP3    H1 7257   5.504   1.487   2.917  0.8607 -0.8188 -0.2290
 2417TIP3    H2 7258   5.361   1.438   2.925  0.5901  0.1785  1.8144
 2418TIP3   OH2 7259   4.040   4.110   4.431  0.3176 -0.0417  0.1154
 2418TIP3    H1 7260   4.074   4.024   4.405  0.5656  0.5270 -1.5182
 2418TIP3    H2 7261   3.998   4.145   4.353  0.1177  1.2905  0.7822
 2419TIP3   OH2 7262   6.176   3.011   2.209  0.2847 -0.1496 -0.2975
 2419TIP3    H1 7263   6.174   3.104   2.185  0.2628 -0.2813 -0.8231
 2419TIP3    H2 7264   6.109   2.971   2.155  0.6439 -0.5579 -0.4463
 2420TIP3   OH2 7265   0.908   3.014   2.563 -0.1214 -0.2557 -0.4194
 2420TIP3    H1 7266   0.823   2.970   2.562 -0.5360  0.4711 -2.1051
 2420TIP3    H2 7267   0.887   3.107   2.555  0.8138 -0.1979 -3.4521
 2421TIP3   OH2 7268   3.342   3.664   4.868  0.6886  0.3355  0.2844
 2421TIP3    H1 7269   3.296   3.581   4.857  1.4236  0.0212 -0.5280
 2421TIP3    H2 7270   3.279   3.721   4.913  0.6638 -1.0892  2.1568
 2422TIP3   OH2 7271   4.825   4.772   1.829 -0.0074  0.0356  0.5307
 2422TIP3    H1 7272   4.813   4.681   1.858 -0.8543  0.4110  1.4073
 2422TIP3    H2 7273   4.782   4.774   1.743  2.4969 -1.0729 -0.8465
 2423TIP3   OH2 7274   3.982   0.925   2.883 -0.0536 -0.1006 -0.0919
 2423TIP3    H1 7275   3.996   0.952   2.974 -2.8701 -1.2799  0.8098
 2423TIP3    H2 7276   3.940   0.839   2.889 -0.8757  0.0477 -2.4684
 2424TIP3   OH2 7277   2.806   5.325   4.218 -0.1634 -0.1823 -0.2412
 2424TIP3    H1 7278   2.712   5.311   4.217 -0.2601  0.3026  0.7104
 2424TIP3    H2 7279   2.817   5.412   4.256  0.6993 -0.5971  0.4980
 2425TIP3   OH2 7280   6.097   3.403   1.869  0.1060  0.0559  0.2873
 2425TIP3    H1 7281   6.038   3.351   1.815  0.0508 -2.2867  2.4350
 2425TIP3    H2 7282   6.167   3.430   1.809 -1.2666 -0.1689 -1.4882
 2426TIP3   OH2 7283   3.347   5.731   2.918 -0.4734 -0.3756 -0.2881
 2426TIP3    H1 7284   3.437   5.759   2.904 -0.9693  0.6338 -1.7418
 2426TIP3    H2 7285   3.339   5.650   2.868 -0.6675  0.1648 -1.1614
 2427TIP3   OH2 7286   4.562   4.932   1.235 -0.1815 -0.0199  0.2774
 2427TIP3    H1 7287   4.646   4.891   1.256 -0.3463 -1.5995 -1.8692
 2427TIP3    H2 7288   4.584   5.006   1.180 -0.1929 -0.4738 -0.3402
 2428TIP3   OH2 7289   4.123   2.631   3.218 -0.0077  0.3836  0.0096
 2428TIP3    H1 7290   4.110   2.550   3.268  0.2814  0.3047 -0.0444
 2428TIP3    H2 7291   4.217   2.645   3.219 -0.0387  0.6037 -0.1665
 2429TIP3   OH2 7292   2.348   4.633   2.307 -0.2534  0.1015 -0.7598
 2429TIP3    H1 7293   2.326   4.726   2.307 -0.9082  0.0051  1.4305
 2429TIP3    H2 7294   2.354   4.610   2.400  2.4189 -1.4660 -1.2082
 2430TIP3   OH2 7295   2.004   3.246   3.542 -0.0713  0.8588 -0.1140
 2430TIP3    H1 7296   2.044   3.284   3.463  2.2965  0.5517  0.8600
 2430TIP3    H2 7297   1.914   3.226   3.515  0.4865  1.2520 -2.5709
 2431TIP3   OH2 7298   4.091   5.826   3.028 -0.4937  0.0578  0.1806
 2431TIP3    H1 7299   4.137   5.887   2.971  0.9071 -0.8787  0.2575
 2431TIP3    H2 7300   4.054   5.761   2.969  2.2830 -1.8078  0.3025
 2432TIP3   OH2 7301   6.088   3.910   4.335  0.7334  0.0365  0.3037
 2432TIP3    H1 7302   6.132   3.984   4.376  1.2953  0.3184 -0.7701
 2432TIP3    H2 7303   6.130   3.902   4.249  1.2183 -1.9920  0.6789
 2433TIP3   OH2 7304   1.279   3.953   0.940  0.1302  0.7041  0.3147
 2433TIP3    H1 7305   1.308   4.012   1.010 -3.8998  2.3047  0.9120
 2433TIP3    H2 7306   1.300   4.000   0.859  1.2786  0.6614  0.5661
 2434TIP3   OH2 7307   1.021   3.790   0.931  0.3319  0.2507 -0.3574
 2434TIP3    H1 7308   1.084   3.862   0.926 -0.5113  1.0216 -0.1608
 2434TIP3    H2 7309   1.050   3.728   0.864  0.8952  0.9255 -0.7511
 2435TIP3   OH2 7310   4.559   4.429   2.268  0.0445  0.1765 -0.1695
 2435TIP3    H1 7311   4.479   4.381   2.289  1.4532 -2.2257  0.0194
 2435TIP3    H2 7312   4.615   4.365   2.223  2.7207  1.1103  1.6071
 2436TIP3   OH2 7313   0.709   2.602   0.409 -0.4606  0.2832  0.1053
 2436TIP3    H1 7314   0.717   2.545   0.486 -0.9671  0.8687  0.6021
 2436TIP3    H2 7315   0.779   2.573   0.351 -0.8862 -1.0425  0.2124
 2437TIP3   OH2 7316   3.772   4.220   0.757 -0.0335 -0.0794 -0.4144
 2437TIP3    H1 7317   3.728   4.255   0.680  2.6001 -1.7135 -2.8958
 2437TIP3    H2 7318   3.776   4.126   0.741  1.7585 -0.3163  1.0913
 2438TIP3   OH2 7319   2.649   0.587   2.556  0.2224  0.5340 -0.4512
 2438TIP3    H1 7320   2.634   0.636   2.637 -1.6799 -0.0816 -0.3744
 2438TIP3    H2 7321   2.697   0.648   2.500  1.1125  1.1576  0.9375
 2439TIP3   OH2 7322   3.496   2.674   2.167 -0.5107  0.2549 -0.5043
 2439TIP3    H1 7323   3.419   2.722   2.135  0.7015  0.8301 -2.7145
 2439TIP3    H2 7324   3.568   2.703   2.112  1.2121 -0.7386  1.0985
 2440TIP3   OH2 7325   2.134   0.070   0.398 -0.1772 -0.1518 -0.2461
 2440TIP3    H1 7326   2.066   0.117   0.447 -0.1463  0.7062 -0.9904
 2440TIP3    H2 7327   2.172   0.009   0.461 -0.3385  0.7111  0.7129
 2441TIP3   OH2 7328   5.596   4.049   4.538 -0.2651  0.5074 -0.0195
 2441TIP3    H1 7329   5.668   4.004   4.493 -0.6726  1.1012 -1.3181
 2441TIP3    H2 7330   5.630   4.068   4.625 -0.2485 -2.7734  0.8484
 2442TIP3   OH2 7331   3.742   1.300   1.536  0.2517 -0.1670 -0.5560
 2442TIP3    H1 7332   3.716   1.210   1.517 -1.0441 -0.1030  0.7356
 2442TIP3    H2 7333   3.666   1.353   1.514 -0.5405  0.1226  2.4066
 2443TIP3   OH2 7334   3.894   5.168   1.361 -0.0320 -0.0645  0.0468
 2443TIP3    H1 7335   3.917   5.077   1.342 -1.1591 -0.2717 -0.4330
 2443TIP3    H2 7336   3.847   5.165   1.444  0.4278  0.1551  0.3150
 2444TIP3   OH2 7337   1.906   4.325   1.792  0.9991 -0.5803 -0.3713
 2444TIP3    H1 7338   1.818   4.358   1.811  0.7444 -2.0643  1.3996
 2444TIP3    H2 7339   1.914   4.247   1.848  2.3083 -2.2573 -2.7290
 2445TIP3   OH2 7340   5.118   3.588   4.568 -0.2685 -0.5172  0.0704
 2445TIP3    H1 7341   5.032   3.602   4.528 -0.7388 -3.6081 -0.2773
 2445TIP3    H2 7342   5.099   3.580   4.662 -0.0773  0.4030  0.2018
 2446TIP3   OH2 7343   4.969   3.957   2.677  0.0942 -0.6207  0.6956
 2446TIP3    H1 7344   5.017   3.875   2.668 -0.8025 -1.2053  1.1157
 2446TIP3    H2 7345   5.037   4.021   2.699  1.3853 -0.4531 -2.9949
 2447TIP3   OH2 7346   4.984   0.709   2.544 -0.2843  0.0871  0.0760
 2447TIP3    H1 7347   4.900   0.725   2.588 -0.7592 -0.7059 -0.5049
 2447TIP3    H2 7348   5.049   0.748   2.602 -1.1364  1.8262 -0.0658
 2448TIP3   OH2 7349   3.057   2.495   4.587  0.0734 -0.3737 -0.2539
 2448TIP3    H1 7350   3.086   2.481   4.677  0.0697 -0.9313 -0.3360
 2448TIP3    H2 7351   3.135   2.526   4.541  0.4663 -1.4957 -0.3838
 2449TIP3   OH2 7352   1.989   0.459   1.986  0.5063 -1.0057  0.5049
 2449TIP3    H1 7353   2.053   0.497   2.046 -1.2621 -0.0671  1.8898
 2449TIP3    H2 7354   1.909   0.451   2.037 -1.0835 -0.2605 -1.6887
 2450TIP3   OH2 7355   4.868   2.671   0.776  0.2151  0.1391  0.4204
 2450TIP3    H1 7356   4.923   2.736   0.733  0.5194 -1.6040 -2.0026
 2450TIP3    H2 7357   4.786   2.671   0.726 -0.2596 -0.4735  1.1557
 2451TIP3   OH2 7358   3.175   4.931   3.514 -0.6612 -0.1604  0.3641
 2451TIP3    H1 7359   3.110   4.985   3.469 -0.4453  0.2238  0.5040
 2451TIP3    H2 7360   3.204   4.985   3.588  0.3767 -0.0021 -0.1384
 2452TIP3   OH2 7361   0.187   2.988   4.546  0.0533 -0.3425 -0.0101
 2452TIP3    H1 7362   0.263   3.019   4.499 -0.4428  0.3854 -0.3429
 2452TIP3    H2 7363   0.117   2.985   4.481 -0.7087  0.9348  0.7188
 2453TIP3   OH2 7364   5.991   5.614   4.839  0.4031  0.0828 -0.2704
 2453TIP3    H1 7365   5.956   5.542   4.892 -0.2905 -0.4268 -1.3770
 2453TIP3    H2 7366   6.026   5.676   4.903  0.5775 -1.0090  0.7295
 2454TIP3   OH2 7367   6.276   5.779   3.168 -0.0557  0.0068  0.6829
 2454TIP3    H1 7368   6.336   5.742   3.233  1.2889 -1.6085 -1.3628
 2454TIP3    H2 7369   6.265   5.710   3.103 -3.0158  0.7994  0.1970
 2455TIP3   OH2 7370   4.906   3.155   1.379 -0.5473  0.0095  0.3267
 2455TIP3    H1 7371   4.841   3.136   1.446 -0.5022 -0.5560  0.2131
 2455TIP3    H2 7372   4.858   3.205   1.313 -0.5182  0.8369  0.9149
 2456TIP3   OH2 7373   1.204   3.614   2.363  0.7137  0.7595 -0.0751
 2456TIP3    H1 7374   1.157   3.692   2.336  0.9391  0.6787 -0.7317
 2456TIP3    H2 7375   1.289   3.646   2.394  0.7990  0.7806 -0.3268
 2457TIP3   OH2 7376   1.373   0.138   0.626  0.6217  0.1883 -0.5368
 2457TIP3    H1 7377   1.278   0.126   0.618  0.3592  0.0336  1.9708
 2457TIP3    H2 7378   1.408   0.049   0.634  0.7082  0.3056  0.5772
 2458TIP3   OH2 7379   3.488   3.643   1.339  0.1535  0.0784 -0.3994
 2458TIP3    H1 7380   3.552   3.658   1.409 -0.1465  0.2341 -0.1581
 2458TIP3    H2 7381   3.414   3.698   1.362 -0.9838 -1.7461  0.5095
 2459TIP3   OH2 7382   6.019   2.818   0.233  0.0945 -0.1801  0.1400
 2459TIP3    H1 7383   5.993   2.818   0.141  2.3665  1.3366 -0.5942
 2459TIP3    H2 7384   6.107   2.779   0.234 -0.5212 -1.6750  1.9305
 2460TIP3   OH2 7385   2.296   1.248   0.587  0.3698  0.3715 -0.0717
 2460TIP3    H1 7386   2.342   1.282   0.664 -0.2509  1.9057 -0.3584
 2460TIP3    H2 7387   2.366   1.220   0.529  1.0159  2.6800 -0.5015
 2461TIP3   OH2 7388   4.784   4.422   1.702  0.8959  0.2548  0.4343
 2461TIP3    H1 7389   4.709   4.371   1.673  1.8830 -0.3667 -1.1925
 2461TIP3    H2 7390   4.757   4.461   1.785 -1.6970  1.1717 -0.7621
 2462TIP3   OH2 7391   6.178   0.934   4.751  0.8479 -0.0332 -0.0070
 2462TIP3    H1 7392   6.211   0.879   4.822  1.9501 -0.4595 -0.8310
 2462TIP3    H2 7393   6.240   1.007   4.746  0.8794 -0.0952 -0.6317
 2463TIP3   OH2 7394   0.994   3.330   1.627  0.1652 -0.3770 -0.5292
 2463TIP3    H1 7395   0.932   3.343   1.699  0.7908  1.2787 -0.2699
 2463TIP3    H2 7396   1.069   3.385   1.648  0.7648 -0.5763 -1.9863
 2464TIP3   OH2 7397   4.349   3.035   4.064  0.1377  0.5280  0.0485
 2464TIP3    H1 7398   4.276   3.054   4.123 -0.9015  0.2383 -1.1182
 2464TIP3    H2 7399   4.361   2.940   4.070  0.6405  0.6104  0.4686
 2465TIP3   OH2 7400   0.908   4.935   5.075 -0.0676 -0.4301 -0.3254
 2465TIP3    H1 7401   0.912   4.848   5.035  0.0148 -1.6712  2.1732
 2465TIP3    H2 7402   0.993   4.947   5.116  0.2850  1.3224 -1.4420
 2466TIP3   OH2 7403   5.005   5.694   2.618  0.4069 -0.0419 -0.1154
 2466TIP3    H1 7404   4.988   5.606   2.585  2.0229 -0.8640  1.0928
 2466TIP3    H2 7405   5.071   5.730   2.559 -0.6840  0.6259 -0.9639
 2467TIP3   OH2 7406   3.695   2.620   1.227  0.4093  0.3113 -0.2447
 2467TIP3    H1 7407   3.738   2.561   1.289 -0.0750  0.3085  0.0906
 2467TIP3    H2 7408   3.749   2.614   1.148  0.7505 -0.0592  0.0087
 2468TIP3   OH2 7409   3.719   1.765   4.467 -0.0776  0.4141  0.2362
 2468TIP3    H1 7410   3.641   1.711   4.474 -0.1622  0.3175 -1.0635
 2468TIP3    H2 7411   3.782   1.724   4.526 -0.1543 -1.1203 -0.6873
 2469TIP3   OH2 7412   1.868   4.157   2.056  0.7116 -0.4649 -0.2367
 2469TIP3    H1 7413   1.963   4.146   2.048  0.7399 -0.1302 -0.3920
 2469TIP3    H2 7414   1.856   4.252   2.057  0.3810 -0.5095 -0.1854
 2470TIP3   OH2 7415   1.838   3.902   3.247 -0.2089  0.5429 -0.2670
 2470TIP3    H1 7416   1.908   3.906   3.312 -1.2684 -1.9212  1.1668
 2470TIP3    H2 7417   1.785   3.980   3.265 -0.4901 -0.0881  1.9560
 2471TIP3   OH2 7418   3.743   0.119   4.689  0.2064  0.1684  0.1382
 2471TIP3    H1 7419   3.783   0.205   4.675  0.9770 -0.2421 -0.2378
 2471TIP3    H2 7420   3.654   0.128   4.655  0.1414  0.9426  0.5023
 2472TIP3   OH2 7421   4.916   1.526   3.675 -0.3449 -0.0416  0.2331
 2472TIP3    H1 7422   4.935   1.535   3.768  0.0107  0.6096  0.1066
 2472TIP3    H2 7423   5.001   1.504   3.636 -0.5605 -0.6457  0.1076
 2473TIP3   OH2 7424   2.766   1.723   1.148  0.1278 -0.0229 -0.6600
 2473TIP3    H1 7425   2.819   1.796   1.118  0.3898  0.5299  1.0299
 2473TIP3    H2 7426   2.795   1.648   1.096  3.0564  0.1161  0.5944
 2474TIP3   OH2 7427   2.116   3.780   0.577 -0.2817 -0.8544  0.1230
 2474TIP3    H1 7428   2.031   3.798   0.536 -0.9523  0.3158  1.9447
 2474TIP3    H2 7429   2.175   3.769   0.503 -1.9857 -1.6850 -1.2106
 2475TIP3   OH2 7430   1.749   0.371   1.620 -0.0530 -0.0914 -0.4622
 2475TIP3    H1 7431   1.779   0.335   1.537 -0.3146  0.5622 -0.8484
 2475TIP3    H2 7432   1.775   0.463   1.617 -1.8458  0.4563 -0.7227
 2476TIP3   OH2 7433   2.988   4.353   0.086  0.5348 -0.2227  0.5692
 2476TIP3    H1 7434   2.999   4.427   0.145  0.8756  0.0482  0.1679
 2476TIP3    H2 7435   3.061   4.295   0.105 -0.3243 -0.9930  1.6474
 2477TIP3   OH2 7436   1.012   5.154   3.604 -0.3625  0.0516  0.3976
 2477TIP3    H1 7437   1.025   5.171   3.511 -2.1164 -1.3227 -0.1546
 2477TIP3    H2 7438   1.081   5.093   3.627  0.3617  0.7544  0.1328
 2478TIP3   OH2 7439   4.333   4.903   3.365 -0.3187 -0.2250  0.0590
 2478TIP3    H1 7440   4.244   4.896   3.332  0.2393  0.5239 -1.6959
 2478TIP3    H2 7441   4.379   4.828   3.329 -0.5115 -1.3823  2.0664
 2479TIP3   OH2 7442   4.030   5.969   2.795  0.3505  0.5930  0.3909
 2479TIP3    H1 7443   4.042   5.885   2.752 -0.7284 -1.3898  3.6859
 2479TIP3    H2 7444   4.119   5.999   2.815  0.7245  0.1231 -0.5298
 2480TIP3   OH2 7445   5.095   2.169   3.816  0.4331 -0.2040  0.4858
 2480TIP3    H1 7446   5.038   2.224   3.763 -2.5051 -0.8671  2.7186
 2480TIP3    H2 7447   5.149   2.230   3.866  0.1807  0.5105 -0.1057
 2481TIP3   OH2 7448   0.580   1.909   1.393  0.3856 -0.2523  0.9403
 2481TIP3    H1 7449   0.498   1.950   1.363  0.6883  0.6299  1.2818
 2481TIP3    H2 7450   0.649   1.957   1.349  0.7177 -1.9028 -0.4436
 2482TIP3   OH2 7451   2.539   0.847   2.342  0.1791  0.0014  0.4166
 2482TIP3    H1 7452   2.546   0.919   2.404  0.0337 -0.0204  0.4578
 2482TIP3    H2 7453   2.506   0.774   2.393  1.3767 -0.4182  0.6304
 2483TIP3   OH2 7454   0.959   2.172   2.974 -0.0773  0.0304 -0.2098
 2483TIP3    H1 7455   0.871   2.172   3.013 -0.3076  0.8855 -0.7098
 2483TIP3    H2 7456   0.963   2.253   2.924  0.9721 -0.0463 -0.2706
 2484TIP3   OH2 7457   5.852   4.342   1.129  0.1513  0.3445 -0.3483
 2484TIP3    H1 7458   5.815   4.355   1.216 -0.8549  0.6626 -0.8094
 2484TIP3    H2 7459   5.942   4.312   1.145 -0.5170 -1.1407  0.7971
 2485TIP3   OH2 7460   4.317   5.641   2.307  0.0066  0.2506 -0.3599
 2485TIP3    H1 7461   4.388   5.683   2.354  0.4939  1.4727 -2.0845
 2485TIP3    H2 7462   4.361   5.576   2.252 -0.4625 -0.5636  0.2100
 2486TIP3   OH2 7463   0.288   3.909   0.278  0.1474  0.0371 -0.2643
 2486TIP3    H1 7464   0.376   3.917   0.241  0.3238  0.4881  0.2388
 2486TIP3    H2 7465   0.266   3.999   0.305 -0.5958 -0.0180 -0.6836
 2487TIP3   OH2 7466   2.239   5.872   4.578 -0.2868 -0.1782  0.0557
 2487TIP3    H1 7467   2.235   5.787   4.535 -0.0129 -0.2217  0.1155
 2487TIP3    H2 7468   2.148   5.899   4.585 -0.4336 -0.8412  0.7826
 2488TIP3   OH2 7469   5.399   3.345   1.528  0.5550  0.4051  0.9982
 2488TIP3    H1 7470   5.416   3.273   1.468 -2.0834  0.4784  0.0009
 2488TIP3    H2 7471   5.425   3.424   1.480 -0.6569  0.3911  0.2801
 2489TIP3   OH2 7472   4.930   4.534   2.970  0.1832  0.1364  0.3210
 2489TIP3    H1 7473   4.997   4.542   3.038 -0.9019  0.8966  1.3343
 2489TIP3    H2 7474   4.918   4.623   2.937  0.8854 -0.2558 -1.1062
 2490TIP3   OH2 7475   1.248   1.661   0.037 -0.4424  0.1055 -0.3247
 2490TIP3    H1 7476   1.295   1.579   0.053 -0.5182  0.2749  0.8424
 2490TIP3    H2 7477   1.317   1.724   0.017  0.0829  0.7160  2.8407
 2491TIP3   OH2 7478   3.222   3.879   3.208  0.2059  0.1865 -0.4395
 2491TIP3    H1 7479   3.200   3.786   3.207  3.3084 -0.6482 -0.7225
 2491TIP3    H2 7480   3.317   3.882   3.195  0.2367  3.4083 -0.3814
 2492TIP3   OH2 7481   5.123   0.892   2.761  0.5789  0.4065 -0.1842
 2492TIP3    H1 7482   5.163   0.848   2.836 -0.1931 -2.5140 -1.3770
 2492TIP3    H2 7483   5.035   0.916   2.791  1.0697  1.4606  0.5266
 2493TIP3   OH2 7484   6.184   3.616   2.290 -0.1334 -0.9415  0.0794
 2493TIP3    H1 7485   6.144   3.637   2.206 -0.6632  0.0891  0.5853
 2493TIP3    H2 7486   6.111   3.615   2.353  0.6224  1.4347  1.1026
 2494TIP3   OH2 7487   5.136   1.196   0.419  0.5727  0.2710  0.2925
 2494TIP3    H1 7488   5.066   1.132   0.409  0.6987  0.1317  0.3113
 2494TIP3    H2 7489   5.211   1.158   0.373  0.5799  0.5082  0.1069
 2495TIP3   OH2 7490   1.735   4.187   5.105 -0.4524  0.0432  0.5448
 2495TIP3    H1 7491   1.795   4.122   5.141  2.8159  1.9996 -0.8874
 2495TIP3    H2 7492   1.689   4.222   5.181  0.6190 -1.1655  1.7959
 2496TIP3   OH2 7493   0.567   5.947   2.795  0.0505  0.4868 -0.2665
 2496TIP3    H1 7494   0.479   5.921   2.766 -0.5595  0.5229  1.4178
 2496TIP3    H2 7495   0.620   5.945   2.715 -1.1802 -0.7591 -1.1123
 2497TIP3   OH2 7496   2.513   5.898   1.239  0.0765 -0.5233  0.0658
 2497TIP3    H1 7497   2.489   5.887   1.331 -2.4184 -2.2368 -0.6662
 2497TIP3    H2 7498   2.440   5.859   1.191  1.6384 -0.3573 -2.6412
 2498TIP3   OH2 7499   2.961   4.279   4.040  0.3325  0.7758  0.7797
 2498TIP3    H1 7500   2.973   4.236   4.124  0.3352  0.0541  0.4174
 2498TIP3    H2 7501   2.983   4.212   3.975  0.0649  1.2342  0.2018
 2499TIP3   OH2 7502   3.112   3.894   0.813  0.1031 -0.1318 -0.2587
 2499TIP3    H1 7503   3.116   3.822   0.751  0.9272 -1.4156  1.2112
 2499TIP3    H2 7504   3.074   3.856   0.892 -2.5651  1.8550 -0.4329
 2500TIP3   OH2 7505   1.214   3.251   2.392 -0.0251  0.1554 -0.4530
 2500TIP3    H1 7506   1.174   3.166   2.375 -1.3032  0.5808  0.3328
 2500TIP3    H2 7507   1.180   3.309   2.324 -1.2554  0.6516  0.5332
 2501TIP3   OH2 7508   0.334   4.083   2.097  0.6273  0.2580  0.4540
 2501TIP3    H1 7509   0.269   4.124   2.039  0.8754 -1.1017 -0.8711
 2501TIP3    H2 7510   0.285   4.062   2.177 -1.2569 -2.6228 -1.2522
 2502TIP3   OH2 7511   2.380   2.994   4.374  0.0225 -0.2763  0.5910
 2502TIP3    H1 7512   2.285   2.998   4.366 -0.0949  0.3247  1.9365
 2502TIP3    H2 7513   2.413   3.003   4.284 -1.1707  0.3418  0.1990
 2503TIP3   OH2 7514   4.621   3.423   4.310  0.1513  0.4326  0.4134
 2503TIP3    H1 7515   4.598   3.330   4.315 -0.2621  0.5339  0.4731
 2503TIP3    H2 7516   4.603   3.447   4.219  2.6748 -0.1431 -0.3296
 2504TIP3   OH2 7517   3.188   2.504   4.840  0.5031 -0.3540 -0.7661
 2504TIP3    H1 7518   3.227   2.418   4.825 -0.6315 -0.9874 -0.3093
 2504TIP3    H2 7519   3.213   2.526   4.930  0.8434 -0.1773 -0.9037
 2505TIP3   OH2 7520   1.337   0.134   3.345  0.2211 -0.0140  0.0328
 2505TIP3    H1 7521   1.367   0.177   3.425 -0.1080  2.6193 -1.1599
 2505TIP3    H2 7522   1.415   0.132   3.289 -0.7135  3.2627 -1.5902
 2506TIP3   OH2 7523   1.092   4.524   4.634 -0.5966  0.3364  0.0622
 2506TIP3    H1 7524   1.115   4.509   4.725 -1.4751 -0.1449  0.2215
 2506TIP3    H2 7525   1.165   4.574   4.598  1.1061 -1.8652  0.2756
 2507TIP3   OH2 7526   2.443   1.329   1.179  0.2390 -0.7539  0.1508
 2507TIP3    H1 7527   2.514   1.383   1.214 -0.6523  0.4609  0.1745
 2507TIP3    H2 7528   2.410   1.281   1.256 -0.6123  0.6358  0.7032
 2508TIP3   OH2 7529   0.916   2.870   1.387 -0.6276  0.6051  0.1399
 2508TIP3    H1 7530   0.989   2.861   1.326 -0.8874  0.3051 -0.1334
 2508TIP3    H2 7531   0.903   2.781   1.422 -2.1860  0.1795 -1.3713
 2509TIP3   OH2 7532   4.417   1.087   1.177  0.0155  0.3863 -0.2458
 2509TIP3    H1 7533   4.403   1.087   1.272  1.5157 -0.8237  0.0092
 2509TIP3    H2 7534   4.488   1.150   1.164 -0.7658  1.2070 -0.7050
 2510TIP3   OH2 7535   2.290   2.930   1.629  0.3102 -0.3450  0.4542
 2510TIP3    H1 7536   2.307   2.887   1.545 -1.7191  0.3585 -0.3828
 2510TIP3    H2 7537   2.221   2.878   1.670 -0.2431  0.5484  0.6815
 2511TIP3   OH2 7538   0.250   6.000   1.188 -0.3370 -0.5116  0.6816
 2511TIP3    H1 7539   0.208   5.919   1.157 -0.4495 -1.3252  2.7992
 2511TIP3    H2 7540   0.190   6.035   1.254 -0.3714  1.4467 -0.3166
 2512TIP3   OH2 7541   1.674   0.261   0.953  0.3186 -0.5751  0.3023
 2512TIP3    H1 7542   1.579   0.255   0.948  0.3217  0.1835 -1.3839
 2512TIP3    H2 7543   1.701   0.177   0.989 -0.8728 -1.8202 -1.5369
 2513TIP3   OH2 7544   3.049   4.082   3.864 -0.0201 -0.2325  0.1180
 2513TIP3    H1 7545   3.142   4.065   3.883  0.1616  1.4311  0.8540
 2513TIP3    H2 7546   3.044   4.086   3.769  0.4612 -1.2764  0.0286
 2514TIP3   OH2 7547   4.427   5.775   0.074  1.2563 -0.4464  0.4585
 2514TIP3    H1 7548   4.489   5.825   0.127 -0.6794  2.6104  0.0913
 2514TIP3    H2 7549   4.409   5.832  -0.001 -2.0644 -1.1013  0.6194
 2515TIP3   OH2 7550   0.640   3.783   4.286  0.4643 -0.9962 -0.3351
 2515TIP3    H1 7551   0.638   3.860   4.229 -0.5650 -1.0520 -0.3953
 2515TIP3    H2 7552   0.732   3.774   4.311  1.1911 -1.6862 -2.9593
 2516TIP3   OH2 7553   1.331   4.991   4.179 -0.0907  0.0059 -0.6606
 2516TIP3    H1 7554   1.409   5.045   4.189  0.5518 -0.9386 -0.3627
 2516TIP3    H2 7555   1.261   5.052   4.157  0.3639  1.0763  0.7792
 2517TIP3   OH2 7556   2.172   3.447   1.581  0.2477  0.5690 -0.0778
 2517TIP3    H1 7557   2.206   3.385   1.645 -0.2868 -0.2057 -0.5215
 2517TIP3    H2 7558   2.221   3.429   1.501 -1.3273 -0.7482 -0.7995
 2518TIP3   OH2 7559   1.618   4.547   2.455 -0.4407 -0.0792 -0.3066
 2518TIP3    H1 7560   1.653   4.469   2.498 -1.8928  0.3329  1.7583
 2518TIP3    H2 7561   1.555   4.513   2.392 -0.6225 -0.6079  0.1527
 2519TIP3   OH2 7562   1.327   4.676   4.108  0.3450  0.3034  0.8944
 2519TIP3    H1 7563   1.280   4.603   4.148  0.9946 -0.5129  0.2086
 2519TIP3    H2 7564   1.284   4.755   4.144 -1.9283 -0.3733 -0.1529
 2520TIP3   OH2 7565   3.083   2.692   0.331  0.1552  0.0155 -0.1857
 2520TIP3    H1 7566   3.024   2.687   0.406  1.0954  0.8728  0.6244
 2520TIP3    H2 7567   3.057   2.772   0.285  0.6618  0.3827  0.1599
 2521TIP3   OH2 7568   1.182   1.772   3.477 -0.2266 -0.1628 -0.0668
 2521TIP3    H1 7569   1.200   1.678   3.471  2.7476  0.0522  2.3398
 2521TIP3    H2 7570   1.111   1.778   3.540  1.1071 -0.8456  1.6050
 2522TIP3   OH2 7571   3.372   1.167   2.599  0.5147 -0.4649 -0.2338
 2522TIP3    H1 7572   3.345   1.126   2.681  0.0554  2.1737  1.0756
 2522TIP3    H2 7573   3.296   1.158   2.542 -0.3613  0.2988  0.7524
 2523TIP3   OH2 7574   0.489   1.791   2.444 -0.2393 -0.0805  0.0012
 2523TIP3    H1 7575   0.419   1.792   2.379 -0.4898  0.6972  0.2806
 2523TIP3    H2 7576   0.461   1.724   2.507  0.7671 -2.0119 -1.4830
 2524TIP3   OH2 7577   3.914   3.596   2.996  0.2479 -0.0869 -0.8085
 2524TIP3    H1 7578   3.936   3.517   3.045 -2.9766 -0.1020  0.9314
 2524TIP3    H2 7579   3.838   3.570   2.943  1.1550  1.0517 -2.7833
 2525TIP3   OH2 7580   3.761   3.004   1.854 -0.1756  0.4155  0.1998
 2525TIP3    H1 7581   3.682   2.950   1.859  0.7717 -1.0606 -0.2493
 2525TIP3    H2 7582   3.822   2.953   1.801  0.6423  2.1039 -0.5573
 2526TIP3   OH2 7583   2.583   5.247   2.420 -0.1476  0.3875  0.0126
 2526TIP3    H1 7584   2.614   5.315   2.481 -0.6753  0.5479  0.1032
 2526TIP3    H2 7585   2.636   5.260   2.341 -0.1227  0.7865  0.0926
 2527TIP3   OH2 7586   4.523   4.994   3.186 -0.3166  1.0047  0.3211
 2527TIP3    H1 7587   4.580   5.067   3.213 -0.2506  1.3239 -0.6482
 2527TIP3    H2 7588   4.472   4.973   3.264  1.3647  0.4901  1.3302
 2528TIP3   OH2 7589   2.945   5.320   1.727  0.1403 -0.3192  0.0380
 2528TIP3    H1 7590   2.902   5.388   1.675  0.3423  0.0547  0.3455
 2528TIP3    H2 7591   2.878   5.252   1.738 -0.7455  0.6842  1.3399
 2529TIP3   OH2 7592   3.244   2.408   4.346  0.0811 -0.3455 -0.6818
 2529TIP3    H1 7593   3.154   2.374   4.338 -0.0039 -0.0724 -0.8753
 2529TIP3    H2 7594   3.284   2.353   4.414 -0.2658 -0.3976 -0.5178
 2530TIP3   OH2 7595   2.727   3.261   4.067  0.4397  0.2158  0.1118
 2530TIP3    H1 7596   2.736   3.189   4.005  0.0350 -0.5583  0.9247
 2530TIP3    H2 7597   2.799   3.248   4.129 -0.2917 -0.1638  0.9068
 2531TIP3   OH2 7598   5.794   4.432   0.389  0.5915  0.0289 -0.0364
 2531TIP3    H1 7599   5.851   4.356   0.399 -0.6711 -1.0154 -0.3916
 2531TIP3    H2 7600   5.734   4.427   0.464 -0.7862 -0.5219 -1.1238
 2532TIP3   OH2 7601   3.537   4.173   1.089  0.1979 -0.2650 -0.3711
 2532TIP3    H1 7602   3.537   4.183   0.994 -0.3073  2.6596 -0.1424
 2532TIP3    H2 7603   3.620   4.211   1.117  1.0062 -2.3939  0.3282
 2533TIP3   OH2 7604   4.973   2.526   3.676 -0.0388  0.4566  0.3776
 2533TIP3    H1 7605   5.025   2.593   3.632  0.8962 -1.1067 -0.9897
 2533TIP3    H2 7606   4.984   2.447   3.622 -2.3127 -0.4304  1.0799
 2534TIP3   OH2 7607   0.063   2.485   2.998  0.3337 -0.5189 -0.1444
 2534TIP3    H1 7608   0.012   2.426   2.942  0.2761  1.4130 -2.2799
 2534TIP3    H2 7609   0.001   2.554   3.021  1.4301  0.9369 -1.3187
 2535TIP3   OH2 7610   0.143   1.130   5.021  0.3999 -0.8585 -0.2258
 2535TIP3    H1 7611   0.093   1.109   5.100  1.3080  1.6767  1.1432
 2535TIP3    H2 7612   0.226   1.084   5.031  0.3972 -0.7824  0.1451
 2536TIP3   OH2 7613   3.146   0.439   2.111 -0.2096 -0.5750  0.2570
 2536TIP3    H1 7614   3.214   0.427   2.045  0.5617  1.5617  0.5965
 2536TIP3    H2 7615   3.162   0.526   2.147 -1.9041 -0.8304  1.7850
 2537TIP3   OH2 7616   2.211   4.875   2.354  0.3493 -0.3284 -0.2468
 2537TIP3    H1 7617   2.201   4.968   2.377  1.4799 -0.2185 -0.1305
 2537TIP3    H2 7618   2.166   4.828   2.424 -1.1948  0.1397 -0.8788
 2538TIP3   OH2 7619   2.876   5.789   4.783 -0.0685 -0.3232  0.5767
 2538TIP3    H1 7620   2.833   5.875   4.778  3.4625  1.6827  1.1708
 2538TIP3    H2 7621   2.896   5.768   4.692 -0.9610 -0.5513  0.4256
 2539TIP3   OH2 7622   0.250   2.014   2.059  0.3703 -1.1331 -0.1201
 2539TIP3    H1 7623   0.192   2.039   2.131  0.3786 -0.6931 -0.2624
 2539TIP3    H2 7624   0.294   2.096   2.035  1.1659 -1.4898  0.0930
 2540TIP3   OH2 7625   6.104   3.150   4.463 -0.0983 -0.3330  0.0501
 2540TIP3    H1 7626   6.031   3.177   4.519  0.0215 -1.1108  0.6029
 2540TIP3    H2 7627   6.065   3.090   4.400  0.0099 -0.5288  0.1681
 2541TIP3   OH2 7628   0.731   4.158   4.386 -0.1503 -0.1891 -0.2505
 2541TIP3    H1 7629   0.699   4.215   4.316  0.5709 -0.7216 -1.0311
 2541TIP3    H2 7630   0.780   4.090   4.341 -1.7368 -1.9681  0.5709
 2542TIP3   OH2 7631   5.548   1.077   1.424  0.1350 -0.0920 -0.3344
 2542TIP3    H1 7632   5.460   1.041   1.414  0.4129 -1.0734  0.5397
 2542TIP3    H2 7633   5.563   1.079   1.518  0.2372  2.1629 -0.3390
 2543TIP3   OH2 7634   2.961   5.749   1.835 -0.1637 -0.0993 -0.6548
 2543TIP3    H1 7635   2.869   5.775   1.839 -0.0412  0.5615 -1.7279
 2543TIP3    H2 7636   2.981   5.749   1.742  1.4216  1.5359 -0.3477
 2544TIP3   OH2 7637   5.176   2.434   4.031  0.3389  0.3864 -0.0264
 2544TIP3    H1 7638   5.178   2.398   4.120  0.5736  1.6469  0.5143
 2544TIP3    H2 7639   5.244   2.386   3.984 -0.1721 -0.6871  0.3078
 2545TIP3   OH2 7640   5.909   1.380   2.509  0.2665  0.2291  0.0126
 2545TIP3    H1 7641   5.999   1.411   2.521  1.0168 -2.4349  2.2888
 2545TIP3    H2 7642   5.915   1.314   2.440 -0.1535  0.7150 -0.5000
 2546TIP3   OH2 7643   0.185   5.798   2.231 -0.0729  0.2300  0.3006
 2546TIP3    H1 7644   0.144   5.724   2.275  0.8339 -0.7323 -0.4134
 2546TIP3    H2 7645   0.245   5.834   2.297  0.9156 -0.8951  0.0523
 2547TIP3   OH2 7646   2.776   3.961   4.753 -0.1606 -0.1827  0.1775
 2547TIP3    H1 7647   2.715   4.016   4.705 -2.0477 -1.7659  0.5974
 2547TIP3    H2 7648   2.725   3.883   4.775  1.5182 -0.8293  2.1025
 2548TIP3   OH2 7649   5.257   1.035   0.199  0.2500 -0.0512 -0.0893
 2548TIP3    H1 7650   5.351   1.021   0.188 -0.0380 -1.7047 -0.7393
 2548TIP3    H2 7651   5.231   1.088   0.124  0.4591 -0.6824 -0.6180
 2549TIP3   OH2 7652   1.461   4.625   3.827  0.4514 -0.3098 -0.3969
 2549TIP3    H1 7653   1.414   4.596   3.906  1.7225 -1.7788 -0.1409
 2549TIP3    H2 7654   1.452   4.553   3.766  2.2651 -0.5887 -0.3764
 2550TIP3   OH2 7655   0.759   2.003   0.047 -0.1937  0.0487  0.2308
 2550TIP3    H1 7656   0.724   2.046  -0.031 -0.3333 -1.9046 -0.8421
 2550TIP3    H2 7657   0.797   2.074   0.099  0.0676  1.3787 -1.6942
 2551TIP3   OH2 7658   4.570   1.080   4.131 -0.0940 -0.2714  0.4284
 2551TIP3    H1 7659   4.619   1.134   4.193  0.2342 -0.6571  0.5033
 2551TIP3    H2 7660   4.534   1.009   4.184 -0.8238  0.0651  0.3956
 2552TIP3   OH2 7661   5.861   1.600   0.469 -0.4044  0.3038  0.6650
 2552TIP3    H1 7662   5.856   1.693   0.449  3.5828  0.2341 -1.8546
 2552TIP3    H2 7663   5.944   1.590   0.515  0.5353 -2.1930 -1.3554
 2553TIP3   OH2 7664   1.860   1.628   1.497 -0.4425 -0.8551 -0.3982
 2553TIP3    H1 7665   1.946   1.605   1.464 -0.8426  0.7351 -2.7535
 2553TIP3    H2 7666   1.799   1.599   1.430 -1.7051 -1.1283  0.8033
 2554TIP3   OH2 7667   1.710   2.088   4.922 -0.3625 -0.0922 -0.0552
 2554TIP3    H1 7668   1.628   2.077   4.969 -0.0951  1.6922  0.9154
 2554TIP3    H2 7669   1.765   2.139   4.981  1.4843 -1.3029 -0.6581
 2555TIP3   OH2 7670   0.165   0.229   4.914 -0.2120 -0.6071 -0.7212
 2555TIP3    H1 7671   0.198   0.146   4.948 -2.8222 -1.0694  1.0124
 2555TIP3    H2 7672   0.137   0.209   4.825 -1.0317 -1.7167 -0.2438
 2556TIP3   OH2 7673   5.560   4.361   0.893 -0.0696 -0.2899  0.0253
 2556TIP3    H1 7674   5.585   4.447   0.925  0.4694 -0.6837  0.6869
 2556TIP3    H2 7675   5.639   4.307   0.903 -0.1917 -0.6936 -1.0204
 2557TIP3   OH2 7676   2.897   5.398   2.436 -0.3869  0.2509 -0.1317
 2557TIP3    H1 7677   2.898   5.460   2.364  0.8677 -0.0546 -0.4036
 2557TIP3    H2 7678   2.886   5.452   2.514 -1.1456  0.6353 -0.4965
 2558TIP3   OH2 7679   4.312   1.590   4.667  0.1547 -0.3077  0.0842
 2558TIP3    H1 7680   4.389   1.534   4.669  0.6719  0.4159  0.9811
 2558TIP3    H2 7681   4.253   1.552   4.732  1.0163  0.8590  1.6121
 2559TIP3   OH2 7682   2.359   5.543   1.387  0.6528  0.2364  0.5539
 2559TIP3    H1 7683   2.411   5.462   1.386 -0.0061 -0.2002  0.4117
 2559TIP3    H2 7684   2.346   5.562   1.480  0.8784  0.2220  0.5892
 2560TIP3   OH2 7685   0.052   4.437   4.901  0.4064  0.0297 -0.4555
 2560TIP3    H1 7686   0.145   4.460   4.903  0.6953 -1.0579 -0.7745
 2560TIP3    H2 7687   0.037   4.393   4.985  0.3767 -0.4927 -0.7296
 2561TIP3   OH2 7688   4.194   2.524   3.693  0.3624  0.0860  0.5188
 2561TIP3    H1 7689   4.273   2.503   3.743  0.7762  1.4852  0.5100
 2561TIP3    H2 7690   4.138   2.571   3.756  0.5865  1.2307 -0.1047
 2562TIP3   OH2 7691   6.265   2.005   2.787 -0.2508  0.3400  0.3422
 2562TIP3    H1 7692   6.272   2.012   2.692 -1.3466  2.1321  0.3492
 2562TIP3    H2 7693   6.355   1.994   2.817  0.0295 -1.1872 -0.9378
 2563TIP3   OH2 7694   5.882   2.218   0.508 -0.3300  0.2356  0.2244
 2563TIP3    H1 7695   5.935   2.176   0.576  0.4965  1.9461  0.6756
 2563TIP3    H2 7696   5.806   2.253   0.555  0.3935  1.6851  0.3513
 2564TIP3   OH2 7697   4.120   0.209   2.957  0.4855  0.3949 -0.4808
 2564TIP3    H1 7698   4.131   0.190   2.863  2.7813  1.7023 -0.5469
 2564TIP3    H2 7699   4.073   0.292   2.960 -1.6166 -0.7190 -0.3530
 2565TIP3   OH2 7700   5.850   3.793   3.649 -0.0753  0.3973 -0.2802
 2565TIP3    H1 7701   5.777   3.737   3.674 -0.8269  0.7433 -1.6170
 2565TIP3    H2 7702   5.925   3.734   3.645 -0.5047 -0.1756 -0.0156
 2566TIP3   OH2 7703   5.888   5.780   0.998  0.2763 -0.0567 -0.1608
 2566TIP3    H1 7704   5.795   5.803   0.998  0.3490  0.2562  0.1066
 2566TIP3    H2 7705   5.924   5.824   0.921 -0.0208 -1.1483 -0.9326
 2567TIP3   OH2 7706   1.466   1.028   3.672  0.1976  0.5968  0.4932
 2567TIP3    H1 7707   1.432   1.035   3.761  1.9190  0.7581  1.1780
 2567TIP3    H2 7708   1.531   0.958   3.676  0.8278  1.1010 -0.4567
 2568TIP3   OH2 7709   0.819   2.278   3.443 -0.6082 -0.0667  0.3132
 2568TIP3    H1 7710   0.814   2.225   3.364  0.0002  0.0499  0.1853
 2568TIP3    H2 7711   0.910   2.270   3.472 -0.0990  2.0268 -0.5235
 2569TIP3   OH2 7712   4.445   3.058   4.971 -0.2349 -0.0984 -0.1794
 2569TIP3    H1 7713   4.430   3.134   4.914  0.9875 -0.0019 -0.3942
 2569TIP3    H2 7714   4.480   3.096   5.052 -2.0796 -0.2186  0.7345
 2570TIP3   OH2 7715   5.129   1.448   1.246 -0.3359  0.0551  0.1956
 2570TIP3    H1 7716   5.062   1.413   1.187 -1.5919  2.0904  0.3022
 2570TIP3    H2 7717   5.189   1.375   1.260 -0.3992 -0.7634 -2.9539
 2571TIP3   OH2 7718   4.225   1.575   2.966  0.2926 -0.1883 -0.1036
 2571TIP3    H1 7719   4.146   1.521   2.975 -0.2214  0.9237  5.3325
 2571TIP3    H2 7720   4.297   1.514   2.978  0.2530 -0.7479 -2.2398
 2572TIP3   OH2 7721   3.122   4.547   4.293  0.2304 -0.3637  1.2190
 2572TIP3    H1 7722   3.179   4.604   4.343 -1.1112  0.0852  2.3083
 2572TIP3    H2 7723   3.168   4.532   4.210  1.4150  0.8213  1.6411
 2573TIP3   OH2 7724   2.084   3.038   3.690  0.4793 -0.1605  0.3897
 2573TIP3    H1 7725   2.025   3.026   3.764 -0.6262 -1.4295 -0.6508
 2573TIP3    H2 7726   2.060   3.124   3.654  0.6541  0.2180  1.1537
 2574TIP3   OH2 7727   2.403   4.642   3.906  0.2094 -0.2078 -0.0478
 2574TIP3    H1 7728   2.387   4.635   3.812 -1.9663 -0.9703  0.3162
 2574TIP3    H2 7729   2.460   4.568   3.926  1.7991  0.7386 -0.9458
 2575TIP3   OH2 7730   4.020   2.797   2.585  0.0536  0.2698  0.4623
 2575TIP3    H1 7731   3.966   2.876   2.579  2.3546  1.9142 -0.4845
 2575TIP3    H2 7732   4.024   2.765   2.495 -0.0664 -0.3713  0.6821
 2576TIP3   OH2 7733   0.269   4.190   0.375 -0.2872 -0.2743  0.3371
 2576TIP3    H1 7734   0.245   4.281   0.358  0.3571  0.0774  1.2248
 2576TIP3    H2 7735   0.207   4.161   0.442 -1.6738 -1.0962 -1.2082
 2577TIP3   OH2 7736   3.233   1.222   4.619 -0.0647 -0.7144 -0.2601
 2577TIP3    H1 7737   3.148   1.266   4.626  1.1286  1.7354  0.0539
 2577TIP3    H2 7738   3.244   1.205   4.526 -1.0520 -1.4170 -0.2556
 2578TIP3   OH2 7739   4.797   4.267   4.383 -0.0617  0.0617 -0.6714
 2578TIP3    H1 7740   4.846   4.349   4.377 -0.6942  0.7609  2.0615
 2578TIP3    H2 7741   4.706   4.293   4.367 -0.0790 -0.4073 -1.3501
 2579TIP3   OH2 7742   4.960   3.309   3.096  0.0576  0.2132 -0.0550
 2579TIP3    H1 7743   4.875   3.313   3.053  0.4693 -3.3403 -1.5842
 2579TIP3    H2 7744   4.943   3.264   3.179  0.3808 -0.2311 -0.2242
 2580TIP3   OH2 7745   5.764   4.751   3.343  0.3022  0.6430 -0.4202
 2580TIP3    H1 7746   5.669   4.758   3.331  0.0104 -0.6492  0.7992
 2580TIP3    H2 7747   5.781   4.803   3.422  0.5422  0.5682 -0.4235
 2581TIP3   OH2 7748   0.932   1.788   4.204  0.2488 -0.2970 -0.1766
 2581TIP3    H1 7749   0.910   1.695   4.200 -0.3232 -0.1350 -0.9954
 2581TIP3    H2 7750   0.924   1.810   4.297  0.8746 -1.1727  0.0958
 2582TIP3   OH2 7751   1.444   3.634   4.551 -0.6224  0.2336  0.1904
 2582TIP3    H1 7752   1.539   3.640   4.551 -0.5055 -0.9744 -1.0638
 2582TIP3    H2 7753   1.415   3.710   4.601  0.9359  1.7868 -1.1308
 2583TIP3   OH2 7754   5.073   5.183   2.852  0.2064 -0.4086  0.0403
 2583TIP3    H1 7755   5.116   5.225   2.927 -1.7770  1.0787  0.4299
 2583TIP3    H2 7756   5.090   5.090   2.864  0.8468 -0.1075  1.7557
 2584TIP3   OH2 7757   0.549   0.049   3.314 -0.5646  0.4460  0.5675
 2584TIP3    H1 7758   0.463   0.090   3.305 -0.9313  0.0173  1.8544
 2584TIP3    H2 7759   0.539  -0.036   3.272 -1.1494 -0.0801  1.7257
 2585TIP3   OH2 7760   3.120   5.987   1.835 -0.5445 -0.0809 -0.9166
 2585TIP3    H1 7761   3.107   6.008   1.743 -1.5695 -1.5601 -1.1317
 2585TIP3    H2 7762   3.072   5.906   1.849  3.5775 -2.7340 -0.2954
 2586TIP3   OH2 7763   5.842   4.400   2.358 -0.1062 -0.2311 -0.5631
 2586TIP3    H1 7764   5.830   4.357   2.442  1.4711 -1.8692 -1.1292
 2586TIP3    H2 7765   5.755   4.399   2.318 -0.5352 -0.9069  0.3630
 2587TIP3   OH2 7766   4.791   2.732   1.258  0.1389 -0.1992  0.1468
 2587TIP3    H1 7767   4.705   2.688   1.260  0.2213 -0.3443  2.0592
 2587TIP3    H2 7768   4.837   2.689   1.185 -1.2813 -0.3291 -0.7294
 2588TIP3   OH2 7769   1.672   1.543   4.356  0.2122 -0.3449 -0.3120
 2588TIP3    H1 7770   1.727   1.494   4.417 -1.8839 -1.3488  0.8727
 2588TIP3    H2 7771   1.616   1.597   4.412 -2.3382 -1.8988 -1.1910
 2589TIP3   OH2 7772   1.841   3.148   1.057 -0.2048  0.5904  0.0897
 2589TIP3    H1 7773   1.806   3.228   1.016 -0.7426  0.9419  1.2200
 2589TIP3    H2 7774   1.764   3.097   1.081  0.1290 -1.0530 -2.0340
 2590TIP3   OH2 7775   4.997   3.242   0.115  0.3853 -0.2163 -0.0210
 2590TIP3    H1 7776   5.044   3.175   0.067  1.0870 -0.8685  1.4953
 2590TIP3    H2 7777   5.049   3.321   0.103  0.3465 -0.2812 -0.6287
 2591TIP3   OH2 7778   6.317   0.162   2.004  0.5591 -0.2616 -0.0739
 2591TIP3    H1 7779   6.340   0.087   1.950 -1.5583 -0.6172 -0.5567
 2591TIP3    H2 7780   6.229   0.143   2.036  0.8734  0.9834  1.6783
 2592TIP3   OH2 7781   0.936   3.315   2.555  0.1428 -0.8514 -0.1766
 2592TIP3    H1 7782   0.978   3.399   2.534  0.1416 -1.2363 -1.8831
 2592TIP3    H2 7783   0.969   3.293   2.642  1.2929  0.2202 -0.3028
 2593TIP3   OH2 7784   5.884   4.509   3.923  0.1640 -0.5760 -0.0885
 2593TIP3    H1 7785   5.828   4.475   3.993 -0.2620  0.2032 -0.0388
 2593TIP3    H2 7786   5.900   4.433   3.867 -0.9615 -0.8194 -0.1168
 2594TIP3   OH2 7787   4.281   5.926   5.190  0.3210  0.3626 -0.2117
 2594TIP3    H1 7788   4.211   5.913   5.126  0.1538  0.3453 -0.0264
 2594TIP3    H2 7789   4.362   5.921   5.139  0.2601 -1.0750 -0.1990
 2595TIP3   OH2 7790   3.269   3.172   4.863  0.1574  0.2168  0.3813
 2595TIP3    H1 7791   3.213   3.173   4.786 -1.6879  0.1294  1.6530
 2595TIP3    H2 7792   3.258   3.085   4.900  0.9765  0.2702  0.7816
 2596TIP3   OH2 7793   5.793   3.425   0.446  0.0699  0.1273  0.1957
 2596TIP3    H1 7794   5.778   3.415   0.540  1.5685  1.2112  0.5904
 2596TIP3    H2 7795   5.841   3.346   0.421 -1.5983 -0.8685 -0.0038
 2597TIP3   OH2 7796   3.582   3.445   1.791  0.5392 -0.3683 -0.0535
 2597TIP3    H1 7797   3.535   3.493   1.722  0.1408  1.1269  1.2028
 2597TIP3    H2 7798   3.648   3.394   1.743  0.0284  0.3180 -1.5767
 2598TIP3   OH2 7799   2.009   5.559   1.303  0.2619 -0.4431  0.1171
 2598TIP3    H1 7800   2.007   5.654   1.302  1.6404 -0.3816  0.2331
 2598TIP3    H2 7801   2.044   5.537   1.390  2.9200 -0.8943 -0.9459
 2599TIP3   OH2 7802   5.865   2.552   0.038  0.0161 -0.0715  0.3128
 2599TIP3    H1 7803   5.819   2.563  -0.045  0.5733 -0.4512 -0.0570
 2599TIP3    H2 7804   5.958   2.545   0.013  0.0836 -1.3886  0.8401
 2600TIP3   OH2 7805   4.906   5.993   1.383  0.2407  0.1321 -0.1157
 2600TIP3    H1 7806   4.870   5.939   1.312  0.6713  0.4984 -0.6237
 2600TIP3    H2 7807   4.909   5.935   1.459  0.9849 -0.6431 -0.7242
 2601TIP3   OH2 7808   0.778   0.162   3.046  0.0162 -0.2118 -0.1588
 2601TIP3    H1 7809   0.704   0.172   2.986 -0.4476 -0.6999  0.3239
 2601TIP3    H2 7810   0.802   0.252   3.068  0.2726 -0.0171 -1.1582
 2602TIP3   OH2 7811   0.436   1.106   0.565  0.2040  0.1052  0.3686
 2602TIP3    H1 7812   0.446   1.128   0.472  0.5023  0.1051  0.3985
 2602TIP3    H2 7813   0.497   1.165   0.610 -0.0146  0.1759  0.5722
 2603TIP3   OH2 7814   3.489   4.798   2.812 -0.1633  0.2215 -0.0701
 2603TIP3    H1 7815   3.571   4.752   2.832  0.6174  0.3377 -2.6133
 2603TIP3    H2 7816   3.509   4.890   2.823 -0.3746  0.1898  0.6191
 2604TIP3   OH2 7817   4.968   1.023   3.443  0.0996 -0.3797 -0.1692
 2604TIP3    H1 7818   4.885   0.993   3.407 -0.2195  1.6570 -1.2766
 2604TIP3    H2 7819   5.030   1.018   3.369  0.0287  1.5435 -0.4151
 2605TIP3   OH2 7820   6.139   1.063   2.294  0.1129 -0.3948 -0.0523
 2605TIP3    H1 7821   6.061   1.106   2.257  0.6075 -1.9069 -3.1502
 2605TIP3    H2 7822   6.104   1.007   2.363 -1.3615 -0.0093 -0.4386
 2606TIP3   OH2 7823   4.305   5.998   1.278 -0.0116 -0.0021 -0.1527
 2606TIP3    H1 7824   4.236   6.019   1.215  0.0707  3.1643  0.6278
 2606TIP3    H2 7825   4.377   5.965   1.224 -0.7301  0.4532 -1.4448
 2607TIP3   OH2 7826   6.041   3.914   4.638 -0.0126  0.1475 -0.3399
 2607TIP3    H1 7827   6.014   3.953   4.556 -0.4162 -0.8207 -0.6787
 2607TIP3    H2 7828   6.121   3.865   4.617 -0.5460 -0.7543 -0.3546
 2608TIP3   OH2 7829   5.042   0.416   1.784 -0.1359  0.1329 -0.0814
 2608TIP3    H1 7830   5.111   0.386   1.724 -0.1199 -2.8860  1.2580
 2608TIP3    H2 7831   4.975   0.348   1.780 -0.5370  0.2632  2.6109
 2609TIP3   OH2 7832   3.750   3.622   4.016 -0.5042  0.7270 -0.1641
 2609TIP3    H1 7833   3.689   3.556   4.049  0.3911 -1.9982 -3.4245
 2609TIP3    H2 7834   3.836   3.580   4.020 -0.0506  1.0287 -3.5265
 2610TIP3   OH2 7835   4.900   5.539   3.062  0.6478 -0.4025  0.1085
 2610TIP3    H1 7836   4.871   5.456   3.024  0.7626 -0.3123 -0.1786
 2610TIP3    H2 7837   4.955   5.578   2.995 -1.5903  1.1958 -0.9460
 2611TIP3   OH2 7838   2.505   2.886   3.066 -0.1945  0.0875 -0.1349
 2611TIP3    H1 7839   2.522   2.973   3.029  1.8751 -0.3416 -0.3216
 2611TIP3    H2 7840   2.480   2.903   3.157 -1.5918  0.9512 -0.6510
 2612TIP3   OH2 7841   0.943   1.957   4.481  0.0981 -0.2302 -0.0949
 2612TIP3    H1 7842   0.963   1.928   4.570  0.2297  0.4069  0.0883
 2612TIP3    H2 7843   0.847   1.957   4.477  0.0511  1.1049  0.5229
 2613TIP3   OH2 7844   3.933   3.481   4.778 -0.3700  0.1909 -0.6279
 2613TIP3    H1 7845   3.891   3.541   4.715 -1.8656 -1.1101 -0.9256
 2613TIP3    H2 7846   3.864   3.459   4.840  0.6919  0.2797  0.6336
 2614TIP3   OH2 7847   1.282   2.731   0.677 -0.6880  0.4032  0.1673
 2614TIP3    H1 7848   1.344   2.717   0.749  0.5356  2.3138 -0.4517
 2614TIP3    H2 7849   1.290   2.652   0.623  1.5451  0.7495 -0.1061
 2615TIP3   OH2 7850   5.795   2.420   0.292 -0.4688 -0.2695 -0.3124
 2615TIP3    H1 7851   5.835   2.472   0.222  0.1974 -1.2259 -0.6532
 2615TIP3    H2 7852   5.779   2.484   0.362  0.9432  0.2765 -0.4657
 2616TIP3   OH2 7853   3.714   0.408   3.316 -0.3521 -0.0495  0.4091
 2616TIP3    H1 7854   3.711   0.490   3.266  0.4549  0.5598  1.3369
 2616TIP3    H2 7855   3.637   0.359   3.286 -1.5133  1.5264  0.6762
 2617TIP3   OH2 7856   2.997   0.055   3.566 -0.2719 -0.3864 -0.3398
 2617TIP3    H1 7857   2.965   0.138   3.602  0.8491  0.6510 -1.6273
 2617TIP3    H2 7858   3.048   0.016   3.637 -2.5932 -1.1051  1.0497
 2618TIP3   OH2 7859   1.336   3.281   2.058  0.1794 -0.6725 -0.0415
 2618TIP3    H1 7860   1.250   3.308   2.092 -0.1814  1.0042 -2.0874
 2618TIP3    H2 7861   1.397   3.343   2.098 -0.0519  0.3414 -1.1999
 2619TIP3   OH2 7862   2.941   5.486   3.921  0.1939 -0.2246  0.3083
 2619TIP3    H1 7863   2.975   5.528   4.000  0.1524  0.7883 -0.2004
 2619TIP3    H2 7864   3.016   5.485   3.861  1.3321 -4.1976  1.5137
 2620TIP3   OH2 7865   0.757   2.151   0.976  0.0235  0.1755 -0.0116
 2620TIP3    H1 7866   0.693   2.118   0.912  2.3553  0.9969 -2.9854
 2620TIP3    H2 7867   0.757   2.246   0.963  1.9422  0.1784 -0.2170
 2621TIP3   OH2 7868   1.913   0.786   3.642  0.1419  0.0461  0.8367
 2621TIP3    H1 7869   1.870   0.871   3.631  1.1241  0.6952  1.8715
 2621TIP3    H2 7870   1.959   0.772   3.559 -3.5322 -1.6109 -1.1618
 2622TIP3   OH2 7871   5.404   3.569   1.271 -0.9391 -0.3173 -0.3286
 2622TIP3    H1 7872   5.453   3.504   1.222  0.2855 -1.3714  2.0982
 2622TIP3    H2 7873   5.469   3.610   1.329 -1.9089  2.2624 -0.8921
 2623TIP3   OH2 7874   4.418   2.169   0.936  0.1713  0.4758  0.2889
 2623TIP3    H1 7875   4.331   2.166   0.976 -0.4919  1.0234 -1.0578
 2623TIP3    H2 7876   4.477   2.137   1.005 -1.1649 -0.5762  0.9930
 2624TIP3   OH2 7877   3.670   1.494   3.867 -0.1376  0.2134  0.1941
 2624TIP3    H1 7878   3.620   1.414   3.851  0.1990  0.2520 -1.1385
 2624TIP3    H2 7879   3.756   1.477   3.828  0.9631  0.1318  2.4366
 2625TIP3   OH2 7880   3.834   0.457   0.145 -0.2155  0.2076 -0.0228
 2625TIP3    H1 7881   3.890   0.513   0.199  1.9775 -0.2436 -1.6871
 2625TIP3    H2 7882   3.834   0.372   0.189 -0.0048  0.3550  0.2624
 2626TIP3   OH2 7883   4.814   0.866   2.343 -0.7033  0.0182  0.2609
 2626TIP3    H1 7884   4.817   0.827   2.256 -0.2291  0.1967  0.1914
 2626TIP3    H2 7885   4.857   0.802   2.400 -1.1123 -0.1485  0.3860
 2627TIP3   OH2 7886   4.737   0.367   0.922  0.4068 -0.2488  0.0681
 2627TIP3    H1 7887   4.759   0.453   0.887 -0.4031 -0.6459 -1.5358
 2627TIP3    H2 7888   4.645   0.353   0.896  0.5072 -1.5581  0.3353
 2628TIP3   OH2 7889   1.693   1.594   1.267 -0.1416  0.1644  0.1114
 2628TIP3    H1 7890   1.693   1.498   1.266 -0.6246  0.1636 -0.9308
 2628TIP3    H2 7891   1.666   1.619   1.179 -2.8041  1.2494  1.1413
 2629TIP3   OH2 7892   6.038   1.130   5.004  0.0430 -0.5029 -0.4488
 2629TIP3    H1 7893   6.096   1.055   5.014  0.7232  0.0950  0.1427
 2629TIP3    H2 7894   5.950   1.094   5.017  0.1843 -1.5434 -2.0342
 2630TIP3   OH2 7895   1.907   1.252   4.871  0.0710 -0.2231  0.1151
 2630TIP3    H1 7896   1.948   1.333   4.842 -0.9477  0.2175 -0.1722
 2630TIP3    H2 7897   1.834   1.281   4.927 -0.6270 -0.8968 -0.4201
 2631TIP3   OH2 7898   4.705   1.043   3.349 -0.2900  0.2588  0.1087
 2631TIP3    H1 7899   4.612   1.041   3.373 -0.3744 -0.1967 -0.2346
 2631TIP3    H2 7900   4.728   1.135   3.350 -0.1755  0.2500  2.3098
 2632TIP3   OH2 7901   0.073   5.524   0.335 -0.6611 -0.4245 -0.0445
 2632TIP3    H1 7902   0.109   5.579   0.265 -0.8929 -0.4139 -0.1572
 2632TIP3    H2 7903   0.012   5.466   0.290  0.5532 -1.6908 -0.1382
 2633TIP3   OH2 7904   5.699   5.366   1.283 -0.0857 -0.8650  0.4443
 2633TIP3    H1 7905   5.723   5.386   1.192  0.7519  0.2252  0.8885
 2633TIP3    H2 7906   5.770   5.310   1.315 -0.1301 -0.8516  0.5670
 2634TIP3   OH2 7907   0.616   2.819   0.263  0.1223 -0.0117  0.3661
 2634TIP3    H1 7908   0.646   2.735   0.299  2.3458 -0.3002 -1.9224
 2634TIP3    H2 7909   0.691   2.852   0.214 -1.0512  2.8488  0.3259
 2635TIP3   OH2 7910   6.314   5.011   3.039  0.4117  0.2174 -0.6342
 2635TIP3    H1 7911   6.284   5.100   3.054 -0.5542 -0.0994 -0.5953
 2635TIP3    H2 7912   6.256   4.957   3.093  1.3497 -0.3926 -0.2099
 2636TIP3   OH2 7913   2.992   3.473   1.104  0.4938 -0.5468  0.2099
 2636TIP3    H1 7914   3.037   3.500   1.184  0.2222 -1.3842  0.6558
 2636TIP3    H2 7915   3.063   3.460   1.041  0.6965  0.2866  0.2563
 2637TIP3   OH2 7916   2.031   5.469   4.127 -0.2844 -0.5126 -0.2827
 2637TIP3    H1 7917   2.067   5.557   4.141 -0.3919 -0.4218 -0.5618
 2637TIP3    H2 7918   2.090   5.411   4.175 -1.2913 -0.1174  1.4984
 2638TIP3   OH2 7919   4.474   2.801   4.654  0.3406 -0.1154  0.5228
 2638TIP3    H1 7920   4.553   2.845   4.685  0.3894 -1.0156  1.7311
 2638TIP3    H2 7921   4.506   2.739   4.588  0.2960  1.4167 -1.0234
 2639TIP3   OH2 7922   5.990   2.152   1.492  0.7117 -0.0504 -0.0402
 2639TIP3    H1 7923   5.929   2.092   1.536 -0.2060  1.3494  0.6710
 2639TIP3    H2 7924   6.071   2.145   1.543  0.3606 -0.1180  0.5210
 2640TIP3   OH2 7925   1.876   3.160   3.168  0.3477  0.0200  0.2096
 2640TIP3    H1 7926   1.846   3.070   3.180 -0.0447  0.0187 -0.6946
 2640TIP3    H2 7927   1.816   3.196   3.102 -0.9383  1.6350  2.1388
 2641TIP3   OH2 7928   4.028   0.487   4.874 -0.1363  0.2920  0.0405
 2641TIP3    H1 7929   3.974   0.489   4.953 -1.5279 -0.4235 -0.8503
 2641TIP3    H2 7930   4.116   0.470   4.906 -0.3975  1.5283  1.5507
 2642TIP3   OH2 7931   1.012   0.737   3.470 -0.1164 -0.0487  0.5031
 2642TIP3    H1 7932   1.098   0.699   3.450 -0.5529  0.1448 -2.1933
 2642TIP3    H2 7933   0.955   0.661   3.482 -0.0360 -0.2272 -0.1823
 2643TIP3   OH2 7934   5.721   1.375   0.787  0.3328 -0.2284  0.2717
 2643TIP3    H1 7935   5.746   1.298   0.838  3.3847 -1.0719 -2.1283
 2643TIP3    H2 7936   5.793   1.437   0.800  0.5309  0.0644 -1.7855
 2644TIP3   OH2 7937   4.584   1.344   3.296  0.7356  0.1127 -0.1499
 2644TIP3    H1 7938   4.667   1.380   3.329  1.2755  0.5437 -1.8883
 2644TIP3    H2 7939   4.517   1.398   3.337  1.2693 -0.3542  1.4342
 2645TIP3   OH2 7940   2.831   0.644   4.210  0.0731  0.4060 -0.3125
 2645TIP3    H1 7941   2.807   0.577   4.146  0.5846 -1.1816  1.0735
 2645TIP3    H2 7942   2.829   0.726   4.161 -0.7745 -0.5854 -2.0325
 2646TIP3   OH2 7943   4.945   4.174   0.201  0.2914 -0.3387 -0.4554
 2646TIP3    H1 7944   4.910   4.252   0.159  0.4813 -0.1909 -0.3401
 2646TIP3    H2 7945   4.945   4.195   0.295 -0.3361 -0.7448 -0.3560
 2647TIP3   OH2 7946   3.512   0.278   0.827 -0.2491  0.1174 -0.8128
 2647TIP3    H1 7947   3.420   0.251   0.829 -0.1925 -0.0522 -0.5606
 2647TIP3    H2 7948   3.538   0.285   0.919  1.0723 -3.4626 -0.7769
 2648TIP3   OH2 7949   2.048   0.112   4.540  0.2211 -0.1566  0.0346
 2648TIP3    H1 7950   2.003   0.027   4.539  1.1629 -0.6684 -0.1287
 2648TIP3    H2 7951   2.121   0.099   4.600  0.2759  0.6065  0.1427
 2649TIP3   OH2 7952   3.845   5.463   4.226  0.1879 -0.2326 -0.2353
 2649TIP3    H1 7953   3.776   5.436   4.286 -0.1610  0.5840 -0.2565
 2649TIP3    H2 7954   3.822   5.552   4.201  0.8323 -0.2283 -0.8560
 2650TIP3   OH2 7955   3.783   0.025   4.931 -0.2393  0.1264  0.0684
 2650TIP3    H1 7956   3.837   0.087   4.979 -0.4338  0.6699 -0.4089
 2650TIP3    H2 7957   3.789   0.053   4.840  0.1109 -0.8814 -0.2322
 2651TIP3   OH2 7958   1.127   0.207   0.433 -0.2632  0.9054 -0.3722
 2651TIP3    H1 7959   1.070   0.172   0.501  0.8053  0.2895  0.2262
 2651TIP3    H2 7960   1.068   0.257   0.376 -1.4173  0.1893  0.1523
 2652TIP3   OH2 7961   1.062   1.953   0.902  0.1962 -0.1145 -0.1137
 2652TIP3    H1 7962   1.043   1.985   0.991 -0.0030  1.6697 -0.7604
 2652TIP3    H2 7963   1.109   1.871   0.916  2.8140  1.5437  1.7538
 2653TIP3   OH2 7964   5.409   1.671   4.011 -0.1753 -0.0055  0.3967
 2653TIP3    H1 7965   5.420   1.709   4.098 -0.9282  0.7835  0.1625
 2653TIP3    H2 7966   5.497   1.669   3.974 -0.1106  1.5827  0.4006
 2654TIP3   OH2 7967   0.202   1.644   4.115 -0.5456  0.7285 -0.5169
 2654TIP3    H1 7968   0.266   1.597   4.169 -0.6214  0.3660 -0.7356
 2654TIP3    H2 7969   0.256   1.694   4.053 -0.4558  1.2769 -0.0068
 2655TIP3   OH2 7970   5.582   3.281   3.634  0.1247 -0.4033  0.0440
 2655TIP3    H1 7971   5.544   3.271   3.721 -0.1454 -1.8049 -0.2031
 2655TIP3    H2 7972   5.606   3.191   3.608  2.1800  0.2317 -0.4550
 2656TIP3   OH2 7973   1.434   5.338   2.211 -1.0487  0.0300 -0.0476
 2656TIP3    H1 7974   1.366   5.399   2.183  0.0794  1.2859 -0.1405
 2656TIP3    H2 7975   1.409   5.313   2.300 -1.1101  1.2365  0.2808
 2657TIP3   OH2 7976   6.130   0.276   1.424 -0.2115  0.1699 -0.3061
 2657TIP3    H1 7977   6.167   0.342   1.365  1.7008  0.6738  1.3805
 2657TIP3    H2 7978   6.134   0.316   1.511 -4.2104 -0.0179  0.1542
 2658TIP3   OH2 7979   1.613   3.502   3.347 -0.0859 -0.0842  0.7759
 2658TIP3    H1 7980   1.557   3.460   3.282  0.2970 -0.4994  0.7108
 2658TIP3    H2 7981   1.606   3.596   3.328  1.1722 -0.2667 -0.8131
 2659TIP3   OH2 7982   0.638   3.891   2.448  0.6504 -0.0318 -0.3109
 2659TIP3    H1 7983   0.551   3.896   2.409  0.5704 -0.1380 -0.1440
 2659TIP3    H2 7984   0.650   3.798   2.468  0.7431  0.0042 -0.1988
 2660TIP3   OH2 7985   3.041   3.982   1.737 -0.7474 -0.0113 -0.4088
 2660TIP3    H1 7986   3.050   4.077   1.730 -0.2773 -0.0916 -0.9872
 2660TIP3    H2 7987   2.989   3.957   1.660 -1.3604 -0.1623  0.0466
 2661TIP3   OH2 7988   3.400   2.025   4.426 -0.3591 -0.0036  0.3318
 2661TIP3    H1 7989   3.322   2.016   4.371 -1.0698 -0.1057  1.3337
 2661TIP3    H2 7990   3.461   2.076   4.373 -0.6215 -0.9921 -0.9670
 2662TIP3   OH2 7991   5.925   2.182   2.771  0.4212  0.1424  0.0311
 2662TIP3    H1 7992   5.863   2.171   2.843  0.8429 -0.4365  0.3021
 2662TIP3    H2 7993   5.885   2.135   2.698  0.4175 -0.0092  0.1311
 2663TIP3   OH2 7994   1.333   1.090   2.244  0.5094 -0.1448 -0.8480
 2663TIP3    H1 7995   1.259   1.074   2.303  2.6255 -4.5042  1.0637
 2663TIP3    H2 7996   1.368   1.174   2.273 -0.4077 -0.6492  2.0565
 2664TIP3   OH2 7997   4.199   4.589   1.956  0.0641 -0.5189  0.1368
 2664TIP3    H1 7998   4.169   4.521   2.016  2.4264 -1.0416  0.8593
 2664TIP3    H2 7999   4.268   4.547   1.905  1.2736  1.1900  0.2819
 2665TIP3   OH2 8000   4.253   1.295   2.878 -0.5614  0.2418 -0.7791
 2665TIP3    H1 8001   4.348   1.297   2.888 -0.5746  1.7699 -0.6182
 2665TIP3    H2 8002   4.235   1.220   2.821  0.5325 -1.4384  0.9700
 2666TIP3   OH2 8003   6.068   3.108   0.109 -0.0999  0.2607 -0.0532
 2666TIP3    H1 8004   6.069   3.133   0.017  1.4832 -0.3494 -0.2285
 2666TIP3    H2 8005   6.073   3.012   0.108 -3.3931 -0.0727  0.6528
 2667TIP3   OH2 8006   4.539   2.428   3.319  0.0273 -0.0848  0.1366
 2667TIP3    H1 8007   4.616   2.406   3.266 -0.0973 -0.3508  0.0678
 2667TIP3    H2 8008   4.483   2.478   3.260  0.8021  1.3908  0.6034
 2668TIP3   OH2 8009   1.638   1.328   1.209 -0.6256  0.2011  0.4497
 2668TIP3    H1 8010   1.547   1.306   1.229 -1.0083 -0.0540 -1.3944
 2668TIP3    H2 8011   1.676   1.246   1.178 -0.0442  0.5232  0.3071
 2669TIP3   OH2 8012   1.741   2.076   1.609 -0.1875 -0.1217  0.0560
 2669TIP3    H1 8013   1.734   2.006   1.544  1.3880 -0.8406  0.6134
 2669TIP3    H2 8014   1.737   2.031   1.693  2.2915  0.2241  0.4350
 2670TIP3   OH2 8015   2.199   5.390   2.193 -0.0861 -0.0422  0.5733
 2670TIP3    H1 8016   2.150   5.422   2.117 -1.2989  0.4918  1.5468
 2670TIP3    H2 8017   2.247   5.314   2.160  0.9357  1.2983 -1.1950
 2671TIP3   OH2 8018   3.581   1.043   1.513  0.5763  0.0359  0.1163
 2671TIP3    H1 8019   3.497   1.038   1.558 -0.0574 -1.0353 -1.1195
 2671TIP3    H2 8020   3.624   0.960   1.532 -0.0665 -0.8158 -1.8571
 2672TIP3   OH2 8021   4.352   4.286   1.332  0.6443 -0.2825 -0.5196
 2672TIP3    H1 8022   4.341   4.237   1.413 -0.6563 -0.2712 -0.6647
 2672TIP3    H2 8023   4.298   4.364   1.343  1.4859  0.3660 -0.8966
 2673TIP3   OH2 8024   2.338   3.598   1.887 -0.0639  0.0679 -0.1209
 2673TIP3    H1 8025   2.248   3.563   1.886 -0.3445  0.5668 -2.9595
 2673TIP3    H2 8026   2.327   3.690   1.864  1.1058  0.5620  1.1946
 2674TIP3   OH2 8027   1.386   3.658   1.374  0.0706  0.2201  0.2459
 2674TIP3    H1 8028   1.374   3.628   1.465 -0.8370  0.3484  0.1851
 2674TIP3    H2 8029   1.372   3.579   1.321  3.7408 -0.6141  0.2917
 2675TIP3   OH2 8030   3.989   3.144   1.118 -0.3017  0.0101  0.7812
 2675TIP3    H1 8031   4.078   3.135   1.085 -1.5785 -2.6781 -2.5611
 2675TIP3    H2 8032   3.983   3.081   1.189  0.5119  0.5070  1.3132
 2676TIP3   OH2 8033   0.405   4.780   3.038  0.1998 -0.5908 -0.4701
 2676TIP3    H1 8034   0.409   4.792   3.133  2.0024  1.2818 -0.7141
 2676TIP3    H2 8035   0.466   4.708   3.021  1.6220  0.5367 -0.3512
 2677TIP3   OH2 8036   5.355   5.516   1.682 -0.2204  0.7066 -0.2622
 2677TIP3    H1 8037   5.388   5.574   1.750  0.7015  0.5925 -0.6110
 2677TIP3    H2 8038   5.357   5.568   1.602 -0.0822  0.4219 -0.4433
 2678TIP3   OH2 8039   2.566   3.632   3.912 -0.1436 -0.0376 -0.2460
 2678TIP3    H1 8040   2.651   3.597   3.941 -0.5716 -1.1840 -0.3310
 2678TIP3    H2 8041   2.587   3.716   3.872  1.2281 -1.1572 -2.0362
 2679TIP3   OH2 8042   0.486   4.173   4.719 -0.0755 -0.2297  0.9453
 2679TIP3    H1 8043   0.421   4.159   4.651 -0.8303 -1.8030  1.9289
 2679TIP3    H2 8044   0.565   4.131   4.685  0.9953  2.8931 -0.8773
 2680TIP3   OH2 8045   2.344   1.267   3.516  0.2503  0.0700  0.4897
 2680TIP3    H1 8046   2.328   1.357   3.543 -0.1794  0.1925 -0.1429
 2680TIP3    H2 8047   2.260   1.222   3.529 -0.1738  0.2856 -1.1848
 2681TIP3   OH2 8048   4.339   3.778   4.537  0.2356  0.1592 -0.2221
 2681TIP3    H1 8049   4.341   3.815   4.448 -1.0556 -1.0905 -0.8027
 2681TIP3    H2 8050   4.338   3.684   4.524  0.5952 -0.0531  1.1544
 2682TIP3   OH2 8051   4.889   0.901   1.934 -0.5254 -0.2146  0.3913
 2682TIP3    H1 8052   4.888   0.809   1.908  1.1936 -0.2036  0.1745
 2682TIP3    H2 8053   4.845   0.946   1.862  1.9114 -0.4786 -1.3661
 2683TIP3   OH2 8054   2.129   3.629   1.167  0.3105 -0.0173  0.2882
 2683TIP3    H1 8055   2.211   3.621   1.117  0.3372  0.1983  0.2988
 2683TIP3    H2 8056   2.129   3.552   1.224 -0.3902 -1.0263 -1.0181
 2684TIP3   OH2 8057   6.157   1.515   1.596 -0.1280  0.6232 -0.4270
 2684TIP3    H1 8058   6.087   1.500   1.659 -0.4168  0.3141 -0.8236
 2684TIP3    H2 8059   6.193   1.428   1.579  1.1728  0.8898  0.7036
 2685TIP3   OH2 8060   3.205   2.514   0.528  0.4030 -0.0468 -0.1711
 2685TIP3    H1 8061   3.168   2.556   0.450 -1.3697  1.6287  1.4721
 2685TIP3    H2 8062   3.235   2.428   0.497 -0.5610  0.4170 -2.6055
 2686TIP3   OH2 8063   3.513   1.874   1.987 -0.5741 -0.1378 -0.1007
 2686TIP3    H1 8064   3.601   1.894   1.955 -0.4003  0.7326  0.8862
 2686TIP3    H2 8065   3.513   1.779   1.998 -0.0965 -0.2627 -1.0699
 2687TIP3   OH2 8066   3.451   0.172   3.626 -0.3219 -0.1400  0.5526
 2687TIP3    H1 8067   3.534   0.127   3.642  0.1107  1.0990  1.8908
 2687TIP3    H2 8068   3.462   0.211   3.539 -0.6779 -2.4448 -0.6240
 2688TIP3   OH2 8069   5.019   5.099   3.300 -0.0309 -0.0103 -0.5729
 2688TIP3    H1 8070   5.026   5.049   3.382  0.6699  0.7355 -0.1655
 2688TIP3    H2 8071   5.076   5.175   3.313 -0.7820  0.7037 -1.3285
 2689TIP3   OH2 8072   3.502   5.719   1.800  0.2690  0.1633 -0.2715
 2689TIP3    H1 8073   3.554   5.666   1.861 -0.5453 -0.6471 -0.2583
 2689TIP3    H2 8074   3.567   5.766   1.748  0.9935  0.1433  0.5859
 2690TIP3   OH2 8075   0.455   5.645   2.133  0.2492 -0.2145 -0.1839
 2690TIP3    H1 8076   0.366   5.675   2.149  0.5462 -0.4967  2.5113
 2690TIP3    H2 8077   0.446   5.551   2.118  0.0955 -0.3095  0.4546
 2691TIP3   OH2 8078   1.556   0.135   4.073 -0.2285 -0.3442  0.3776
 2691TIP3    H1 8079   1.476   0.104   4.114  0.1631 -0.1480  1.3161
 2691TIP3    H2 8080   1.617   0.061   4.080 -0.4381 -0.6362 -0.6921
 2692TIP3   OH2 8081   2.697   2.871   1.808  0.6533 -0.1013 -0.6974
 2692TIP3    H1 8082   2.625   2.811   1.827  0.0228  0.5456 -1.0123
 2692TIP3    H2 8083   2.694   2.936   1.879  0.6392  0.1855 -0.9558
 2693TIP3   OH2 8084   1.223   5.452   5.014  0.0361 -0.5695  0.2427
 2693TIP3    H1 8085   1.170   5.388   4.967 -2.1301  1.1207  0.2655
 2693TIP3    H2 8086   1.180   5.536   4.998  2.9614  0.9974 -0.0571
 2694TIP3   OH2 8087   0.372   3.965   2.665 -0.6611  0.0237 -0.1402
 2694TIP3    H1 8088   0.277   3.959   2.649 -0.4339 -0.6673 -1.2909
 2694TIP3    H2 8089   0.412   3.912   2.596  0.5459 -0.2751  0.7483
 2695TIP3   OH2 8090   6.077   0.440   4.721 -0.0777  0.5442  0.4157
 2695TIP3    H1 8091   6.045   0.354   4.750  1.8022 -0.6378 -0.8055
 2695TIP3    H2 8092   6.009   0.472   4.662 -0.1606 -0.8054 -0.2644
 2696TIP3   OH2 8093   2.695   2.642   1.037 -0.3592 -0.6878  0.7760
 2696TIP3    H1 8094   2.601   2.647   1.016  0.2405 -0.4813 -2.3586
 2696TIP3    H2 8095   2.721   2.732   1.051  0.1260 -0.1248 -2.8339
 2697TIP3   OH2 8096   4.912   0.442   2.505  0.3858  0.4085  0.0475
 2697TIP3    H1 8097   4.959   0.467   2.585  1.2902 -0.5782 -0.1581
 2697TIP3    H2 8098   4.930   0.513   2.444  1.2621  0.2689  0.1217
 2698TIP3   OH2 8099   0.078   4.810   1.832 -0.3020 -0.1621 -0.1924
 2698TIP3    H1 8100   0.056   4.764   1.913  0.7635 -2.9407 -1.3630
 2698TIP3    H2 8101  -0.006   4.817   1.786 -0.5973 -0.3268  0.3093
 2699TIP3   OH2 8102   3.593   5.810   4.170  0.3660 -0.3234  0.0464
 2699TIP3    H1 8103   3.675   5.851   4.197  0.2372 -0.0988  0.0980
 2699TIP3    H2 8104   3.562   5.764   4.248  0.9478 -1.2487 -0.2482
 2700TIP3   OH2 8105   4.847   0.778   0.981 -0.0956 -0.2166 -0.4814
 2700TIP3    H1 8106   4.868   0.685   0.987 -0.9004 -0.4005 -0.4416
 2700TIP3    H2 8107   4.751   0.781   0.977 -0.1101  0.6516  0.2171
 2701TIP3   OH2 8108   5.758   0.411   3.856  0.8973 -0.2403  0.1699
 2701TIP3    H1 8109   5.712   0.381   3.934 -0.6955 -0.2422 -0.7300
 2701TIP3    H2 8110   5.848   0.380   3.868  0.6701 -0.3373  1.9340
 2702TIP3   OH2 8111   1.120   1.479   2.812  0.1980  0.5236  0.2098
 2702TIP3    H1 8112   1.070   1.444   2.738 -1.4413  1.5356  0.7674
 2702TIP3    H2 8113   1.105   1.418   2.883  2.1290 -0.6825 -0.3498
 2703TIP3   OH2 8114   0.657   3.998   5.102 -0.3405  0.0328 -0.4296
 2703TIP3    H1 8115   0.718   4.042   5.042  0.6210  3.0408  2.4917
 2703TIP3    H2 8116   0.609   4.068   5.145 -1.3904 -1.9691  1.9317
 2704TIP3   OH2 8117   2.616   1.206   2.881  0.2305  0.0756 -0.3650
 2704TIP3    H1 8118   2.558   1.206   2.805  0.4863  0.9614 -0.5772
 2704TIP3    H2 8119   2.587   1.281   2.933  1.5072  0.8847 -0.7551
 2705TIP3   OH2 8120   5.351   2.074   3.558 -0.1242 -0.1399 -0.0748
 2705TIP3    H1 8121   5.444   2.098   3.557 -0.0437 -0.4384  0.0074
 2705TIP3    H2 8122   5.307   2.146   3.514 -0.0227  0.6542  1.0917
 2706TIP3   OH2 8123   4.519   5.738   0.435 -0.6594 -0.3999  0.0741
 2706TIP3    H1 8124   4.466   5.674   0.387 -0.3830  1.2359 -2.6229
 2706TIP3    H2 8125   4.519   5.815   0.379  2.5598  0.5031  1.1154
 2707TIP3   OH2 8126   5.407   1.767   4.567 -0.3658 -0.0508  0.1563
 2707TIP3    H1 8127   5.461   1.731   4.496  2.0324  0.2976  1.6778
 2707TIP3    H2 8128   5.468   1.819   4.619 -2.6262  1.9683  0.9622
 2708TIP3   OH2 8129   3.676   4.148   4.574 -0.2189  0.2947 -0.8961
 2708TIP3    H1 8130   3.631   4.182   4.497 -1.0627  0.2042 -0.4486
 2708TIP3    H2 8131   3.765   4.184   4.568 -0.4421  0.7369 -1.6100
 2709TIP3   OH2 8132   0.490   5.279   2.711  0.1540 -0.1026 -0.1988
 2709TIP3    H1 8133   0.527   5.352   2.662 -1.1284  1.2727  0.7830
 2709TIP3    H2 8134   0.556   5.210   2.706  1.3462  1.0664 -1.2668
 2710TIP3   OH2 8135   3.986   2.172   1.241 -0.1687 -0.1177  0.2760
 2710TIP3    H1 8136   3.961   2.082   1.264 -2.7156 -0.1441 -2.0239
 2710TIP3    H2 8137   4.054   2.161   1.175  0.4650 -0.3010  0.9512
 2711TIP3   OH2 8138   5.372   1.876   3.340  0.0534  0.1076 -0.1738
 2711TIP3    H1 8139   5.398   1.800   3.392  3.3209  1.8032  0.9416
 2711TIP3    H2 8140   5.360   1.946   3.404 -1.2168  0.9869 -1.3168
 2712TIP3   OH2 8141   1.075   4.175   4.213  0.2963 -0.5232 -0.2505
 2712TIP3    H1 8142   0.987   4.186   4.177  0.6757  1.5321 -0.6733
 2712TIP3    H2 8143   1.070   4.213   4.301  1.2773  1.9614 -1.1635
 2713TIP3   OH2 8144   2.001   0.115   4.872 -0.3818  0.0497 -0.2966
 2713TIP3    H1 8145   1.978   0.126   4.964 -0.9217 -0.3606 -0.3755
 2713TIP3    H2 8146   2.076   0.054   4.873 -1.6323 -1.5552 -0.2147
 2714TIP3   OH2 8147   3.529   5.389   3.989  0.3371  0.5090 -0.2119
 2714TIP3    H1 8148   3.591   5.394   3.916  1.3227 -0.7030  0.4948
 2714TIP3    H2 8149   3.571   5.331   4.052 -1.4436 -0.2366  0.3795
 2715TIP3   OH2 8150   3.135   0.949   1.693 -0.4019  0.1752  0.2937
 2715TIP3    H1 8151   3.214   0.931   1.743  0.8227 -1.6082 -2.0675
 2715TIP3    H2 8152   3.064   0.942   1.756  1.0430 -1.7717  1.8221
 2716TIP3   OH2 8153   5.827   4.689   1.334  0.0139 -0.1023 -0.0795
 2716TIP3    H1 8154   5.825   4.664   1.242 -1.7566 -0.5916  0.0554
 2716TIP3    H2 8155   5.908   4.651   1.367 -0.4285 -1.9197 -0.9293
 2717TIP3   OH2 8156   0.009   1.248   4.235 -0.2620  0.1924 -0.4096
 2717TIP3    H1 8157   0.082   1.256   4.297 -0.2027  1.1974 -0.5918
 2717TIP3    H2 8158  -0.013   1.155   4.237 -0.5072  0.2384  1.3941
 2718TIP3   OH2 8159   0.442   4.038   0.580 -0.0275  0.2702  0.6688
 2718TIP3    H1 8160   0.458   4.108   0.517 -0.2713  0.5474  0.9093
 2718TIP3    H2 8161   0.349   4.044   0.601 -0.5438 -1.4647 -0.8757
 2719TIP3   OH2 8162   0.343   4.974   1.365 -0.4657 -0.6416  0.3658
 2719TIP3    H1 8163   0.404   5.047   1.355 -0.1296 -0.6504  2.1158
 2719TIP3    H2 8164   0.272   5.008   1.419 -0.3237 -1.5765  1.1784
 2720TIP3   OH2 8165   3.964   5.154   4.769  0.8690 -0.1592  0.2363
 2720TIP3    H1 8166   3.972   5.059   4.757  0.7361 -0.0978 -0.4137
 2720TIP3    H2 8167   4.054   5.186   4.775  0.9891 -0.1414 -1.2214
 2721TIP3   OH2 8168   5.212   1.515   4.193  0.1255  0.2332 -0.6590
 2721TIP3    H1 8169   5.201   1.553   4.280 -0.7422 -0.9207 -0.2379
 2721TIP3    H2 8170   5.304   1.489   4.188  0.1228  0.0991  0.0047
 2722TIP3   OH2 8171   4.057   3.283   5.083 -0.0766  0.0437  0.2408
 2722TIP3    H1 8172   3.993   3.352   5.066 -0.6209 -0.9353 -2.0017
 2722TIP3    H2 8173   4.140   3.321   5.054 -0.2178  0.1115 -0.0818
 2723TIP3   OH2 8174   5.435   1.446   3.621  0.6292  0.4035 -0.3001
 2723TIP3    H1 8175   5.465   1.521   3.569  0.9528 -1.2270 -2.6551
 2723TIP3    H2 8176   5.510   1.386   3.621  0.1860 -0.1724  1.0376
 2724TIP3   OH2 8177   1.291   4.848   2.614  0.3968  0.4879  0.0853
 2724TIP3    H1 8178   1.290   4.810   2.527 -0.1036 -0.1212  0.3483
 2724TIP3    H2 8179   1.361   4.802   2.660  0.1507  0.2658  0.2388
 2725TIP3   OH2 8180   4.381  -0.030   4.093 -0.4322 -0.0150 -0.0208
 2725TIP3    H1 8181   4.318   0.019   4.041  1.2705  0.4808 -1.7392
 2725TIP3    H2 8182   4.454   0.030   4.106 -0.0478 -0.7383  1.4508
 2726TIP3   OH2 8183   5.743   4.370   1.388 -0.1017  0.1779 -0.3997
 2726TIP3    H1 8184   5.708   4.452   1.424  1.3623  0.6066  0.1232
 2726TIP3    H2 8185   5.741   4.309   1.462  0.2580  0.2107 -0.3617
 2727TIP3   OH2 8186   1.380   3.979   2.754  0.0135  0.2790  0.1494
 2727TIP3    H1 8187   1.437   3.950   2.683 -0.1001  1.7465 -0.5632
 2727TIP3    H2 8188   1.312   3.912   2.758  0.4865 -0.2590 -0.5654
 2728TIP3   OH2 8189   3.380   0.993   3.768 -0.0768  0.4348 -0.2535
 2728TIP3    H1 8190   3.285   1.004   3.775 -0.0178  0.1240  1.3402
 2728TIP3    H2 8191   3.407   0.960   3.853  1.4474  0.3060 -0.7561
 2729TIP3   OH2 8192   0.764   3.800   2.861  0.0270 -0.3555  0.2966
 2729TIP3    H1 8193   0.739   3.711   2.837  0.5568 -0.4184 -0.0383
 2729TIP3    H2 8194   0.704   3.824   2.931  2.7650 -2.7307  3.8328
 2730TIP3   OH2 8195   5.817   3.546   1.084 -0.4010 -0.0059  0.2606
 2730TIP3    H1 8196   5.842   3.466   1.130 -1.7639 -0.8061 -0.3332
 2730TIP3    H2 8197   5.814   3.613   1.153 -0.4736 -0.7377  0.9895
 2731TIP3   OH2 8198   2.541   1.974   4.208  0.3229  0.3329  0.2713
 2731TIP3    H1 8199   2.508   2.056   4.245 -0.1957  0.8856 -1.3331
 2731TIP3    H2 8200   2.636   1.980   4.217  0.3028  1.2274 -0.0497
 2732TIP3   OH2 8201   0.460   3.011   0.953  0.1816 -0.3809  0.1806
 2732TIP3    H1 8202   0.440   2.918   0.965  0.6989 -0.4114  0.8914
 2732TIP3    H2 8203   0.506   3.015   0.870 -1.1079 -0.5571 -0.5637
 2733TIP3   OH2 8204   5.146   3.748   1.760  0.3473  0.2238  0.3000
 2733TIP3    H1 8205   5.137   3.681   1.827 -0.7179  1.2262  1.1987
 2733TIP3    H2 8206   5.070   3.737   1.703  0.6918  0.0514 -0.1376
 2734TIP3   OH2 8207   5.782   0.216   1.834  0.4609  0.3945 -0.6184
 2734TIP3    H1 8208   5.708   0.254   1.787  0.0516 -0.2463 -0.5070
 2734TIP3    H2 8209   5.742   0.166   1.905  0.9230 -0.9351 -1.2550
 2735TIP3   OH2 8210   4.508   2.986   3.120  0.1231 -0.5180  0.3362
 2735TIP3    H1 8211   4.456   2.955   3.194  1.3183 -1.6215  0.7614
 2735TIP3    H2 8212   4.507   3.081   3.128 -3.3711 -0.3444 -0.7863
 2736TIP3   OH2 8213   0.461   3.952   1.185 -0.2768  0.5339 -0.2186
 2736TIP3    H1 8214   0.374   3.963   1.224  0.1486  0.4416  0.8074
 2736TIP3    H2 8215   0.491   3.868   1.220  0.4360  0.8201 -0.1351
 2737TIP3   OH2 8216   1.422   0.649   1.801 -0.3921  0.2959 -0.2150
 2737TIP3    H1 8217   1.510   0.667   1.767 -0.6329  0.3285 -0.8222
 2737TIP3    H2 8218   1.392   0.734   1.836  0.2939  0.0218  1.1305
 2738TIP3   OH2 8219   2.408   5.340   1.871  0.8919 -0.3975 -0.1056
 2738TIP3    H1 8220   2.492   5.362   1.910  0.0100  0.7340  1.2562
 2738TIP3    H2 8221   2.353   5.417   1.888 -1.1164 -2.0050  1.1507
 2739TIP3   OH2 8222   1.191   0.970   0.968  0.4369 -0.4814 -0.5474
 2739TIP3    H1 8223   1.127   0.900   0.963  1.7308 -1.7576 -0.0819
 2739TIP3    H2 8224   1.222   0.968   1.059  0.0908  1.0961 -0.3660
 2740TIP3   OH2 8225   3.804   4.771   4.563 -0.2730 -0.0440 -0.1927
 2740TIP3    H1 8226   3.870   4.838   4.544  1.2371 -1.5530 -0.4277
 2740TIP3    H2 8227   3.761   4.801   4.643  1.4350  0.4331  0.5692
 2741TIP3   OH2 8228   4.693   4.015   1.430 -0.0735 -0.3255 -0.0171
 2741TIP3    H1 8229   4.780   4.026   1.468  0.2729 -1.4804 -0.4264
 2741TIP3    H2 8230   4.689   3.923   1.405  0.2638  0.5531 -3.9884
 2742TIP3   OH2 8231   5.203   3.432   0.020 -0.0518  0.0096  0.2697
 2742TIP3    H1 8232   5.245   3.391   0.096  1.1161 -0.4365 -0.5762
 2742TIP3    H2 8233   5.193   3.524   0.045  2.0500  0.2821  0.3002
 2743TIP3   OH2 8234   0.378   5.900   2.457  0.2813  0.3214 -0.0719
 2743TIP3    H1 8235   0.361   5.934   2.545  0.3419  0.6788 -0.1960
 2743TIP3    H2 8236   0.375   5.805   2.467 -0.2524  0.3677  0.2040
 2744TIP3   OH2 8237   4.957   1.782   4.886 -0.0767  0.1071 -0.3255
 2744TIP3    H1 8238   5.015   1.805   4.814  3.5163  2.2922  2.8520
 2744TIP3    H2 8239   4.902   1.859   4.899 -1.0326 -0.4550 -0.9272
 2745TIP3   OH2 8240   4.499   3.976   0.769 -0.4851  0.1239 -0.2952
 2745TIP3    H1 8241   4.434   3.950   0.703  0.3051  0.3992 -1.2175
 2745TIP3    H2 8242   4.488   4.071   0.776 -0.5620  0.0954 -0.0262
 2746TIP3   OH2 8243   3.066   5.445   0.487 -0.5614 -0.1798  0.1279
 2746TIP3    H1 8244   3.008   5.393   0.543  0.9821 -0.4825  1.5299
 2746TIP3    H2 8245   3.008   5.488   0.425 -2.3660  0.1626  1.9661
 2747TIP3   OH2 8246   1.845   5.585   2.501  0.6681  0.5913 -0.2050
 2747TIP3    H1 8247   1.888   5.504   2.471  0.1233  0.2298 -0.0158
 2747TIP3    H2 8248   1.759   5.557   2.532 -0.1192  1.4456 -1.5092
 2748TIP3   OH2 8249   3.023   2.747   1.991  0.1251 -0.5251  0.2882
 2748TIP3    H1 8250   3.053   2.712   2.075  1.4597  0.3482  0.1936
 2748TIP3    H2 8251   2.995   2.837   2.011  0.8210 -0.1812 -0.2678
 2749TIP3   OH2 8252   5.910   4.949   0.410 -0.1321 -0.1810 -0.1665
 2749TIP3    H1 8253   5.924   5.030   0.360 -1.1353 -0.2714 -0.6180
 2749TIP3    H2 8254   5.833   4.909   0.369  0.3535 -1.3712  0.0549
 2750TIP3   OH2 8255   3.865   4.677   1.093 -0.7228 -0.0981 -0.2153
 2750TIP3    H1 8256   3.840   4.745   1.030 -0.6832 -0.7298 -0.9233
 2750TIP3    H2 8257   3.844   4.595   1.049 -1.3609 -0.5415  0.8967
 2751TIP3   OH2 8258   4.606   3.053   1.201 -0.1345 -0.2768  0.0964
 2751TIP3    H1 8259   4.699   3.033   1.195 -0.4210 -2.8110  2.3369
 2751TIP3    H2 8260   4.600   3.127   1.261  0.3870 -0.9324  0.9685
 2752TIP3   OH2 8261   1.263   0.080   1.391 -0.2637 -0.2368 -0.2043
 2752TIP3    H1 8262   1.320   0.005   1.376 -0.7446 -0.9749  1.4601
 2752TIP3    H2 8263   1.247   0.079   1.485 -1.1272  1.3469 -0.3103
 2753TIP3   OH2 8264   6.256   4.325   2.936 -0.1880 -0.5418  0.5773
 2753TIP3    H1 8265   6.192   4.321   3.008 -0.4985 -2.7069  0.2387
 2753TIP3    H2 8266   6.213   4.378   2.869 -1.6944 -1.9684  0.3451
 2754TIP3   OH2 8267   3.182   5.077   2.071 -0.0195 -0.3658  0.1610
 2754TIP3    H1 8268   3.181   5.010   2.140  2.3957 -1.6211 -0.8842
 2754TIP3    H2 8269   3.261   5.128   2.089 -0.6021  0.7548 -0.3902
 2755TIP3   OH2 8270   2.169   4.728   1.885  0.1681 -0.1114  0.3820
 2755TIP3    H1 8271   2.112   4.772   1.821 -0.0620  1.9229  1.8754
 2755TIP3    H2 8272   2.180   4.639   1.851 -0.4558  0.6967 -2.1192
 2756TIP3   OH2 8273   1.600   5.526   3.693  0.0267  0.2743  0.5406
 2756TIP3    H1 8274   1.660   5.457   3.719  2.4083  2.4018  1.0897
 2756TIP3    H2 8275   1.602   5.526   3.597  1.3859  0.6403  0.5485
 2757TIP3   OH2 8276   1.915   4.918   2.398  0.1440  0.1850 -0.6960
 2757TIP3    H1 8277   1.967   4.926   2.478  2.6658  0.6575 -2.2417
 2757TIP3    H2 8278   1.907   5.008   2.366 -2.5808  0.2559 -0.0376
 2758TIP3   OH2 8279   5.222   0.197   1.133 -0.0213 -0.2496  0.6896
 2758TIP3    H1 8280   5.131   0.218   1.112 -0.2197 -0.3656  1.4103
 2758TIP3    H2 8281   5.273   0.263   1.087 -0.3578 -1.1587 -1.0826
 2759TIP3   OH2 8282   3.717   1.690   2.510 -0.1372 -0.1252 -0.3607
 2759TIP3    H1 8283   3.771   1.680   2.588 -0.3565  2.2441  0.1768
 2759TIP3    H2 8284   3.779   1.715   2.441 -0.0239 -1.6564 -0.8582
 2760TIP3   OH2 8285   1.122   1.286   3.717  0.2105 -0.4947  0.1562
 2760TIP3    H1 8286   1.156   1.285   3.807 -1.4864 -0.1151  0.8547
 2760TIP3    H2 8287   1.116   1.194   3.692 -0.4358 -0.6743  0.9187
 2761TIP3   OH2 8288   0.907   5.113   1.357 -1.0311  0.0430  0.1660
 2761TIP3    H1 8289   0.828   5.067   1.387 -1.0648  0.3241  0.5261
 2761TIP3    H2 8290   0.965   5.113   1.433 -0.6349 -0.2674 -0.1353
 2762TIP3   OH2 8291   4.882   0.150   2.124 -0.1053  0.0211 -0.4032
 2762TIP3    H1 8292   4.795   0.188   2.135 -0.8045 -1.4739 -0.4867
 2762TIP3    H2 8293   4.896   0.149   2.029 -0.9212 -1.6039 -0.5512
 2763TIP3   OH2 8294   3.258   4.981   3.935  0.6475  0.3601  0.2530
 2763TIP3    H1 8295   3.296   4.903   3.894 -0.2813  0.4392 -0.7956
 2763TIP3    H2 8296   3.194   4.946   3.997  0.6244  0.2848  0.1865
 2764TIP3   OH2 8297   2.123   4.082   1.429  0.8738  0.2422 -0.3758
 2764TIP3    H1 8298   2.174   4.016   1.382 -0.2046  0.8539 -2.5623
 2764TIP3    H2 8299   2.127   4.160   1.373  3.2913  2.6514  2.7592
 2765TIP3   OH2 8300   4.281   1.428   3.633  0.1083  0.2696 -0.3064
 2765TIP3    H1 8301   4.268   1.344   3.589  2.8786 -1.2667  1.4785
 2765TIP3    H2 8302   4.340   1.477   3.576  0.2143  0.0862 -0.3551
 2766TIP3   OH2 8303   0.440   1.970   3.670  0.0109 -0.0373 -0.0992
 2766TIP3    H1 8304   0.403   2.046   3.714 -1.1201  0.0640 -1.1819
 2766TIP3    H2 8305   0.441   1.993   3.578  0.5548 -0.9751 -0.3491
 2767TIP3   OH2 8306   1.562   4.661   1.835  0.3281  0.1922  0.2149
 2767TIP3    H1 8307   1.576   4.690   1.925  1.6424  1.4587 -0.3456
 2767TIP3    H2 8308   1.622   4.715   1.784  0.1487 -1.0302 -1.3412
 2768TIP3   OH2 8309   5.832   5.165   4.814  0.6317  0.1954 -0.5595
 2768TIP3    H1 8310   5.915   5.192   4.774 -0.0437  2.5802 -0.4947
 2768TIP3    H2 8311   5.823   5.073   4.790  2.6172  0.2483 -1.7389
 2769TIP3   OH2 8312   0.494   0.801   4.948 -0.6760  0.3902  0.1679
 2769TIP3    H1 8313   0.487   0.821   4.855  0.3279  0.8309  0.1764
 2769TIP3    H2 8314   0.577   0.754   4.956 -0.9083  0.0776  0.8025
 2770TIP3   OH2 8315   5.648   4.238   4.008 -0.2366 -0.6669 -0.3436
 2770TIP3    H1 8316   5.563   4.271   4.039  0.3836 -0.7717  1.5503
 2770TIP3    H2 8317   5.640   4.240   3.912 -2.2426 -0.3464 -0.2186
 2771TIP3   OH2 8318   3.704   0.684   3.609  0.7640  0.3352 -0.0410
 2771TIP3    H1 8319   3.616   0.718   3.591  0.8801  0.7556  0.1849
 2771TIP3    H2 8320   3.747   0.754   3.658  1.9088  0.9945 -1.8873
 2772TIP3   OH2 8321   2.433   0.909   3.862 -0.0744  0.3753  0.0683
 2772TIP3    H1 8322   2.445   0.983   3.802 -0.5014 -0.2154 -0.7651
 2772TIP3    H2 8323   2.477   0.836   3.818  0.9934  0.2747  1.2233
 2773TIP3   OH2 8324   4.122   3.911   0.059 -0.1613 -0.1459 -1.0071
 2773TIP3    H1 8325   4.029   3.922   0.040  0.3596 -1.7206 -6.1229
 2773TIP3    H2 8326   4.134   3.817   0.067  1.0502  0.0279 -0.5846
 2774TIP3   OH2 8327   3.492   4.510   4.476 -0.0518  0.3775 -0.5858
 2774TIP3    H1 8328   3.441   4.468   4.544  0.0120  2.5993  0.9362
 2774TIP3    H2 8329   3.439   4.585   4.448  1.6250  1.8320 -0.0706
 2775TIP3   OH2 8330   0.773   0.576   3.456 -0.7206 -0.1455  0.5293
 2775TIP3    H1 8331   0.736   0.607   3.539 -0.6643  1.8479 -0.1299
 2775TIP3    H2 8332   0.702   0.584   3.393  0.1366  1.6428 -0.2925
 2776TIP3   OH2 8333   5.468   5.481   1.373 -0.1688 -0.2955  0.1104
 2776TIP3    H1 8334   5.554   5.440   1.360 -0.4106 -0.8901  0.3434
 2776TIP3    H2 8335   5.482   5.573   1.353  0.7028 -0.2562  0.8757
 2777TIP3   OH2 8336   0.251   2.100   4.284 -0.0449 -0.2892 -0.0278
 2777TIP3    H1 8337   0.280   2.009   4.273 -1.2125 -0.7760  0.7115
 2777TIP3    H2 8338   0.312   2.136   4.349 -1.0492 -1.3201  1.5617
 2778TIP3   OH2 8339   4.215   0.802   0.641 -0.3643 -0.4687 -0.3293
 2778TIP3    H1 8340   4.183   0.811   0.551 -2.2270  0.0247  0.3147
 2778TIP3    H2 8341   4.138   0.824   0.695  1.2683  1.4590  1.3859
 2779TIP3   OH2 8342   6.297   4.993   3.389  0.4976  0.0122  0.2727
 2779TIP3    H1 8343   6.384   5.025   3.413 -0.7714  2.5028  1.9996
 2779TIP3    H2 8344   6.280   4.922   3.452  1.6642 -1.2929 -0.8181
 2780TIP3   OH2 8345   4.080   2.193   3.262 -0.4818 -0.1562  0.0032
 2780TIP3    H1 8346   4.119   2.130   3.323  0.7320  0.9889  0.4680
 2780TIP3    H2 8347   4.087   2.277   3.308  0.8442  0.8174 -1.8737
 2781TIP3   OH2 8348   5.479   1.729   0.105  0.0840 -0.0307 -0.2387
 2781TIP3    H1 8349   5.474   1.657   0.168  0.8702  0.5294  0.4852
 2781TIP3    H2 8350   5.411   1.709   0.041  1.2347 -2.2359 -0.8988
 2782TIP3   OH2 8351   1.477   5.862   3.820  0.2178  0.0830 -0.2529
 2782TIP3    H1 8352   1.491   5.924   3.892  2.4171 -0.0758 -0.4650
 2782TIP3    H2 8353   1.511   5.907   3.743 -0.0238 -0.6301 -0.7844
 2783TIP3   OH2 8354   1.598   0.942   4.534  0.1608 -0.1961 -0.2030
 2783TIP3    H1 8355   1.511   0.970   4.565  0.0302 -1.8768  1.1388
 2783TIP3    H2 8356   1.636   0.898   4.610  2.3632  0.8175 -0.6688
 2784TIP3   OH2 8357   2.604   3.932   3.634 -0.3719 -0.0539  0.0095
 2784TIP3    H1 8358   2.641   3.902   3.717 -0.4828 -0.5957 -0.1368
 2784TIP3    H2 8359   2.538   3.867   3.612  2.7788 -2.7093 -2.8702
 2785TIP3   OH2 8360   2.214   2.539   0.947  0.7476 -0.1039  0.3969
 2785TIP3    H1 8361   2.252   2.613   0.994 -0.3286  0.0038  1.1319
 2785TIP3    H2 8362   2.288   2.480   0.931  1.4099  0.5980  0.8087
 2786TIP3   OH2 8363   2.266   1.840   4.529  0.3333  0.1424 -0.0443
 2786TIP3    H1 8364   2.212   1.762   4.537  2.5619 -1.6131 -0.9385
 2786TIP3    H2 8365   2.323   1.821   4.454  0.3280  3.0538 -0.8917
 2787TIP3   OH2 8366   1.222   0.337   2.097 -0.1230  0.3171  0.0486
 2787TIP3    H1 8367   1.129   0.325   2.080  0.1152 -1.9162  0.0536
 2787TIP3    H2 8368   1.225   0.378   2.184 -1.0874  1.5492 -0.4679
 2788TIP3   OH2 8369   5.256   5.632   0.457  0.1953  0.2131  0.1414
 2788TIP3    H1 8370   5.227   5.542   0.444  1.0462 -0.4400  2.3809
 2788TIP3    H2 8371   5.176   5.685   0.446 -0.1529 -0.6613 -2.0604
 2789TIP3   OH2 8372   0.288   1.324   3.809  0.4904  0.3381  0.3352
 2789TIP3    H1 8373   0.372   1.321   3.855 -0.2778 -1.5992  1.7474
 2789TIP3    H2 8374   0.225   1.350   3.876  0.0209  2.5423 -0.8917
 2790TIP3   OH2 8375   2.397   0.430   0.268  0.1091  0.1374  0.3619
 2790TIP3    H1 8376   2.469   0.416   0.329  0.4325  0.6116  0.0892
 2790TIP3    H2 8377   2.382   0.524   0.269 -0.9779 -0.0289  0.9484
 2791TIP3   OH2 8378   5.174   1.397   2.946  0.1453  0.2878  0.3184
 2791TIP3    H1 8379   5.154   1.317   2.898 -1.8979  1.3508 -0.7518
 2791TIP3    H2 8380   5.143   1.380   3.036  1.0505 -0.5958  0.4738
 2792TIP3   OH2 8381   4.196   0.364   3.367 -0.3324  0.1238 -0.6165
 2792TIP3    H1 8382   4.248   0.411   3.302  0.7834 -1.4255 -0.9061
 2792TIP3    H2 8383   4.123   0.328   3.317 -0.0411 -0.1885 -0.8297
 2793TIP3   OH2 8384   5.906   5.718   2.610 -0.7824 -0.6392  0.2649
 2793TIP3    H1 8385   5.959   5.762   2.544 -2.0967 -0.7750 -0.9358
 2793TIP3    H2 8386   5.829   5.774   2.620 -0.5947 -0.6185  1.7048
 2794TIP3   OH2 8387   3.859   1.341   3.715 -0.0186 -0.5802  0.7262
 2794TIP3    H1 8388   3.941   1.314   3.758 -0.2226 -1.7719  0.4245
 2794TIP3    H2 8389   3.825   1.259   3.678 -0.5938  0.1587 -0.4173
 2795TIP3   OH2 8390   5.552   3.104   2.152 -0.1030  0.5727  0.3824
 2795TIP3    H1 8391   5.609   3.108   2.075  0.2073 -0.0019  0.5826
 2795TIP3    H2 8392   5.589   3.035   2.206 -2.1101 -1.2310 -0.4028
 2796TIP3   OH2 8393   1.715   1.887   1.375 -0.3808  0.2429  0.6722
 2796TIP3    H1 8394   1.748   1.798   1.385  1.2977  0.5337 -1.3833
 2796TIP3    H2 8395   1.627   1.876   1.340 -0.7795 -0.5841  1.8831
 2797TIP3   OH2 8396   0.866   1.271   4.034 -0.5391 -0.3332 -0.0949
 2797TIP3    H1 8397   0.825   1.191   4.068 -0.6320 -0.3117 -0.1553
 2797TIP3    H2 8398   0.806   1.300   3.965 -1.3273  0.6528  0.9609
 2798TIP3   OH2 8399   5.206   1.442   0.867  0.4010  0.0342 -0.4486
 2798TIP3    H1 8400   5.241   1.464   0.953  0.0549 -3.7139  0.8250
 2798TIP3    H2 8401   5.230   1.516   0.812  1.4797  2.1561  2.6153
 2799TIP3   OH2 8402   5.538   1.658   0.864  0.0515 -0.3717  0.2440
 2799TIP3    H1 8403   5.480   1.619   0.799  0.1968 -1.4674  0.7429
 2799TIP3    H2 8404   5.595   1.715   0.813 -2.4230  2.0020 -0.0893
 2800TIP3   OH2 8405   5.755   0.689   5.019 -0.2149  0.5099 -0.6418
 2800TIP3    H1 8406   5.771   0.651   4.932  1.8546  0.9565 -0.5215
 2800TIP3    H2 8407   5.671   0.653   5.046  0.4095 -1.9286 -1.6330
 2801TIP3   OH2 8408   4.179   0.590   2.085  0.4755  0.0779 -0.1266
 2801TIP3    H1 8409   4.163   0.681   2.062  1.8120  0.2095 -0.6043
 2801TIP3    H2 8410   4.274   0.583   2.094  0.3889 -1.2309  0.0608
 2802TIP3   OH2 8411   2.941   0.452   2.706  0.4601  1.1329 -0.1042
 2802TIP3    H1 8412   2.950   0.387   2.636 -0.5344 -1.6791  2.2042
 2802TIP3    H2 8413   2.876   0.514   2.672 -0.0828 -0.2107 -1.6707
 2803TIP3   OH2 8414   4.754   3.117   1.827  0.2660 -0.2870  0.5189
 2803TIP3    H1 8415   4.828   3.172   1.802 -0.2137 -0.4195 -1.3563
 2803TIP3    H2 8416   4.683   3.144   1.769  0.1587 -3.1895 -0.9240
 2804TIP3   OH2 8417   4.453   1.548   1.852 -0.3254 -0.1954  0.4288
 2804TIP3    H1 8418   4.475   1.525   1.943 -2.6914 -1.0207  0.8561
 2804TIP3    H2 8419   4.392   1.621   1.860  0.7699  0.8902 -0.6240
 2805TIP3   OH2 8420   1.935   5.184   4.614 -0.0998 -0.1391 -0.0808
 2805TIP3    H1 8421   1.876   5.241   4.662 -0.7128  0.2958 -1.3161
 2805TIP3    H2 8422   1.931   5.100   4.660 -1.2559  0.0519  0.1805
 2806TIP3   OH2 8423   0.481   3.516   1.686 -0.0549 -0.1800  0.3477
 2806TIP3    H1 8424   0.565   3.542   1.648 -0.1266 -0.4263  0.0096
 2806TIP3    H2 8425   0.417   3.576   1.647 -0.1433 -0.5000 -0.0100
 2807TIP3   OH2 8426   1.924   1.447   3.546 -0.0121  0.3760 -0.2528
 2807TIP3    H1 8427   1.977   1.369   3.534 -0.8879 -0.1255 -1.0994
 2807TIP3    H2 8428   1.877   1.433   3.628  1.6864  1.1698  0.9046
 2808TIP3   OH2 8429   2.908   1.669   1.840 -0.1071  0.2938  0.3475
 2808TIP3    H1 8430   2.868   1.655   1.754 -3.1403  2.3564  1.2355
 2808TIP3    H2 8431   2.864   1.607   1.898 -2.2038  2.4954  1.3151
 2809TIP3   OH2 8432   2.120   2.877   1.071  0.4389  0.2090 -0.7101
 2809TIP3    H1 8433   2.084   2.818   1.004  0.2832 -0.7546  0.1908
 2809TIP3    H2 8434   2.118   2.964   1.030 -1.1234 -0.1012 -1.3921
 2810TIP3   OH2 8435   3.169   0.132   3.020 -0.1563 -0.2026 -0.3650
 2810TIP3    H1 8436   3.185   0.067   3.088 -2.7232 -0.2162  0.2933
 2810TIP3    H2 8437   3.167   0.216   3.067  2.5900  0.4165 -1.1332
 2811TIP3   OH2 8438   1.454   2.704   0.882  0.4466 -0.4151  0.6917
 2811TIP3    H1 8439   1.543   2.733   0.862 -0.1791  1.1390  0.0392
 2811TIP3    H2 8440   1.445   2.716   0.977  0.4795  0.7360  0.5524
 2812TIP3   OH2 8441   4.493   0.470   5.096  0.2259 -0.4417 -0.3088
 2812TIP3    H1 8442   4.528   0.551   5.059 -0.4272 -0.7657 -1.7084
 2812TIP3    H2 8443   4.566   0.409   5.091  1.2950  0.4626  2.3868
 2813TIP3   OH2 8444   1.776   0.130   0.351 -0.1713 -0.5377  0.4541
 2813TIP3    H1 8445   1.789   0.221   0.379 -0.2254 -0.6392  0.8087
 2813TIP3    H2 8446   1.841   0.117   0.283 -1.2576  0.2963 -0.8008
 2814TIP3   OH2 8447   5.309   0.463   4.792 -0.3406 -0.3149 -0.1212
 2814TIP3    H1 8448   5.329   0.462   4.698  0.3256  1.1932 -0.0291
 2814TIP3    H2 8449   5.215   0.446   4.796 -0.3787 -0.4193 -1.0736
 2815TIP3   OH2 8450   3.541   3.261   1.992  0.2260 -0.4485 -0.0487
 2815TIP3    H1 8451   3.587   3.316   1.929  2.2235 -2.9237 -0.8816
 2815TIP3    H2 8452   3.472   3.219   1.941 -0.0115 -0.2769  0.1264
 2816TIP3   OH2 8453   3.822   5.375   2.725  0.2496 -0.7029  0.0495
 2816TIP3    H1 8454   3.780   5.452   2.686 -1.3356 -0.4848  2.0390
 2816TIP3    H2 8455   3.870   5.335   2.652  0.2911  1.5832 -1.2618
 2817TIP3   OH2 8456   0.384   0.293   0.701  0.3301  0.4084 -0.6285
 2817TIP3    H1 8457   0.364   0.252   0.617 -0.7903 -2.2393  0.8112
 2817TIP3    H2 8458   0.305   0.343   0.723 -1.2569 -2.4146  0.7078
 2818TIP3   OH2 8459   4.874   3.902   0.298 -0.4323  0.2230 -0.0496
 2818TIP3    H1 8460   4.898   3.890   0.390  1.9837  2.1760 -0.3255
 2818TIP3    H2 8461   4.905   3.990   0.277 -0.9942 -0.1469 -2.7341
 2819TIP3   OH2 8462   4.758   2.800   1.532  1.0973  0.3806 -0.1660
 2819TIP3    H1 8463   4.681   2.758   1.569  0.6516  1.1183 -0.2239
 2819TIP3    H2 8464   4.776   2.752   1.451  0.4543  0.4589 -0.3581
 2820TIP3   OH2 8465   4.309   2.376   2.972 -0.1631  0.7074  0.3569
 2820TIP3    H1 8466   4.356   2.443   3.021  0.2532 -0.5057  1.6745
 2820TIP3    H2 8467   4.361   2.297   2.982 -1.0023  0.0011 -0.5840
 2821TIP3   OH2 8468   3.938   5.186   3.320 -0.3167 -0.3456  0.7540
 2821TIP3    H1 8469   3.929   5.274   3.283  1.4263 -0.3142  0.3195
 2821TIP3    H2 8470   3.990   5.139   3.255  1.3936 -0.7948  2.3913
 2822TIP3   OH2 8471   5.233   2.867   1.129 -0.0748 -0.2736 -0.1010
 2822TIP3    H1 8472   5.161   2.845   1.188  0.6909 -1.1602  0.5371
 2822TIP3    H2 8473   5.210   2.823   1.047 -0.6632  0.1415 -0.1641
 2823TIP3   OH2 8474   5.075   2.684   4.610 -0.1574 -0.0842  0.3368
 2823TIP3    H1 8475   5.114   2.743   4.545 -3.3164  1.5282 -0.2870
 2823TIP3    H2 8476   5.018   2.627   4.558 -0.4170 -0.8279  1.4158
 2824TIP3   OH2 8477   2.988   2.088   0.816  0.6322 -0.5676 -0.1415
 2824TIP3    H1 8478   3.022   2.177   0.823  1.3794 -0.8673  0.0649
 2824TIP3    H2 8479   2.922   2.093   0.746  1.0097  0.0399 -0.4591
 2825TIP3   OH2 8480   3.122   2.213   1.908 -0.3080  0.6058 -0.6761
 2825TIP3    H1 8481   3.141   2.133   1.859  0.0312 -0.2614  0.8082
 2825TIP3    H2 8482   3.099   2.183   1.996  2.1554  2.2011  0.6432
 2826TIP3   OH2 8483   5.059   4.862   1.696 -0.3442  0.2310 -0.0349
 2826TIP3    H1 8484   4.974   4.823   1.718  0.6033 -1.4420  0.8537
 2826TIP3    H2 8485   5.104   4.871   1.780 -0.5381  3.5114 -0.1509
 2827TIP3   OH2 8486   6.131   1.632   1.278  0.4268  0.3617  0.7148
 2827TIP3    H1 8487   6.064   1.680   1.326 -0.9652 -0.7537 -0.0334
 2827TIP3    H2 8488   6.164   1.568   1.340 -1.1531 -0.8755  0.3446
 2828TIP3   OH2 8489   5.350   0.074   0.409 -0.1334  0.1104  0.6711
 2828TIP3    H1 8490   5.385   0.087   0.497 -1.8640  1.6447  1.2040
 2828TIP3    H2 8491   5.269   0.126   0.408 -0.5533 -0.4936 -1.5809
 2829TIP3   OH2 8492   0.198   1.385   3.518 -0.5691  0.6876  0.5143
 2829TIP3    H1 8493   0.138   1.331   3.570 -1.1687  0.8749  0.0276
 2829TIP3    H2 8494   0.279   1.386   3.569 -1.1136  0.8004  1.3995
 2830TIP3   OH2 8495   4.641   3.260   3.257 -0.6753  0.1140 -0.3356
 2830TIP3    H1 8496   4.606   3.346   3.235 -0.2343  0.2566 -0.4679
 2830TIP3    H2 8497   4.688   3.231   3.179  0.6321  0.4911  0.2912
 2831TIP3   OH2 8498   3.112   3.714   0.593 -0.2953  0.0864  0.1901
 2831TIP3    H1 8499   3.112   3.622   0.566 -1.2065  0.2124 -0.2993
 2831TIP3    H2 8500   3.126   3.762   0.511  2.1630  0.3603  0.6990
 2832TIP3   OH2 8501   4.165   2.400   4.834  0.1756 -0.5451  0.4597
 2832TIP3    H1 8502   4.091   2.419   4.776  0.4257 -1.0601 -0.0347
 2832TIP3    H2 8503   4.230   2.467   4.812  1.1206 -1.9779 -1.3997
 2833TIP3   OH2 8504   1.747   4.049   3.770  0.1239  0.3537  0.0321
 2833TIP3    H1 8505   1.746   4.107   3.846 -0.1789 -0.2159  0.4686
 2833TIP3    H2 8506   1.654   4.038   3.748  0.1135 -0.7375  0.5566
 2834TIP3   OH2 8507   3.893   5.923   0.381  0.1040  0.4448  0.2631
 2834TIP3    H1 8508   3.864   5.836   0.409  0.1918 -0.4051 -2.0983
 2834TIP3    H2 8509   3.980   5.933   0.419 -0.1477 -0.2376  1.0347
 2835TIP3   OH2 8510   2.370   5.642   1.660  0.2874 -0.1164  0.0904
 2835TIP3    H1 8511   2.386   5.658   1.753  0.7970  1.1391 -0.1967
 2835TIP3    H2 8512   2.408   5.717   1.616  2.0239 -1.7208 -1.3026
 2836TIP3   OH2 8513   0.960   5.376   2.183  0.0673 -0.0550  0.0076
 2836TIP3    H1 8514   0.876   5.376   2.139 -1.0531 -0.6189  2.0067
 2836TIP3    H2 8515   0.945   5.425   2.264  1.3952 -0.9831  0.8628
 2837TIP3   OH2 8516   2.060   0.739   0.186 -1.2155  0.0436 -0.4750
 2837TIP3    H1 8517   2.038   0.827   0.217 -0.2493 -0.2395  1.1202
 2837TIP3    H2 8518   2.089   0.752   0.096  1.8873  1.8851  0.6215
 2838TIP3   OH2 8519   1.080   1.954   3.083  0.2253 -0.4622 -0.7807
 2838TIP3    H1 8520   1.050   2.030   3.033  0.1128  1.1190  1.5468
 2838TIP3    H2 8521   1.172   1.945   3.061  0.3400  0.6162 -0.8071
 2839TIP3   OH2 8522   2.346   1.957   5.017 -0.2168 -0.4752 -0.0575
 2839TIP3    H1 8523   2.389   2.041   5.004  0.6157 -1.0607 -1.2779
 2839TIP3    H2 8524   2.286   1.949   4.943 -0.5747 -0.7886  0.2615
 2840TIP3   OH2 8525   0.341   2.082   1.679  0.5041  0.1902  0.4811
 2840TIP3    H1 8526   0.432   2.072   1.706  0.8418  0.3521 -0.5631
 2840TIP3    H2 8527   0.320   1.999   1.636 -0.5579 -0.7427  2.6563
 2841TIP3   OH2 8528   1.508   1.446   3.840 -0.0838 -0.0352 -0.5255
 2841TIP3    H1 8529   1.512   1.395   3.921 -3.4247 -0.4594 -0.4657
 2841TIP3    H2 8530   1.499   1.380   3.771  0.9235  0.3765 -1.0671
 2842TIP3   OH2 8531   5.645   2.938   2.672 -0.2036  0.2751 -0.0140
 2842TIP3    H1 8532   5.716   2.911   2.613 -1.2180 -0.3299 -0.9886
 2842TIP3    H2 8533   5.569   2.948   2.615 -1.1767 -0.1453  1.1800
 2843TIP3   OH2 8534   6.246   0.218   3.596 -0.2531  0.4000 -0.7073
 2843TIP3    H1 8535   6.157   0.236   3.565 -1.0259 -1.4830  0.2712
 2843TIP3    H2 8536   6.267   0.293   3.651 -1.6071  0.4754 -0.2505
 2844TIP3   OH2 8537   2.622   0.629   0.727  1.0574  0.3151 -0.3517
 2844TIP3    H1 8538   2.714   0.608   0.744  0.9088 -0.3558 -0.3687
 2844TIP3    H2 8539   2.602   0.697   0.792  0.9169 -1.1890  1.2499
 2845TIP3   OH2 8540   0.171   5.038   4.814  0.5339 -0.2526  0.2397
 2845TIP3    H1 8541   0.229   5.066   4.885  0.4464  2.1126 -0.5224
 2845TIP3    H2 8542   0.093   5.093   4.824  0.0592 -0.6565 -1.0417
 2846TIP3   OH2 8543   1.212   0.354   1.397  0.0335  0.3939 -0.1138
 2846TIP3    H1 8544   1.214   0.381   1.488 -2.1720 -0.3866  0.2316
 2846TIP3    H2 8545   1.218   0.259   1.400 -2.2440  0.1793 -0.5647
 2847TIP3   OH2 8546   6.169   5.209   1.784  0.3480 -0.2386  0.1247
 2847TIP3    H1 8547   6.232   5.184   1.716 -0.5285 -1.9093 -0.1218
 2847TIP3    H2 8548   6.210   5.179   1.866  0.6498  0.2604  0.1602
 2848TIP3   OH2 8549   2.272   1.016   1.898 -0.5718 -0.3251  0.3342
 2848TIP3    H1 8550   2.207   1.074   1.938 -0.4728  0.3926 -0.5219
 2848TIP3    H2 8551   2.262   0.933   1.944 -0.8106  0.3302  1.4907
 2849TIP3   OH2 8552   5.275   5.378   4.249 -0.2659 -0.9054 -0.2179
 2849TIP3    H1 8553   5.190   5.421   4.244 -0.8232 -1.9376  0.0006
 2849TIP3    H2 8554   5.338   5.449   4.259 -1.1483 -0.1563  0.1134
 2850TIP3   OH2 8555   2.665   0.463   1.146  0.3498 -0.3069 -0.2685
 2850TIP3    H1 8556   2.759   0.452   1.154  0.2258 -0.4685  1.1888
 2850TIP3    H2 8557   2.627   0.396   1.203 -0.6256  0.3901 -0.0573
 2851TIP3   OH2 8558   4.488   1.449   4.114  0.3024 -0.0537 -0.3887
 2851TIP3    H1 8559   4.569   1.499   4.103  0.4525 -0.3180 -0.4764
 2851TIP3    H2 8560   4.503   1.368   4.066 -0.0371 -0.0781 -0.4542
 2852TIP3   OH2 8561   2.976   0.799   0.131 -0.5140 -0.2593 -0.0012
 2852TIP3    H1 8562   2.985   0.729   0.196  1.0835 -1.0219 -0.9877
 2852TIP3    H2 8563   2.970   0.754   0.047 -1.2707  0.7470 -0.5159
 2853TIP3   OH2 8564   2.011   5.224   4.928 -0.6296  0.3016  0.7750
 2853TIP3    H1 8565   2.065   5.277   4.869 -2.5400  0.6724 -0.7253
 2853TIP3    H2 8566   1.921   5.248   4.907 -1.4582 -1.1320  2.3963
 2854TIP3   OH2 8567   2.302   0.666   1.587  0.2414 -0.2143 -0.3850
 2854TIP3    H1 8568   2.333   0.745   1.632  1.0104 -1.5421  1.4805
 2854TIP3    H2 8569   2.243   0.624   1.649  0.1349 -1.3196 -1.2125
 2855TIP3   OH2 8570   3.142   4.859   2.254 -0.2354  0.1745  0.6338
 2855TIP3    H1 8571   3.209   4.835   2.318 -1.0459 -0.4204  1.2864
 2855TIP3    H2 8572   3.061   4.862   2.305 -0.6944  1.0047 -0.1112
 2856TIP3   OH2 8573   6.010   0.087   3.350  0.0837  0.3722  0.2755
 2856TIP3    H1 8574   6.030   0.175   3.384  0.4587  0.8873 -1.1623
 2856TIP3    H2 8575   5.975   0.104   3.262  1.7921 -0.9669 -0.7365
 2857TIP3   OH2 8576   3.343   4.705   4.342 -0.7018 -0.2180  0.0144
 2857TIP3    H1 8577   3.416   4.738   4.290 -1.0356  0.7326  0.1191
 2857TIP3    H2 8578   3.299   4.784   4.374 -0.5976 -0.7843  1.6169
 2858TIP3   OH2 8579   3.627  -0.028   1.079 -0.1280 -0.1270 -0.2100
 2858TIP3    H1 8580   3.546  -0.019   1.129 -1.1311 -0.1171 -1.7815
 2858TIP3    H2 8581   3.653   0.061   1.057 -1.1881 -0.2089 -1.9698
 2859TIP3   OH2 8582   2.827   3.120   0.744 -0.2793 -0.2519 -0.1684
 2859TIP3    H1 8583   2.829   3.171   0.825 -1.3422 -0.5185  0.0339
 2859TIP3    H2 8584   2.890   3.049   0.759  0.3872  0.3555 -0.0326
 2860TIP3   OH2 8585   5.527   2.263   0.821 -0.1658  0.1205  0.3856
 2860TIP3    H1 8586   5.445   2.253   0.773  0.9748 -0.5874 -1.5001
 2860TIP3    H2 8587   5.532   2.183   0.874 -0.6890  0.1854  0.5490
 2861TIP3   OH2 8588   5.104   2.777   3.276 -0.0300  0.1497  0.2074
 2861TIP3    H1 8589   5.066   2.805   3.359 -0.4857  0.2698 -0.0383
 2861TIP3    H2 8590   5.166   2.847   3.254  0.1488  0.0787  0.4829
 2862TIP3   OH2 8591   0.545   3.715   1.332  0.1011  0.9102 -0.2441
 2862TIP3    H1 8592   0.639   3.728   1.322  0.3062 -0.3948 -0.1349
 2862TIP3    H2 8593   0.533   3.693   1.425 -0.1099 -0.4133 -0.5642
 2863TIP3   OH2 8594   3.828   0.746   4.585  0.0351 -0.3595 -0.1088
 2863TIP3    H1 8595   3.768   0.704   4.524  0.1342 -0.7895  0.0862
 2863TIP3    H2 8596   3.817   0.840   4.569 -1.7587 -0.3438  0.8905
 2864TIP3   OH2 8597   1.675   1.366   2.184 -0.2733  0.0058  0.1408
 2864TIP3    H1 8598   1.688   1.274   2.209  1.9021  0.6185  1.4925
 2864TIP3    H2 8599   1.605   1.363   2.118 -1.0872 -2.4741  1.0004
 2865TIP3   OH2 8600   5.957   2.747   2.689  0.0840  0.1209 -0.6091
 2865TIP3    H1 8601   5.902   2.679   2.726  0.1678  0.9872  1.2029
 2865TIP3    H2 8602   6.044   2.708   2.682  0.4187  0.3545  1.5738
 2866TIP3   OH2 8603   3.136   4.312   5.012 -0.3404 -0.4550  0.1963
 2866TIP3    H1 8604   3.083   4.311   5.091  1.1253 -2.7654  1.2482
 2866TIP3    H2 8605   3.222   4.342   5.042 -0.3185  0.7354 -0.9708
 2867TIP3   OH2 8606   5.363   0.401   4.532  0.6291 -0.2022  0.2453
 2867TIP3    H1 8607   5.359   0.305   4.524  0.3233 -0.1913  0.2582
 2867TIP3    H2 8608   5.275   0.431   4.507  0.1519 -0.0549  2.0030
 2868TIP3   OH2 8609   0.519   2.650   1.532  1.0201 -0.4452  0.2226
 2868TIP3    H1 8610   0.559   2.735   1.553  0.0338  0.2068 -0.4743
 2868TIP3    H2 8611   0.430   2.657   1.566  0.9389 -1.2333  0.1912
 2869TIP3   OH2 8612   4.673   2.714   0.562  0.3997 -0.2889  0.6936
 2869TIP3    H1 8613   4.747   2.714   0.501  0.2195  0.3159  0.4617
 2869TIP3    H2 8614   4.609   2.655   0.523  0.8909 -1.0920  1.0723
 2870TIP3   OH2 8615   6.301   5.711   4.358  0.1465  0.0720  0.0765
 2870TIP3    H1 8616   6.379   5.763   4.334 -0.8720  1.5741 -0.1099
 2870TIP3    H2 8617   6.323   5.622   4.330  1.2680  0.7127 -1.2602
 2871TIP3   OH2 8618   5.750   4.710   0.838  0.5842 -0.3215 -0.1294
 2871TIP3    H1 8619   5.746   4.720   0.742 -0.7654 -1.0680 -0.1764
 2871TIP3    H2 8620   5.659   4.711   0.866  0.9842  2.5131  1.4871
 2872TIP3   OH2 8621   4.485   0.382   3.418  0.1111  0.1027 -0.6129
 2872TIP3    H1 8622   4.553   0.411   3.356  2.8019 -0.8339  1.6891
 2872TIP3    H2 8623   4.492   0.443   3.491 -1.9358  0.2672 -0.5117
 2873TIP3   OH2 8624   0.824   5.826   1.732  0.2147  0.4661 -0.1864
 2873TIP3    H1 8625   0.745   5.788   1.771  0.3658 -0.5113 -0.8027
 2873TIP3    H2 8626   0.829   5.914   1.770 -1.3631  0.6845 -0.3859
 2874TIP3   OH2 8627   0.151   5.327   1.273  0.0184  0.5050  0.1442
 2874TIP3    H1 8628   0.060   5.325   1.303 -0.3989 -0.9987 -1.1133
 2874TIP3    H2 8629   0.148   5.379   1.193  0.0357 -0.4887 -0.5183
 2875TIP3   OH2 8630   5.305   0.304   2.239 -0.2989 -0.3807 -0.1541
 2875TIP3    H1 8631   5.302   0.287   2.145  0.8135  0.5534 -0.3888
 2875TIP3    H2 8632   5.294   0.399   2.246  0.5922 -0.3146  0.5749
 2876TIP3   OH2 8633   6.181   1.240   4.564  0.1316 -0.3258  0.3258
 2876TIP3    H1 8634   6.153   1.332   4.563  0.9399 -0.0534 -1.5863
 2876TIP3    H2 8635   6.254   1.238   4.627  0.9512  0.6373 -0.5549
 2877TIP3   OH2 8636   2.747   0.167   3.202  0.3959 -0.1204  0.1958
 2877TIP3    H1 8637   2.746   0.253   3.243  2.0810 -0.3654  0.8515
 2877TIP3    H2 8638   2.751   0.185   3.108  1.6111  0.5548  0.3572
 2878TIP3   OH2 8639   4.281   2.207   2.282 -0.0201 -0.6390 -0.2475
 2878TIP3    H1 8640   4.370   2.221   2.249 -0.1390  0.3597 -0.1870
 2878TIP3    H2 8641   4.248   2.295   2.297 -1.2548 -0.9864 -0.8769
 2879TIP3   OH2 8642   2.087   5.749   4.818  0.4039 -0.2576 -0.4500
 2879TIP3    H1 8643   2.065   5.821   4.760 -0.6283 -0.5113 -0.3824
 2879TIP3    H2 8644   2.177   5.767   4.846  0.4228  0.5860 -1.0356
 2880TIP3   OH2 8645   5.917   3.679   2.376 -0.1987  0.2727 -0.2612
 2880TIP3    H1 8646   5.844   3.703   2.319  0.5331  1.6263 -0.6542
 2880TIP3    H2 8647   5.965   3.760   2.390  0.4403 -0.3065  1.1560
 2881TIP3   OH2 8648   2.476   0.317   3.481 -0.6073  0.0832  0.1926
 2881TIP3    H1 8649   2.541   0.350   3.542 -0.1066  0.2061 -0.3987
 2881TIP3    H2 8650   2.396   0.310   3.533 -1.2094  3.7436  0.0608
 2882TIP3   OH2 8651  -0.035   4.305   1.342  0.2326  0.0593 -0.4562
 2882TIP3    H1 8652  -0.005   4.302   1.433  1.2744 -0.0542 -0.7840
 2882TIP3    H2 8653   0.043   4.282   1.291 -0.0927  1.0123 -1.4198
 2883TIP3   OH2 8654   5.292   4.390   4.418  0.1312  0.0321  0.1149
 2883TIP3    H1 8655   5.347   4.460   4.453  0.3923  0.6078 -1.3866
 2883TIP3    H2 8656   5.205   4.408   4.454  0.7550 -0.5690  2.0674
 2884TIP3   OH2 8657   6.212   0.946   4.480  0.5604  0.4329  0.4854
 2884TIP3    H1 8658   6.222   1.036   4.448  2.2346  0.2745  0.4849
 2884TIP3    H2 8659   6.202   0.955   4.575  0.6369  0.6203  0.4762
 2885TIP3   OH2 8660   2.309   1.447   4.739 -0.0542 -0.6638  0.7749
 2885TIP3    H1 8661   2.336   1.419   4.652 -0.6162 -1.1960  0.7658
 2885TIP3    H2 8662   2.369   1.404   4.799  0.9402  0.4563  0.6109
 2886TIP3   OH2 8663   4.176   4.358   3.667 -0.1364 -0.3628 -0.4777
 2886TIP3    H1 8664   4.201   4.293   3.733 -2.0518 -0.5624  0.0967
 2886TIP3    H2 8665   4.260   4.394   3.637  0.8977 -1.9829  0.3003
 2887TIP3   OH2 8666   4.362   0.412   1.814  0.1107  1.0238 -0.8783
 2887TIP3    H1 8667   4.302   0.417   1.889 -0.1067  1.1692 -1.0618
 2887TIP3    H2 8668   4.444   0.451   1.846  0.5823 -0.4671 -0.1634
 2888TIP3   OH2 8669   3.567   1.185   1.068 -0.0495  0.2215  0.1059
 2888TIP3    H1 8670   3.508   1.153   0.999  1.7740  1.9430 -2.4249
 2888TIP3    H2 8671   3.517   1.254   1.112 -1.3992 -1.1983  0.9041
 2889TIP3   OH2 8672   2.402   1.532   0.971 -0.4090  0.1814  0.8273
 2889TIP3    H1 8673   2.423   1.454   1.021 -1.4687  0.4906  1.7953
 2889TIP3    H2 8674   2.431   1.605   1.027  0.1930  0.5060  0.1155
 2890TIP3   OH2 8675   5.082   5.304   0.866  0.0144 -0.3878 -0.4723
 2890TIP3    H1 8676   5.153   5.241   0.876 -0.8555 -1.2597  0.3754
 2890TIP3    H2 8677   5.125   5.383   0.832  1.2146 -1.2135 -0.9400
 2891TIP3   OH2 8678   0.899   0.860   3.748 -0.5541 -0.1405 -0.0434
 2891TIP3    H1 8679   0.834   0.797   3.715 -0.9868  0.6259 -0.6969
 2891TIP3    H2 8680   0.948   0.887   3.671 -0.1057  0.0319  0.2960
 2892TIP3   OH2 8681   3.114   2.223   1.146  0.7120  0.2863 -0.3827
 2892TIP3    H1 8682   3.152   2.185   1.226 -0.9162  0.1696  0.3753
 2892TIP3    H2 8683   3.083   2.309   1.172  0.2733  0.2961 -0.9161
 2893TIP3   OH2 8684   1.149   3.508   1.945 -0.3794 -0.4039  0.6740
 2893TIP3    H1 8685   1.122   3.457   2.021  2.3452 -0.5127  1.6674
 2893TIP3    H2 8686   1.155   3.444   1.874 -0.5525 -0.7633  0.9781
 2894TIP3   OH2 8687   1.104   1.056   4.605  0.4336  0.1286 -0.0242
 2894TIP3    H1 8688   1.047   1.037   4.679  1.2223 -0.4840  0.4489
 2894TIP3    H2 8689   1.047   1.098   4.540 -0.1775  1.0110  1.0663
 2895TIP3   OH2 8690   0.346   1.573   1.432  0.1447 -0.2163 -0.2599
 2895TIP3    H1 8691   0.390   1.489   1.417 -2.5644 -1.9388  0.5954
 2895TIP3    H2 8692   0.263   1.565   1.385 -0.5832  1.6115  0.6164
 2896TIP3   OH2 8693   4.457   0.143   4.720 -0.0384  0.5051 -0.2604
 2896TIP3    H1 8694   4.481   0.130   4.811  1.0990  1.3767 -0.4123
 2896TIP3    H2 8695   4.377   0.091   4.708  0.9341 -1.3111  0.6778
 2897TIP3   OH2 8696   3.262   2.874   4.456 -0.6688 -0.4140 -0.3988
 2897TIP3    H1 8697   3.221   2.934   4.519 -0.5732  0.0657 -0.7837
 2897TIP3    H2 8698   3.244   2.787   4.490 -0.1046 -0.1481  0.6179
 2898TIP3   OH2 8699   3.678   3.023   3.827 -0.5613  0.3315 -0.0615
 2898TIP3    H1 8700   3.671   2.979   3.912 -0.3048  0.8176  0.2130
 2898TIP3    H2 8701   3.589   3.019   3.791 -0.5728 -0.2866  0.0176
 2899TIP3   OH2 8702   2.887   3.967   2.007 -0.4359  0.0348 -0.3945
 2899TIP3    H1 8703   2.910   4.029   2.076  1.8363 -1.4339  0.2698
 2899TIP3    H2 8704   2.939   3.994   1.931 -1.3642  0.4113 -0.9152
 2900TIP3   OH2 8705   1.132   2.844   4.738 -0.3708  0.3013 -0.3816
 2900TIP3    H1 8706   1.154   2.752   4.755  0.3352  0.5290 -0.0071
 2900TIP3    H2 8707   1.196   2.893   4.789 -1.1367  1.0081 -0.0992
 2901TIP3   OH2 8708   3.412   3.978   0.642 -0.6708  0.0951  0.0163
 2901TIP3    H1 8709   3.504   3.993   0.667  0.2640 -3.8702 -0.4063
 2901TIP3    H2 8710   3.361   4.015   0.714  1.4446 -0.7279  2.0660
 2902TIP3   OH2 8711   4.562   1.392   2.704 -0.5568 -0.1105  0.4218
 2902TIP3    H1 8712   4.569   1.372   2.611  0.5757 -1.5968  0.7919
 2902TIP3    H2 8713   4.599   1.316   2.748 -0.9357  0.6247  2.0955
 2903TIP3   OH2 8714   4.149   2.643   0.961  0.1933  0.7131 -0.0227
 2903TIP3    H1 8715   4.199   2.607   1.033 -1.7262 -1.9002  0.1351
 2903TIP3    H2 8716   4.170   2.588   0.886  0.3994  1.9440 -0.9012
 2904TIP3   OH2 8717   5.060   1.530   0.114 -0.3555 -0.4097 -0.2754
 2904TIP3    H1 8718   4.998   1.472   0.158 -1.2233  1.4212  1.1111
 2904TIP3    H2 8719   5.107   1.573   0.186  1.9355 -1.0907 -1.2865
 2905TIP3   OH2 8720   4.822   5.596   1.780 -0.0202 -0.1968 -0.1045
 2905TIP3    H1 8721   4.744   5.559   1.821 -0.6240 -0.6150 -1.5705
 2905TIP3    H2 8722   4.792   5.677   1.740  0.3874 -0.1626 -0.3408
 2906TIP3   OH2 8723   3.924   2.302   0.859 -0.2189  0.3234  0.1791
 2906TIP3    H1 8724   3.869   2.226   0.877 -0.9208  0.6752 -0.4238
 2906TIP3    H2 8725   3.862   2.372   0.836  0.4805  0.7221 -0.5338
 2907TIP3   OH2 8726   0.580   1.401   0.451  0.4644  0.2442  0.1676
 2907TIP3    H1 8727   0.516   1.465   0.480  0.3395  0.3190 -0.2626
 2907TIP3    H2 8728   0.534   1.348   0.386  0.6323 -0.1421  0.3595
 2908TIP3   OH2 8729   3.926   3.253   0.646  0.4965 -0.1259 -0.1269
 2908TIP3    H1 8730   3.978   3.226   0.721 -0.0916  0.8759  0.6754
 2908TIP3    H2 8731   3.837   3.223   0.666  0.0459  1.3983  0.2990
 2909TIP3   OH2 8732   2.211   2.185   1.876  0.9359  0.7498  0.5069
 2909TIP3    H1 8733   2.137   2.125   1.872  0.6304  1.1872 -0.6844
 2909TIP3    H2 8734   2.283   2.138   1.834  0.6474  1.2731 -0.5904
 2910TIP3   OH2 8735   1.230   0.514   4.518  0.3330  0.0023 -0.3822
 2910TIP3    H1 8736   1.310   0.478   4.480  0.8961 -0.4386  1.1426
 2910TIP3    H2 8737   1.173   0.531   4.443  1.0973 -1.5351 -1.3651
 2911TIP3   OH2 8738   0.038   3.624   4.795 -0.4675 -0.3416  0.0586
 2911TIP3    H1 8739   0.095   3.700   4.783 -0.6805 -0.2799 -0.6216
 2911TIP3    H2 8740   0.018   3.623   4.889 -1.1334  0.9370 -0.0538
 2912TIP3   OH2 8741   4.473   4.298   5.047  0.3969  0.0029 -0.3007
 2912TIP3    H1 8742   4.510   4.384   5.028  0.9843  0.8483  3.7180
 2912TIP3    H2 8743   4.384   4.302   5.012 -0.9471  3.8239  2.7984
 2913TIP3   OH2 8744   2.644   2.394   1.509  0.0246 -0.6116 -0.1662
 2913TIP3    H1 8745   2.592   2.475   1.515 -2.3949 -2.1422  0.8415
 2913TIP3    H2 8746   2.734   2.423   1.526 -0.4724  2.0950 -1.4664
 2914TIP3   OH2 8747   0.519   4.223   1.935 -0.1526  0.3668  0.1466
 2914TIP3    H1 8748   0.464   4.194   2.008 -0.5081  0.6688 -0.0020
 2914TIP3    H2 8749   0.481   4.181   1.858 -0.4972  0.9921 -0.0308
 2915TIP3   OH2 8750   0.831   2.928   0.124 -0.0082  0.1264 -0.1408
 2915TIP3    H1 8751   0.861   2.862   0.061 -2.4008 -1.0051 -0.1974
 2915TIP3    H2 8752   0.837   3.011   0.077 -2.0116 -0.7206 -2.0342
 2916TIP3   OH2 8753   1.903   2.614   1.185 -0.1500 -0.1736 -0.1441
 2916TIP3    H1 8754   1.921   2.627   1.092  1.7399  1.7615  0.4094
 2916TIP3    H2 8755   1.808   2.604   1.190 -0.3680  0.4595 -2.2034
 2917TIP3   OH2 8756   4.194   4.228   0.454 -0.0800 -0.4349 -0.8052
 2917TIP3    H1 8757   4.174   4.166   0.384 -2.5577 -0.7753  0.1222
 2917TIP3    H2 8758   4.140   4.305   0.435  1.1230  0.4992 -0.5981
 2918TIP3   OH2 8759   5.207   2.288   2.767 -0.7249 -0.0650 -0.2377
 2918TIP3    H1 8760   5.145   2.263   2.836 -1.0914  0.7353 -0.2586
 2918TIP3    H2 8761   5.174   2.246   2.688 -0.9062 -0.1299 -0.1274
 2919TIP3   OH2 8762   5.179   1.138   1.737 -0.5774  0.3101  0.2515
 2919TIP3    H1 8763   5.228   1.177   1.809  0.5011  0.8159 -0.7302
 2919TIP3    H2 8764   5.088   1.165   1.753 -0.9022 -1.8192  2.8911
 2920TIP3   OH2 8765   4.735   3.113   0.712  0.4847  0.1948  0.1468
 2920TIP3    H1 8766   4.718   3.027   0.752  0.1700  0.5387  0.7799
 2920TIP3    H2 8767   4.830   3.117   0.703  0.4736 -0.3731 -0.2349
 2921TIP3   OH2 8768   3.866   0.269   1.063 -0.1747 -0.0164  0.0934
 2921TIP3    H1 8769   3.824   0.352   1.084 -4.2225 -1.5258 -1.1424
 2921TIP3    H2 8770   3.886   0.275   0.970  0.0608 -0.2291  0.1289
 2922TIP3   OH2 8771   0.744   5.201   0.078 -0.0991  1.0199 -0.1881
 2922TIP3    H1 8772   0.699   5.234  -0.000 -2.0278  2.4966  1.4268
 2922TIP3    H2 8773   0.673   5.174   0.137  1.3123 -3.2675 -0.0982
 2923TIP3   OH2 8774   5.027   3.222   5.055 -0.1372 -0.3533 -0.7945
 2923TIP3    H1 8775   5.046   3.145   5.109 -1.6940 -1.1543 -1.3221
 2923TIP3    H2 8776   5.113   3.252   5.026  0.6376 -0.7832  0.9067
 2924TIP3   OH2 8777   4.880   5.903   4.302 -0.5957 -0.2453  0.0303
 2924TIP3    H1 8778   4.831   5.982   4.325  0.5409  0.1286  1.2453
 2924TIP3    H2 8779   4.860   5.889   4.209 -0.6948  1.5497 -0.2527
 2925TIP3   OH2 8780   2.555   3.855   0.952 -0.0721 -0.1680 -0.5144
 2925TIP3    H1 8781   2.524   3.944   0.961  0.0563 -0.1130 -0.6063
 2925TIP3    H2 8782   2.640   3.863   0.908  0.4159 -0.2621  0.3939
 2926TIP3   OH2 8783   2.638   5.020   2.007  0.3969 -0.0580 -0.3993
 2926TIP3    H1 8784   2.577   4.947   1.998  0.5322 -0.1180 -0.8549
 2926TIP3    H2 8785   2.604   5.071   2.081 -0.1433 -0.1492 -0.5790
 2927TIP3   OH2 8786   3.714   2.062   1.846 -0.1440 -0.1801 -0.5240
 2927TIP3    H1 8787   3.797   2.099   1.815  0.1289  0.3022  0.7613
 2927TIP3    H2 8788   3.724   1.968   1.832  0.7281 -0.1538 -0.1311
 2928TIP3   OH2 8789   5.626   1.861   1.846 -0.2437 -0.7895  0.0620
 2928TIP3    H1 8790   5.573   1.782   1.861  0.3806 -1.0476  1.0271
 2928TIP3    H2 8791   5.712   1.838   1.881  0.3370 -0.1526 -0.9237
 2929TIP3   OH2 8792   0.429   0.047   0.040  0.2457 -0.0996 -0.0304
 2929TIP3    H1 8793   0.504   0.102   0.020  1.1089 -0.7451  1.3094
 2929TIP3    H2 8794   0.429  -0.021  -0.028  0.6961  0.0782 -0.2057
 2930TIP3   OH2 8795   4.042   2.355   2.534 -0.2964 -0.2657 -0.2453
 2930TIP3    H1 8796   4.124   2.339   2.580 -0.0112 -2.6956 -1.4407
 2930TIP3    H2 8797   3.997   2.421   2.587  2.1785  0.8035  0.6912
 2931TIP3   OH2 8798   4.661   3.935   3.892  0.1262 -0.3773  0.1532
 2931TIP3    H1 8799   4.643   3.951   3.800 -0.5832 -1.8278  0.0181
 2931TIP3    H2 8800   4.748   3.895   3.893  1.0885  1.6120  0.3335
 2932TIP3   OH2 8801   3.853   1.622   0.409  0.5164 -0.2799 -0.0767
 2932TIP3    H1 8802   3.861   1.620   0.314  1.9356 -0.2329  0.0246
 2932TIP3    H2 8803   3.779   1.563   0.428  0.2031 -0.2627 -1.1980
 2933TIP3   OH2 8804   2.533   3.108   0.308  0.4052 -0.1545 -0.9196
 2933TIP3    H1 8805   2.445   3.146   0.304  0.4319 -0.1133 -1.1431
 2933TIP3    H2 8806   2.531   3.052   0.386  0.1634 -0.1962 -0.9518
 2934TIP3   OH2 8807   4.928   0.988   4.465  0.0497 -0.1768 -0.0892
 2934TIP3    H1 8808   4.951   1.051   4.397 -0.7691 -0.1218 -0.3232
 2934TIP3    H2 8809   4.838   1.010   4.489 -0.3365 -1.4006 -0.3454
 2935TIP3   OH2 8810   1.803   5.235   2.003  0.4956 -0.5734  0.4775
 2935TIP3    H1 8811   1.786   5.246   1.910  1.5532 -0.5616  0.2810
 2935TIP3    H2 8812   1.840   5.319   2.031 -0.7537 -0.2018  1.1491
 2936TIP3   OH2 8813   2.607   0.028   2.226  0.4831  0.4280 -0.0593
 2936TIP3    H1 8814   2.624   0.121   2.208  0.3465  0.5701  0.5249
 2936TIP3    H2 8815   2.592   0.025   2.321  0.9178 -0.2545 -0.0071
 2937TIP3   OH2 8816   5.145   1.966   1.333  0.0493 -0.1995  0.0894
 2937TIP3    H1 8817   5.161   2.001   1.420  0.5644  0.8005 -0.3897
 2937TIP3    H2 8818   5.118   1.876   1.348  0.5613 -0.1747  1.2545
 2938TIP3   OH2 8819   3.060   1.587   3.466  0.1209  0.0868 -0.0610
 2938TIP3    H1 8820   3.089   1.670   3.427  0.3807 -0.3611 -0.8627
 2938TIP3    H2 8821   2.997   1.552   3.403  0.5274 -0.6413 -0.0792
 2939TIP3   OH2 8822   2.273   2.624   2.400 -0.9069  0.2912 -0.4120
 2939TIP3    H1 8823   2.366   2.630   2.377 -0.4181 -0.0357  1.3434
 2939TIP3    H2 8824   2.273   2.587   2.488 -2.7478 -0.4138 -0.6748
 2940TIP3   OH2 8825   4.108   2.220   0.681  0.2190  0.1240  0.0638
 2940TIP3    H1 8826   4.062   2.270   0.747  1.0322 -0.5721  1.2044
 2940TIP3    H2 8827   4.039   2.176   0.631 -0.4345  1.2963 -0.0920
 2941TIP3   OH2 8828   1.501   1.721   4.941 -0.0146 -0.0173  0.1910
 2941TIP3    H1 8829   1.508   1.659   5.013  0.5860 -0.0371  0.1232
 2941TIP3    H2 8830   1.427   1.777   4.964 -0.9771 -1.1577 -0.0607
 2942TIP3   OH2 8831   0.336   1.103   2.972  0.0506 -0.1032  0.2553
 2942TIP3    H1 8832   0.297   1.188   2.952 -0.6983 -0.3338  0.6946
 2942TIP3    H2 8833   0.311   1.047   2.899 -0.5031 -0.2667  0.5660
 2943TIP3   OH2 8834   5.257   4.635   1.191  0.1066 -0.1482 -0.0990
 2943TIP3    H1 8835   5.240   4.713   1.138  1.6705 -0.4027 -1.0346
 2943TIP3    H2 8836   5.201   4.568   1.152 -1.8809  0.6432  1.2334
 2944TIP3   OH2 8837   5.502   0.716   4.260 -0.1676 -0.5274 -0.4948
 2944TIP3    H1 8838   5.577   0.752   4.308 -2.2615 -0.3869  2.9993
 2944TIP3    H2 8839   5.440   0.789   4.256 -1.1046 -1.3450 -1.0939
 2945TIP3   OH2 8840   4.528   3.710   3.442 -0.8592 -0.5335 -0.0329
 2945TIP3    H1 8841   4.458   3.696   3.506 -0.5975  0.1176  0.4080
 2945TIP3    H2 8842   4.489   3.766   3.375 -0.3047  1.2471  1.0708
 2946TIP3   OH2 8843   0.759   5.758   4.933 -0.3473  0.4653  0.2982
 2946TIP3    H1 8844   0.776   5.796   4.846 -0.1859 -0.5010 -0.1064
 2946TIP3    H2 8845   0.698   5.819   4.974 -0.8756  0.6460 -0.7236
 2947TIP3   OH2 8846   6.271   1.245   1.537 -0.2929 -0.0816 -0.0136
 2947TIP3    H1 8847   6.271   1.266   1.444  1.2064  0.6226  0.1199
 2947TIP3    H2 8848   6.256   1.150   1.540  0.3824 -0.2377 -1.0065
 2948TIP3   OH2 8849   0.106   0.669   5.085  0.1819 -0.0176  0.1898
 2948TIP3    H1 8850   0.055   0.649   5.164  0.7056  0.6448  0.7089
 2948TIP3    H2 8851   0.173   0.730   5.115 -0.0406  0.8016 -0.9131
 2949TIP3   OH2 8852   2.097   5.421   2.583  0.2186  0.2957 -0.1089
 2949TIP3    H1 8853   2.164   5.353   2.573  0.2268  0.0709  1.2829
 2949TIP3    H2 8854   2.146   5.503   2.582  0.3998  0.1882 -0.0901
 2950TIP3   OH2 8855   2.099   1.275   0.367 -0.1780  0.4279 -0.5818
 2950TIP3    H1 8856   2.154   1.303   0.440  2.3861  0.0846 -2.2530
 2950TIP3    H2 8857   2.078   1.356   0.321 -2.6635  0.7723  0.9883
 2951TIP3   OH2 8858   6.245   2.334   1.292  0.0809  0.3681 -0.5861
 2951TIP3    H1 8859   6.272   2.426   1.291  0.5184  0.2431 -0.9376
 2951TIP3    H2 8860   6.319   2.287   1.332 -0.6145  0.2992  0.6567
 2952TIP3   OH2 8861   4.118   5.549   2.450 -0.0455 -0.1228 -0.1369
 2952TIP3    H1 8862   4.180   5.582   2.384 -0.2273 -1.3712 -0.9769
 2952TIP3    H2 8863   4.173   5.504   2.514 -0.0039 -0.3699 -0.3467
 2953TIP3   OH2 8864   2.139   2.220   2.764  0.2714 -0.0395  0.2076
 2953TIP3    H1 8865   2.073   2.225   2.834 -1.4114  0.1030 -1.3148
 2953TIP3    H2 8866   2.107   2.279   2.697  0.5417 -1.9466 -1.7022
 2954TIP3   OH2 8867   2.374   4.265   0.665  0.0979 -0.0453 -0.1930
 2954TIP3    H1 8868   2.441   4.321   0.707  0.7091 -1.4560  0.7770
 2954TIP3    H2 8869   2.295   4.279   0.717  0.1698  0.1298 -0.1293
 2955TIP3   OH2 8870   3.497   1.825   2.450 -0.4042 -0.2763 -0.4370
 2955TIP3    H1 8871   3.424   1.770   2.476 -0.5678  0.5183  0.8863
 2955TIP3    H2 8872   3.575   1.773   2.470 -0.5832 -0.5482 -0.4461
 2956TIP3   OH2 8873   1.562   1.981   3.752 -0.0805 -0.5867 -0.6634
 2956TIP3    H1 8874   1.650   1.953   3.727 -0.6518 -1.8174 -1.4108
 2956TIP3    H2 8875   1.510   1.969   3.672 -1.2458 -1.3742  0.1826
 2957TIP3   OH2 8876   0.706   5.589   3.176 -0.4570 -0.6539  0.0990
 2957TIP3    H1 8877   0.672   5.500   3.175 -0.9876 -0.4510 -0.2047
 2957TIP3    H2 8878   0.629   5.644   3.192  0.3718 -0.4829  4.8450
 2958TIP3   OH2 8879   5.902   0.673   0.574  0.3400  0.6931 -0.5723
 2958TIP3    H1 8880   5.988   0.633   0.558 -0.6418 -1.2330 -1.3985
 2958TIP3    H2 8881   5.850   0.604   0.615 -0.7238  1.9453  0.2955
 2959TIP3   OH2 8882   0.502   2.935   0.630 -0.1323 -0.0267 -0.3016
 2959TIP3    H1 8883   0.533   3.018   0.592  2.2464 -0.1414  1.1550
 2959TIP3    H2 8884   0.582   2.883   0.641 -1.0329 -1.0505  2.2218
 2960TIP3   OH2 8885   1.244   1.008   2.966  0.7623 -0.1026  0.7486
 2960TIP3    H1 8886   1.166   1.062   2.951  0.1637 -1.3692 -1.1876
 2960TIP3    H2 8887   1.314   1.053   2.918  0.4749 -0.5173 -0.0909
 2961TIP3   OH2 8888   4.100   4.873   4.756  0.3802 -0.2048  0.1203
 2961TIP3    H1 8889   4.020   4.862   4.808 -0.9335  0.4504 -1.6541
 2961TIP3    H2 8890   4.170   4.839   4.812 -1.0745 -0.4499  1.8875
 2962TIP3   OH2 8891   0.228   0.620   1.207  0.4382 -0.4770 -0.7636
 2962TIP3    H1 8892   0.236   0.552   1.274  0.7785 -1.3010 -1.6198
 2962TIP3    H2 8893   0.135   0.623   1.186 -0.1918  1.8040  1.7449
 2963TIP3   OH2 8894   0.249   5.362   0.494 -0.0117  0.6162  0.1565
 2963TIP3    H1 8895   0.252   5.276   0.451 -0.3182  1.2072 -1.0719
 2963TIP3    H2 8896   0.237   5.424   0.423 -2.1503  1.5092  1.2183
 2964TIP3   OH2 8897   5.105   4.784   4.348 -0.3348 -0.1633 -0.2183
 2964TIP3    H1 8898   5.086   4.831   4.267 -0.0052  0.6026  0.1293
 2964TIP3    H2 8899   5.102   4.852   4.416 -1.1929 -0.8936  0.4991
 2965TIP3   OH2 8900   1.197   0.540   2.657 -0.0669 -0.0572  0.1136
 2965TIP3    H1 8901   1.189   0.615   2.716 -0.7403 -0.5678  0.7112
 2965TIP3    H2 8902   1.112   0.535   2.613 -0.1886 -0.6948  0.3933
 2966TIP3   OH2 8903   0.526   3.132   0.275 -0.1655  0.1590  0.9008
 2966TIP3    H1 8904   0.598   3.163   0.221  0.1053  0.3984  1.3891
 2966TIP3    H2 8905   0.542   3.038   0.285 -0.1459  0.1388  0.6724
 2967TIP3   OH2 8906   3.155   4.349   2.295  0.3994 -0.2777  0.4227
 2967TIP3    H1 8907   3.239   4.304   2.291  0.7300  0.3413  0.2980
 2967TIP3    H2 8908   3.141   4.384   2.207  0.3775  0.2696  0.6374
 2968TIP3   OH2 8909   1.509   0.350   2.457  0.2724  0.0691  0.8572
 2968TIP3    H1 8910   1.562   0.420   2.419 -0.1113 -0.2697 -0.3514
 2968TIP3    H2 8911   1.561   0.271   2.444 -1.1126 -0.5463 -1.8576
 2969TIP3   OH2 8912   0.167   0.516   1.627  0.2439  0.6025  0.2200
 2969TIP3    H1 8913   0.200   0.601   1.658  0.7974  0.3422  0.3643
 2969TIP3    H2 8914   0.225   0.452   1.667  0.5687  0.2196 -0.8157
 2970TIP3   OH2 8915   5.039   5.396   3.276 -0.1280  0.1055 -0.0817
 2970TIP3    H1 8916   5.016   5.453   3.350 -0.9226  0.7314 -0.7928
 2970TIP3    H2 8917   5.055   5.457   3.204  0.8531 -0.4917 -0.3818
 2971TIP3   OH2 8918   2.733   5.874   0.758  0.1144  0.5093 -0.2264
 2971TIP3    H1 8919   2.684   5.923   0.693 -0.9646  0.9069  0.8640
 2971TIP3    H2 8920   2.758   5.793   0.712 -1.4674  0.3382 -0.8495
 2972TIP3   OH2 8921   2.080   0.895   4.816 -1.2836  0.2789  0.0644
 2972TIP3    H1 8922   1.993   0.924   4.843 -2.0061 -2.0339  0.4135
 2972TIP3    H2 8923   2.139   0.929   4.883 -2.1160  0.6756  0.6023
 2973TIP3   OH2 8924   6.219   1.157   2.800  0.4584 -0.4616  0.0658
 2973TIP3    H1 8925   6.272   1.226   2.760  1.2671 -1.5877 -0.8869
 2973TIP3    H2 8926   6.151   1.138   2.736 -1.7790  1.6310  1.6781
 2974TIP3   OH2 8927   0.919   2.525   0.250 -0.2093 -0.5144 -0.7229
 2974TIP3    H1 8928   0.966   2.603   0.220  0.0843  0.1604  1.3324
 2974TIP3    H2 8929   0.983   2.454   0.244  0.0181 -0.2828 -1.0762
 2975TIP3   OH2 8930   3.981   3.560   1.699  0.1045 -0.4870 -0.0140
 2975TIP3    H1 8931   3.909   3.528   1.645  1.1277 -0.5345 -1.4134
 2975TIP3    H2 8932   4.053   3.498   1.681  0.8504  0.2314  0.4285
 2976TIP3   OH2 8933   0.478   5.570   2.965  0.3184  0.1283  0.6933
 2976TIP3    H1 8934   0.423   5.531   3.033 -0.0930  0.2130  0.4151
 2976TIP3    H2 8935   0.496   5.659   2.996  3.1687 -0.9490  2.4450
 2977TIP3   OH2 8936   5.051   4.921   1.400  0.1536 -0.2472  0.2400
 2977TIP3    H1 8937   5.020   5.000   1.357 -0.7128 -1.2217 -1.0098
 2977TIP3    H2 8938   5.067   4.947   1.491 -2.7601  0.7450  0.5660
 2978TIP3   OH2 8939   3.540   1.727   0.607 -0.3952  0.3831 -0.3480
 2978TIP3    H1 8940   3.502   1.639   0.610  1.1683 -0.3152 -0.0937
 2978TIP3    H2 8941   3.515   1.761   0.521 -0.7054 -0.4404 -0.5899
 2979TIP3   OH2 8942   1.523   1.123   0.062  0.2854  0.4386  1.0648
 2979TIP3    H1 8943   1.470   1.187   0.110 -0.0100  1.1357 -0.1509
 2979TIP3    H2 8944   1.472   1.042   0.065  0.5717  0.2797  2.4527
 2980TIP3   OH2 8945   5.078   0.226   4.427  1.0947  0.1280  0.5944
 2980TIP3    H1 8946   5.162   0.201   4.389  0.1928  0.1110 -1.4880
 2980TIP3    H2 8947   5.013   0.200   4.362 -0.4674  0.9923  1.7339
 2981TIP3   OH2 8948   4.959   2.466   1.979 -0.0130  0.2353  0.0550
 2981TIP3    H1 8949   4.911   2.535   1.934 -0.8655 -1.2400 -1.3773
 2981TIP3    H2 8950   5.049   2.476   1.948 -0.3455  0.0433 -1.0151
 2982TIP3   OH2 8951   6.246   5.113   2.421 -0.2935 -0.2855 -0.1359
 2982TIP3    H1 8952   6.171   5.061   2.394 -0.0103 -1.5180  1.3097
 2982TIP3    H2 8953   6.229   5.135   2.513  1.2030 -0.8220  0.3004
 2983TIP3   OH2 8954   1.624   1.298   1.892  0.0921  0.4236  0.4603
 2983TIP3    H1 8955   1.673   1.216   1.880 -0.5421  0.1451 -0.2857
 2983TIP3    H2 8956   1.648   1.351   1.816  1.0278  1.2149  1.2863
 2984TIP3   OH2 8957   2.555   5.568   4.756  0.1247  0.3808 -0.1948
 2984TIP3    H1 8958   2.586   5.618   4.831  0.1817 -1.5411  1.1080
 2984TIP3    H2 8959   2.565   5.628   4.682  3.0564  1.2810  0.7960
 2985TIP3   OH2 8960   1.885   5.394   0.238 -0.2436 -0.5286 -0.1798
 2985TIP3    H1 8961   1.951   5.461   0.220 -0.0691 -0.7281 -0.2770
 2985TIP3    H2 8962   1.814   5.442   0.281 -1.1070  0.1518 -2.2423
 2986TIP3   OH2 8963   5.822   1.074   0.907 -0.7993  0.2899  0.3473
 2986TIP3    H1 8964   5.768   1.046   0.833 -0.4160 -0.7826  0.4482
 2986TIP3    H2 8965   5.761   1.078   0.981 -0.8114 -0.6228  0.3958
 2987TIP3   OH2 8966   4.594   4.519   3.322 -0.5202 -0.5174  0.8342
 2987TIP3    H1 8967   4.613   4.425   3.323 -1.3727 -0.6939  1.1250
 2987TIP3    H2 8968   4.680   4.561   3.329 -0.1522 -1.2759  0.9598
 2988TIP3   OH2 8969   3.689   1.211   2.169 -0.3260  0.1363 -0.3066
 2988TIP3    H1 8970   3.767   1.194   2.222  0.0230  1.7197 -0.2649
 2988TIP3    H2 8971   3.653   1.292   2.205 -1.1876  0.1894 -1.2506
 2989TIP3   OH2 8972   4.852   1.618   4.358  0.4010  0.0490  0.0267
 2989TIP3    H1 8973   4.783   1.658   4.411  0.2004 -0.0645 -0.1473
 2989TIP3    H2 8974   4.878   1.540   4.408  1.3758  0.8320  0.7847
 2990TIP3   OH2 8975   4.975   5.444   3.523  0.1959 -0.1499 -0.1845
 2990TIP3    H1 8976   5.036   5.442   3.596  1.1945 -0.2781 -1.0106
 2990TIP3    H2 8977   4.922   5.365   3.534 -0.8598  0.7376  1.3820
 2991TIP3   OH2 8978   1.017   3.912   2.941  0.9386  0.5799 -0.2444
 2991TIP3    H1 8979   0.925   3.897   2.921  0.9481  0.7312 -0.3952
 2991TIP3    H2 8980   1.062   3.833   2.910  0.7095 -0.0396  0.9216
 2992TIP3   OH2 8981   4.040   5.420   0.057  0.1135  0.2588  0.2311
 2992TIP3    H1 8982   3.990   5.400   0.137  1.2640 -1.5706  0.5346
 2992TIP3    H2 8983   4.106   5.483   0.086 -0.9011  1.3768  0.1913
 2993TIP3   OH2 8984   2.155   4.528   4.038  0.2886  0.2305  0.0492
 2993TIP3    H1 8985   2.087   4.564   3.981  0.6517  0.4414 -0.2635
 2993TIP3    H2 8986   2.233   4.580   4.017  0.1070  1.2185  1.7146
 2994TIP3   OH2 8987   5.231   5.976   2.862  0.6184  0.0770  0.3007
 2994TIP3    H1 8988   5.196   5.977   2.773  0.4106  1.8517  0.3659
 2994TIP3    H2 8989   5.179   6.041   2.909  0.2359 -1.3575  1.9416
 2995TIP3   OH2 8990   3.801   2.235   0.156  0.0853 -0.1695  0.0491
 2995TIP3    H1 8991   3.814   2.142   0.140 -1.1852 -0.6687  1.6713
 2995TIP3    H2 8992   3.888   2.273   0.147  0.4106 -1.2585 -1.9673
 2996TIP3   OH2 8993   1.940   2.033   1.310  0.0142 -0.4566  0.2558
 2996TIP3    H1 8994   1.856   2.001   1.343 -1.1002  0.9202 -1.0985
 2996TIP3    H2 8995   1.943   2.125   1.336 -0.5485  0.4693 -2.6077
 2997TIP3   OH2 8996   4.295   1.856   0.234  0.4942 -0.1195 -0.8960
 2997TIP3    H1 8997   4.280   1.848   0.328  0.2579 -0.7979 -0.9863
 2997TIP3    H2 8998   4.217   1.819   0.194  0.6185  0.1127 -1.3629
 2998TIP3   OH2 8999   6.280   0.267   4.535  0.6103  0.2458  0.4559
 2998TIP3    H1 9000   6.305   0.242   4.446 -4.7237 -1.0414 -1.0390
 2998TIP3    H2 9001   6.282   0.363   4.534 -0.8710  0.3344 -1.7409
 2999TIP3   OH2 9002   0.708   1.824   2.854  0.3844  0.0033  0.7712
 2999TIP3    H1 9003   0.790   1.874   2.854 -1.4379  3.2841  0.8989
 2999TIP3    H2 9004   0.694   1.800   2.762  1.5102 -0.7209  0.7713
 3000TIP3   OH2 9005   2.727   1.155   0.873 -0.4808  0.5073 -0.3034
 3000TIP3    H1 9006   2.803   1.193   0.917  0.1279 -0.5497 -0.4156
 3000TIP3    H2 9007   2.684   1.103   0.940  0.7599 -1.5610 -1.0389
 3001TIP3   OH2 9008   5.045   0.634   3.090 -0.1376  0.1893 -0.5493
 3001TIP3    H1 9009   4.974   0.571   3.076 -0.6095  0.9801 -1.8957
 3001TIP3    H2 9010   5.074   0.618   3.180 -0.4540 -1.7148 -0.7464
 3002TIP3   OH2 9011   3.535   4.797   3.170  0.2900 -0.1136 -0.1048
 3002TIP3    H1 9012   3.539   4.787   3.265 -0.7369  0.7692  0.0415
 3002TIP3    H2 9013   3.626   4.787   3.142  0.3236 -2.8750  0.6725
 3003TIP3   OH2 9014   5.715   3.146   4.291  0.2593 -0.2046  0.0028
 3003TIP3    H1 9015   5.676   3.191   4.366  1.4044 -0.0601  0.5291
 3003TIP3    H2 9016   5.671   3.061   4.289 -0.7460  0.2903  0.0005
 3004TIP3   OH2 9017   1.676   1.876   0.992  0.0146 -0.4752  0.5000
 3004TIP3    H1 9018   1.771   1.890   0.998 -0.0346 -0.1476  0.5201
 3004TIP3    H2 9019   1.638   1.952   1.036 -0.2166 -1.8704  2.9153
 3005TIP3   OH2 9020   0.392   1.794   0.289 -0.8678 -0.1440 -0.2405
 3005TIP3    H1 9021   0.338   1.723   0.322 -1.3365 -0.0395 -0.7722
 3005TIP3    H2 9022   0.442   1.824   0.365 -0.1831 -1.4588 -0.1338
 3006TIP3   OH2 9023   2.662   1.517   1.980 -0.0058  0.1193  0.0189
 3006TIP3    H1 9024   2.590   1.457   1.960 -1.8951  1.8904  1.0240
 3006TIP3    H2 9025   2.670   1.514   2.076  1.1577  0.0835 -0.0678
 3007TIP3   OH2 9026   4.410   3.753   2.983 -0.0363 -0.1507  0.2555
 3007TIP3    H1 9027   4.405   3.795   2.897 -0.1072 -0.5064  0.0869
 3007TIP3    H2 9028   4.391   3.661   2.967  3.2855 -0.9380  0.1266
 3008TIP3   OH2 9029   0.479   4.426   2.824  0.0846  0.2400 -0.0395
 3008TIP3    H1 9030   0.493   4.520   2.830 -0.2044  0.2429  0.6341
 3008TIP3    H2 9031   0.521   4.401   2.741 -0.8911  1.1405 -0.8294
 3009TIP3   OH2 9032   0.901   2.014   3.281  0.3474 -0.0891 -0.3022
 3009TIP3    H1 9033   0.966   1.986   3.216  0.1513  0.2417 -0.6463
 3009TIP3    H2 9034   0.923   1.964   3.360  0.5366 -0.5625 -0.6470
 3010TIP3   OH2 9035   1.633   4.428   5.015 -0.3368 -0.4193  0.5155
 3010TIP3    H1 9036   1.638   4.335   5.036 -2.8718 -0.6333  0.4963
 3010TIP3    H2 9037   1.559   4.460   5.066  0.5981  1.6647  0.6609
 3011TIP3   OH2 9038   1.516   0.026   2.271 -0.1135 -0.1310  0.2070
 3011TIP3    H1 9039   1.575  -0.007   2.203 -1.5027  0.6894 -1.4749
 3011TIP3    H2 9040   1.477   0.104   2.232 -1.1853  0.1975  1.8624
 3012TIP3   OH2 9041   0.850   1.313   1.991  0.3845 -0.0136 -0.4294
 3012TIP3    H1 9042   0.797   1.247   1.947 -0.0577  0.0674 -0.0340
 3012TIP3    H2 9043   0.933   1.314   1.943  0.6606 -1.3393 -0.0279
 3013TIP3   OH2 9044   3.283   4.898   1.850 -0.1391  0.4086 -0.2638
 3013TIP3    H1 9045   3.315   4.906   1.940  0.9000  0.9504 -0.6689
 3013TIP3    H2 9046   3.231   4.977   1.836  0.3621  0.7236 -0.3887
 3014TIP3   OH2 9047   3.930   3.885   4.617  0.0837  0.1206  0.6377
 3014TIP3    H1 9048   3.918   3.977   4.641  1.3852  0.7863 -1.0574
 3014TIP3    H2 9049   4.025   3.871   4.626  0.3243 -0.1948 -1.7913
 3015TIP3   OH2 9050   1.182   2.406   0.947 -0.0383 -0.0861  0.5640
 3015TIP3    H1 9051   1.173   2.351   1.025 -1.1118 -0.9236 -0.1286
 3015TIP3    H2 9052   1.148   2.491   0.973  0.0274 -0.2318  1.1355
 3016TIP3   OH2 9053   0.282   1.399   3.213  0.2543 -0.0520 -0.3621
 3016TIP3    H1 9054   0.256   1.429   3.126 -1.7979  2.0695  0.8531
 3016TIP3    H2 9055   0.202   1.364   3.251 -0.1869  3.2023  2.1845
 3017TIP3   OH2 9056   1.277   4.609   2.089 -0.4697  0.5730  0.2243
 3017TIP3    H1 9057   1.320   4.554   2.155 -0.6688 -1.3260 -1.1578
 3017TIP3    H2 9058   1.330   4.689   2.087 -0.3676  0.6361  2.5448
 3018TIP3   OH2 9059   5.244   5.557   0.744  0.2208 -0.1122 -0.3768
 3018TIP3    H1 9060   5.217   5.635   0.793  0.9076 -0.6972  0.9797
 3018TIP3    H2 9061   5.247   5.586   0.653 -2.6972  0.5733 -0.3550
 3019TIP3   OH2 9062   2.471   4.405   2.237  0.3861 -0.3733  0.0627
 3019TIP3    H1 9063   2.544   4.419   2.298  0.1828  2.6179 -0.2296
 3019TIP3    H2 9064   2.415   4.482   2.249 -2.4893 -2.2878 -0.1415
 3020TIP3   OH2 9065   5.281   0.090   1.374 -0.1797 -0.2103  0.0451
 3020TIP3    H1 9066   5.336   0.017   1.345  1.8169  1.0710  0.3733
 3020TIP3    H2 9067   5.250   0.130   1.293  0.3818 -0.2407 -0.1916
 3021TIP3   OH2 9068   5.278   0.235   1.981 -0.3261  0.1305  0.0430
 3021TIP3    H1 9069   5.234   0.162   1.939  0.7086 -0.3779 -0.1805
 3021TIP3    H2 9070   5.370   0.225   1.958 -0.3136  2.2238 -1.0741
 3022TIP3   OH2 9071   4.557   5.720   0.687  0.0366 -0.0869  0.6553
 3022TIP3    H1 9072   4.537   5.713   0.594 -0.7789  2.0795  0.6062
 3022TIP3    H2 9073   4.648   5.749   0.691 -0.7837  2.7687  0.3559
 3023TIP3   OH2 9074   3.444   3.799   2.868 -0.3679  0.3032  0.0967
 3023TIP3    H1 9075   3.444   3.761   2.780 -1.1233  0.9085 -0.1780
 3023TIP3    H2 9076   3.354   3.831   2.880 -0.5326 -0.5985  1.4580
 3024TIP3   OH2 9077   1.361   0.482   4.064  0.4023  0.1072  0.1419
 3024TIP3    H1 9078   1.274   0.452   4.039 -0.4959  1.3860  1.5274
 3024TIP3    H2 9079   1.412   0.402   4.074 -1.1068 -0.7911  1.0019
 3025TIP3   OH2 9080   4.368   2.765   3.301  0.1280  0.1090 -0.2859
 3025TIP3    H1 9081   4.301   2.734   3.361  0.5657 -0.6994 -0.2001
 3025TIP3    H2 9082   4.439   2.796   3.357  1.4857 -2.6675 -0.2822
 3026TIP3   OH2 9083   5.647   5.415   1.956 -0.1393 -0.5298  0.4555
 3026TIP3    H1 9084   5.610   5.415   1.868  1.5051 -0.7491 -0.2803
 3026TIP3    H2 9085   5.700   5.495   1.959 -0.6550 -0.2196  1.4584
 3027TIP3   OH2 9086   6.138   2.605   2.862 -0.2025  0.0997 -0.0778
 3027TIP3    H1 9087   6.084   2.531   2.889 -0.4772  0.1532 -0.4851
 3027TIP3    H2 9088   6.141   2.661   2.940 -2.2283  0.9848 -0.5775
 3028TIP3   OH2 9089   5.535   1.436   3.346 -0.1732  0.5379  0.9005
 3028TIP3    H1 9090   5.547   1.366   3.282 -2.5181  0.3742  0.5398
 3028TIP3    H2 9091   5.540   1.516   3.294  1.2812  0.5908  1.1049
 3029TIP3   OH2 9092   1.193   2.810   3.791  0.2379  0.2258  0.4945
 3029TIP3    H1 9093   1.226   2.796   3.880  1.0085 -1.2851  0.0001
 3029TIP3    H2 9094   1.246   2.882   3.757  0.3392  0.4218  1.0525
 3030TIP3   OH2 9095   0.817   5.961   3.224  0.2274 -0.3585 -0.1218
 3030TIP3    H1 9096   0.749   5.926   3.282  0.4763 -0.8500 -0.1278
 3030TIP3    H2 9097   0.774   6.035   3.180  0.1879  0.3372  1.0511
 3031TIP3   OH2 9098   1.813  -0.013   1.726  0.4842  0.1731 -0.4319
 3031TIP3    H1 9099   1.837   0.070   1.767  0.4963 -0.4066  0.7977
 3031TIP3    H2 9100   1.842  -0.005   1.636 -1.9388  2.5556 -1.1285
 3032TIP3   OH2 9101   5.267   5.507   4.716 -0.2992  0.9302 -0.2571
 3032TIP3    H1 9102   5.343   5.545   4.670  0.3550  1.8777  1.5221
 3032TIP3    H2 9103   5.304   5.470   4.796 -1.6102  0.6625  0.2483
 3033TIP3   OH2 9104   0.728   2.307   3.799 -0.1609  0.4434  0.3620
 3033TIP3    H1 9105   0.741   2.344   3.712  2.1431 -0.7600  0.1088
 3033TIP3    H2 9106   0.780   2.226   3.799 -0.7153  0.0094  2.6015
 3034TIP3   OH2 9107   0.216   3.837   4.692 -0.6209  0.0483  0.2827
 3034TIP3    H1 9108   0.310   3.821   4.687 -0.5951 -0.1568  1.2396
 3034TIP3    H2 9109   0.204   3.924   4.653 -0.2557 -0.5765 -1.3354
 3035TIP3   OH2 9110   2.609   0.873   0.880  0.0185  0.4996 -0.3866
 3035TIP3    H1 9111   2.701   0.897   0.886  0.9872 -2.9960  0.7881
 3035TIP3    H2 9112   2.587   0.839   0.966 -1.9382 -0.1702 -1.0966
 3036TIP3   OH2 9113   1.694   0.527   0.218 -0.1713  0.2089  0.2625
 3036TIP3    H1 9114   1.786   0.499   0.222 -0.3302 -1.1229 -2.6402
 3036TIP3    H2 9115   1.690   0.585   0.142 -1.7522  0.1090  0.2406
 3037TIP3   OH2 9116   5.411   5.313   3.368  0.2816  0.2255  0.2436
 3037TIP3    H1 9117   5.413   5.278   3.279  0.5548 -0.5581  0.5512
 3037TIP3    H2 9118   5.318   5.329   3.385  0.1145 -0.6870  0.2174
 3038TIP3   OH2 9119   2.590   4.173   2.992  0.1938  0.0359 -0.4749
 3038TIP3    H1 9120   2.647   4.105   3.028 -1.6455 -1.0262  0.5520
 3038TIP3    H2 9121   2.576   4.233   3.065 -1.6080 -0.8221 -0.0754
 3039TIP3   OH2 9122   3.514   1.208   3.278 -0.1100 -0.9481 -0.0039
 3039TIP3    H1 9123   3.484   1.244   3.361 -0.2416 -0.8540 -0.0920
 3039TIP3    H2 9124   3.457   1.248   3.212  2.2971  1.8451 -0.5922
 3040TIP3   OH2 9125   6.197   3.669   4.977  0.2327 -0.5986 -0.2275
 3040TIP3    H1 9126   6.175   3.728   5.050 -0.4486 -2.1447  0.8568
 3040TIP3    H2 9127   6.116   3.663   4.926  0.5415  0.0283 -0.8012
 3041TIP3   OH2 9128   1.720   3.851   0.777 -0.3571  0.1946 -0.4024
 3041TIP3    H1 9129   1.703   3.883   0.866  0.2066 -1.4110  0.3229
 3041TIP3    H2 9130   1.812   3.822   0.779 -0.4152 -0.1026 -1.4430
 3042TIP3   OH2 9131   6.244   0.496   1.924  0.5196 -0.3576  0.1111
 3042TIP3    H1 9132   6.176   0.562   1.910  1.1360  0.0362 -1.2215
 3042TIP3    H2 9133   6.222   0.456   2.008 -0.9350  0.2576  0.0523
 3043TIP3   OH2 9134   0.985   4.336   2.749  0.1361  0.5124  0.4013
 3043TIP3    H1 9135   1.036   4.415   2.734  1.9140 -0.6891 -0.1781
 3043TIP3    H2 9136   1.048   4.272   2.784 -0.7461 -1.2954 -1.1248
 3044TIP3   OH2 9137   3.203   0.338   1.593 -0.5194 -0.3070 -0.2880
 3044TIP3    H1 9138   3.140   0.290   1.647 -0.2113 -2.1593 -1.5077
 3044TIP3    H2 9139   3.157   0.354   1.511 -0.3606  0.8933 -0.1640
 3045TIP3   OH2 9140   3.137   2.595   3.505 -0.2318  0.4055 -0.0407
 3045TIP3    H1 9141   3.155   2.612   3.413 -1.1676  1.0706 -0.1124
 3045TIP3    H2 9142   3.043   2.576   3.508 -0.1786  0.2395  0.7606
 3046TIP3   OH2 9143   2.180   4.586   1.538 -0.2873 -0.0025 -0.6335
 3046TIP3    H1 9144   2.166   4.543   1.622 -0.1093 -1.2355 -1.2066
 3046TIP3    H2 9145   2.102   4.639   1.524 -0.3836  0.0911  0.2380
 3047TIP3   OH2 9146   2.030   1.563   5.083  0.1597  0.1712 -0.0967
 3047TIP3    H1 9147   2.021   1.615   5.003 -3.1427 -0.5504 -0.3211
 3047TIP3    H2 9148   2.050   1.474   5.052 -0.3131  0.0565 -0.0735
 3048TIP3   OH2 9149   5.522   1.680   4.290 -0.3539 -0.0619 -0.0486
 3048TIP3    H1 9150   5.517   1.584   4.295  1.1561 -0.0913  3.0241
 3048TIP3    H2 9151   5.607   1.697   4.250  0.2048 -0.0769  1.0831
 3049TIP3   OH2 9152   2.154   1.133   2.297 -0.1762  0.0562  0.0831
 3049TIP3    H1 9153   2.157   1.048   2.342 -0.2588 -1.8047 -3.1015
 3049TIP3    H2 9154   2.246   1.155   2.283 -0.1656  0.2830  0.4768
 3050TIP3   OH2 9155   0.936   5.436   4.652 -0.1278 -0.2779 -0.0321
 3050TIP3    H1 9156   0.929   5.397   4.564 -1.0393  0.2357 -0.2033
 3050TIP3    H2 9157   0.847   5.466   4.671  0.2379  0.3375  0.7390
 3051TIP3   OH2 9158   0.264   5.651   2.806 -0.1206 -0.3643 -0.8260
 3051TIP3    H1 9159   0.338   5.605   2.846  1.1587  1.4320 -0.9989
 3051TIP3    H2 9160   0.243   5.721   2.868 -0.3865  0.3268 -1.6744
 3052TIP3   OH2 9161   6.324   3.724   1.957  0.4460  0.0566  0.1525
 3052TIP3    H1 9162   6.368   3.639   1.959  0.8688  0.2781  0.1846
 3052TIP3    H2 9163   6.237   3.705   1.993  0.3956 -0.4418 -0.2218
 3053TIP3   OH2 9164   0.017   3.692   2.562 -0.3176 -0.0264  0.5977
 3053TIP3    H1 9165   0.037   3.664   2.472  0.1888  0.6260  0.5065
 3053TIP3    H2 9166  -0.054   3.633   2.589 -1.6455  0.8523 -0.8273
 3054TIP3   OH2 9167   5.887   3.674   1.320 -0.2718  0.5475 -0.0179
 3054TIP3    H1 9168   5.910   3.649   1.409 -1.3251  0.5939  0.2754
 3054TIP3    H2 9169   5.936   3.755   1.304 -1.8321  1.8267  1.3648
 3055TIP3   OH2 9170   3.414   1.422   2.316 -0.2648 -0.1270 -0.1742
 3055TIP3    H1 9171   3.504   1.402   2.340  0.4571  1.6234 -1.3009
 3055TIP3    H2 9172   3.379   1.471   2.391  0.5950  1.5361 -0.8348
 3056TIP3   OH2 9173   3.345   4.029   2.271  0.3263  0.2945  0.1159
 3056TIP3    H1 9174   3.337   3.955   2.211 -0.7628  0.2656  0.2686
 3056TIP3    H2 9175   3.285   4.007   2.343 -1.2348  2.0055 -0.5752
 3057TIP3   OH2 9176   5.828   0.808   0.244  0.4148 -0.1083  0.0098
 3057TIP3    H1 9177   5.834   0.720   0.281 -1.3853  0.3410  1.5102
 3057TIP3    H2 9178   5.818   0.793   0.150 -3.4253 -1.7684  0.5172
 3058TIP3   OH2 9179   4.527   5.434   0.237 -0.1414 -0.1295 -0.2492
 3058TIP3    H1 9180   4.567   5.360   0.283 -2.6967 -0.2957  1.9575
 3058TIP3    H2 9181   4.441   5.403   0.211 -0.4629  1.4363 -1.2190
 3059TIP3   OH2 9182   2.345   3.258   4.956 -0.3498 -0.7679 -0.1987
 3059TIP3    H1 9183   2.377   3.263   5.046 -0.4390 -0.6239 -0.1738
 3059TIP3    H2 9184   2.410   3.308   4.905  0.4254 -1.9631 -0.4210
 3060TIP3   OH2 9185   3.954   5.412   0.553 -0.2196  0.2297 -0.2848
 3060TIP3    H1 9186   4.043   5.424   0.584 -0.1609  0.4604 -0.5299
 3060TIP3    H2 9187   3.954   5.327   0.509  0.0264  0.4856 -0.7827
 3061TIP3   OH2 9188   1.609   0.177   1.257  0.0417  0.4834 -0.2440
 3061TIP3    H1 9189   1.686   0.141   1.212  0.7289  1.4350  0.1537
 3061TIP3    H2 9190   1.617   0.146   1.347  0.5683  1.4729  0.0698
 3062TIP3   OH2 9191   3.299   4.890   4.733  0.3537 -0.5538 -0.3595
 3062TIP3    H1 9192   3.359   4.897   4.807 -1.0945 -0.1723  0.8200
 3062TIP3    H2 9193   3.291   4.979   4.699 -0.6608 -0.3205  0.4333
 3063TIP3   OH2 9194   2.865   2.692   1.243 -0.3008 -0.0614  0.2206
 3063TIP3    H1 9195   2.823   2.712   1.327  0.1943  1.1190  0.2017
 3063TIP3    H2 9196   2.807   2.628   1.202 -0.9994  0.0011  1.0879
 3064TIP3   OH2 9197   2.515   2.749   2.269  0.6138 -0.2464  0.3086
 3064TIP3    H1 9198   2.536   2.832   2.312  0.4011 -0.7000  1.3073
 3064TIP3    H2 9199   2.599   2.718   2.235  0.5669  0.7627 -0.7946
 3065TIP3   OH2 9200   4.585   0.678   4.042 -0.4640  0.1254 -0.2262
 3065TIP3    H1 9201   4.679   0.666   4.029  0.2797  2.4576  2.0429
 3065TIP3    H2 9202   4.551   0.698   3.955  1.5821  1.3917 -0.8035
 3066TIP3   OH2 9203   6.175   5.793   2.718  0.0517 -0.0124  0.5451
 3066TIP3    H1 9204   6.233   5.717   2.707 -0.5956 -0.7876  2.1249
 3066TIP3    H2 9205   6.088   5.760   2.695 -0.1881  0.3376  0.9410
 3067TIP3   OH2 9206   4.967   2.950   1.875 -0.2745 -0.3610  0.0830
 3067TIP3    H1 9207   4.887   3.002   1.868 -0.9178 -1.4207 -0.6100
 3067TIP3    H2 9208   5.029   2.994   1.816 -0.4906  0.1832  0.2566
 3068TIP3   OH2 9209   5.753   3.320   1.729  0.9041 -0.5391 -0.0020
 3068TIP3    H1 9210   5.716   3.367   1.654  1.1589 -1.4438 -0.7172
 3068TIP3    H2 9211   5.839   3.290   1.698  0.5445 -1.8798  0.2621
 3069TIP3   OH2 9212   0.968   1.108   2.941  0.2339  0.1756  0.4867
 3069TIP3    H1 9213   0.975   1.055   3.020  0.1096  0.4645  0.6933
 3069TIP3    H2 9214   0.981   1.198   2.971 -1.0111  0.4150  0.3883
 3070TIP3   OH2 9215   4.143   5.708   0.967  0.0830  0.3400 -0.2293
 3070TIP3    H1 9216   4.106   5.620   0.971  0.7070  0.0610 -0.5851
 3070TIP3    H2 9217   4.234   5.697   0.997 -0.0912  1.0111  0.5923
 3071TIP3   OH2 9218   3.209   3.249   2.878  0.0975 -0.2444  0.2870
 3071TIP3    H1 9219   3.171   3.283   2.959  2.8279 -1.6937  2.3997
 3071TIP3    H2 9220   3.157   3.171   2.858 -1.7586  1.1487 -0.4823
 3072TIP3   OH2 9221   3.490   1.720   3.343  0.2049  0.0972 -0.5012
 3072TIP3    H1 9222   3.531   1.677   3.418  0.2253 -0.8118 -1.0137
 3072TIP3    H2 9223   3.446   1.796   3.380  0.2651 -0.3040  0.4287
 3073TIP3   OH2 9224   0.959   4.636   0.924  0.4143 -0.0580  0.0953
 3073TIP3    H1 9225   1.025   4.678   0.979 -0.0193 -0.0993  0.6579
 3073TIP3    H2 9226   0.978   4.543   0.930 -1.4801 -0.3752  2.7156
 3074TIP3   OH2 9227   2.924   4.762   0.820 -0.2236 -0.0579  0.5182
 3074TIP3    H1 9228   2.982   4.774   0.895 -0.4225 -0.9461  0.8279
 3074TIP3    H2 9229   2.927   4.846   0.773  0.0783  0.4274  1.3884
 3075TIP3   OH2 9230   4.938   3.512   3.305 -0.4334 -0.0965 -0.0313
 3075TIP3    H1 9231   4.962   3.468   3.387  1.2897  1.0320  0.1316
 3075TIP3    H2 9232   5.018   3.509   3.252 -1.2923 -0.1104 -1.3678
 3076TIP3   OH2 9233   5.928   0.856   3.275  0.1308 -0.5120 -0.0808
 3076TIP3    H1 9234   5.896   0.797   3.343  0.2701 -0.5677 -0.0644
 3076TIP3    H2 9235   5.907   0.811   3.193 -0.3719 -0.2778 -0.0885
 3077TIP3   OH2 9236   5.938   2.229   3.690  0.2194  0.1750  0.2668
 3077TIP3    H1 9237   5.901   2.169   3.754  0.4274 -0.1135  0.1181
 3077TIP3    H2 9238   5.940   2.314   3.734 -0.0526  0.0667  0.4849
 3078TIP3   OH2 9239   3.766   3.273   1.688  0.0247  0.1994 -0.4323
 3078TIP3    H1 9240   3.830   3.275   1.617 -0.7893 -1.2072 -1.2353
 3078TIP3    H2 9241   3.794   3.201   1.745 -0.8927 -0.5112 -0.8598
 3079TIP3   OH2 9242   2.248   3.815   5.177  0.5421 -0.0615  0.1410
 3079TIP3    H1 9243   2.277   3.728   5.204 -0.7035 -1.2471 -2.0562
 3079TIP3    H2 9244   2.278   3.824   5.087  1.5249  2.2696  0.6187
 3080TIP3   OH2 9245   5.659   1.719   2.861  0.1779  0.4359  0.2776
 3080TIP3    H1 9246   5.565   1.727   2.844  0.0266 -3.4183 -2.0089
 3080TIP3    H2 9247   5.700   1.741   2.777  1.2403  1.1011  0.9639
 3081TIP3   OH2 9248   5.569   3.071   3.337 -0.4609  0.3303 -0.4218
 3081TIP3    H1 9249   5.543   3.160   3.313 -0.0411  0.3760 -0.7143
 3081TIP3    H2 9250   5.549   3.066   3.431  1.9445  1.6560  0.2405
 3082TIP3   OH2 9251  -0.002   4.618   0.992 -0.1351  0.7003  0.0031
 3082TIP3    H1 9252   0.090   4.619   0.967  0.4268  0.4528  1.9084
 3082TIP3    H2 9253  -0.005   4.667   1.074 -1.7857  1.0674 -0.2325
 3083TIP3   OH2 9254   6.054   0.033   1.952 -0.5601  0.1030  0.3043
 3083TIP3    H1 9255   5.984   0.004   1.893  1.0812 -0.9385 -1.2470
 3083TIP3    H2 9256   6.119  -0.037   1.948  0.4572  0.8966  1.9239
 3084TIP3   OH2 9257   5.631   3.650   3.483  0.3662 -0.1474 -0.0823
 3084TIP3    H1 9258   5.630   3.703   3.403  1.9442  0.6793  0.4107
 3084TIP3    H2 9259   5.676   3.569   3.457 -0.0087 -0.3028 -0.2622
 3085TIP3   OH2 9260   3.064   5.754   2.836 -0.0666  0.2702  0.1545
 3085TIP3    H1 9261   3.075   5.822   2.770 -0.2256 -0.0295 -0.1861
 3085TIP3    H2 9262   3.152   5.717   2.847  0.4660  1.9099  1.8749
 3086TIP3   OH2 9263   0.771   3.644   1.785  0.9791  0.5991  0.3071
 3086TIP3    H1 9264   0.804   3.611   1.701 -0.8411  0.6697 -0.4914
 3086TIP3    H2 9265   0.798   3.579   1.849  1.7801  0.1691 -0.4406
 3087TIP3   OH2 9266   6.271   3.784   4.578 -0.3507  0.1751 -0.3645
 3087TIP3    H1 9267   6.356   3.790   4.536 -0.6553 -0.7776 -1.1557
 3087TIP3    H2 9268   6.285   3.729   4.655  0.4580  2.8653  1.5408
 3088TIP3   OH2 9269   2.821   0.144   2.578 -0.2597  0.1887  0.1910
 3088TIP3    H1 9270   2.809   0.053   2.550 -2.1826  0.2274  0.7934
 3088TIP3    H2 9271   2.883   0.138   2.651 -0.8909 -0.7293  0.6752
 3089TIP3   OH2 9272   3.279   5.961   3.050  0.3219  0.3457  0.2522
 3089TIP3    H1 9273   3.311   5.870   3.048  0.2000  0.3050  0.1774
 3089TIP3    H2 9274   3.234   5.968   3.134  0.9764  0.5555  0.5882
 3090TIP3   OH2 9275   2.917   2.850   0.485  0.0662  0.3184 -0.2222
 3090TIP3    H1 9276   2.837   2.819   0.442 -0.0191 -0.6882  0.6182
 3090TIP3    H2 9277   2.913   2.945   0.477 -0.8483  0.2430 -0.8354
 3091TIP3   OH2 9278   3.947   2.104   2.487  0.0922  0.1603 -0.2273
 3091TIP3    H1 9279   3.909   2.094   2.574 -0.8124 -0.7589 -0.7020
 3091TIP3    H2 9280   3.962   2.198   2.478  0.2596  0.2655  0.9317
 3092TIP3   OH2 9281   5.153   3.159   2.009 -0.6475  0.1894 -0.1429
 3092TIP3    H1 9282   5.080   3.156   2.072 -0.8395  0.4055 -0.3495
 3092TIP3    H2 9283   5.165   3.069   1.982  2.5265 -0.8007  3.6803
 3093TIP3   OH2 9284   4.553   2.879   0.757 -0.7706  0.1927 -0.0572
 3093TIP3    H1 9285   4.600   2.830   0.690  0.3996  2.3125 -0.8619
 3093TIP3    H2 9286   4.506   2.812   0.807  0.9639 -1.7480 -0.9009
 3094TIP3   OH2 9287   0.298   5.484   3.150  0.2611  0.2036  0.2355
 3094TIP3    H1 9288   0.321   5.399   3.112  1.8198  0.3074  0.8835
 3094TIP3    H2 9289   0.238   5.462   3.221 -0.5880 -0.2031 -0.5796
 3095TIP3   OH2 9290   3.592   4.680   3.416  0.1035  0.3527 -0.3761
 3095TIP3    H1 9291   3.588   4.671   3.511  0.0260  1.0438 -0.3051
 3095TIP3    H2 9292   3.631   4.599   3.385 -0.9996 -0.4042  0.1401
 3096TIP3   OH2 9293   3.950   5.664   5.090  0.1386 -0.2148  0.4703
 3096TIP3    H1 9294   4.021   5.686   5.150  1.2011 -1.2324 -0.3545
 3096TIP3    H2 9295   3.975   5.706   5.007 -0.1210 -0.7462  0.1170
 3097TIP3   OH2 9296   5.019   4.965   4.768  0.0829  0.1675  0.2519
 3097TIP3    H1 9297   5.011   5.017   4.848  1.0050  0.6654  0.0327
 3097TIP3    H2 9298   4.949   4.900   4.775 -2.7209  2.8706 -0.5520
 3098TIP3   OH2 9299   2.983   4.809   5.024 -0.7141  0.7028  0.0231
 3098TIP3    H1 9300   3.062   4.839   5.069 -1.7742  1.2360  1.6364
 3098TIP3    H2 9301   2.915   4.814   5.091 -2.4453  1.7706 -1.7247
 3099TIP3   OH2 9302   0.623   2.749   2.386 -0.0259  0.2419  0.1552
 3099TIP3    H1 9303   0.571   2.677   2.422 -1.2406  1.8972  1.9273
 3099TIP3    H2 9304   0.574   2.777   2.309  0.1399 -0.4294 -0.2024
 3100TIP3   OH2 9305   2.028   1.048   3.318 -0.3412 -0.3152  0.2192
 3100TIP3    H1 9306   1.959   1.079   3.260  0.4304  1.5063  0.2176
 3100TIP3    H2 9307   2.059   0.967   3.277  0.9080  1.4241 -2.5999
 3101TIP3   OH2 9308   2.525   2.089   0.708 -0.2101  0.3973  0.5914
 3101TIP3    H1 9309   2.545   2.024   0.776  2.2930  0.9095  0.4592
 3101TIP3    H2 9310   2.540   2.174   0.750 -0.5433  0.7799 -0.0461
 3102TIP3   OH2 9311   5.554   3.432   4.009 -0.2245 -0.3474 -0.2111
 3102TIP3    H1 9312   5.500   3.364   3.969  0.0195 -1.1313  0.7627
 3102TIP3    H2 9313   5.514   3.514   3.980 -0.4897 -0.8942 -1.4419
 3103TIP3   OH2 9314   4.202   1.234   3.457  0.0100  0.3625  0.2508
 3103TIP3    H1 9315   4.118   1.262   3.421  0.2105 -0.2395 -0.7384
 3103TIP3    H2 9316   4.252   1.207   3.380  1.1866  0.9125  0.8158
 3104TIP3   OH2 9317   3.135   0.359   3.909  0.5641  0.6333  0.4558
 3104TIP3    H1 9318   3.144   0.356   3.814  0.5692 -1.8507  0.4655
 3104TIP3    H2 9319   3.225   0.368   3.941  1.1349 -2.7623  0.1995
 3105TIP3   OH2 9320   6.285   1.573   1.881  0.1611 -0.1027 -0.0207
 3105TIP3    H1 9321   6.243   1.487   1.869 -0.5560  0.3762 -1.1272
 3105TIP3    H2 9322   6.375   1.560   1.852  0.1240 -0.5487  0.0598
 3106TIP3   OH2 9323   0.299   1.626   3.848 -0.0259  0.6782  0.6212
 3106TIP3    H1 9324   0.212   1.634   3.889 -0.0061 -0.8469  1.0061
 3106TIP3    H2 9325   0.294   1.684   3.772 -1.1585  1.1112  0.9907
 3107TIP3   OH2 9326   6.295   3.441   1.680  0.6421  0.0660 -0.0234
 3107TIP3    H1 9327   6.318   3.414   1.591  1.0658  0.2706  0.0218
 3107TIP3    H2 9328   6.336   3.527   1.691  0.5130  0.0859  0.3356
 3108TIP3   OH2 9329   3.864   5.797   0.798 -0.3916  0.0492 -0.4181
 3108TIP3    H1 9330   3.889   5.767   0.710  0.1605 -1.0882  0.1110
 3108TIP3    H2 9331   3.816   5.723   0.835 -0.7108  0.5648  0.2077
 3109TIP3   OH2 9332   0.732   1.097   5.149  0.6044 -0.0837 -0.1674
 3109TIP3    H1 9333   0.803   1.039   5.174 -0.4024 -0.1359  3.0124
 3109TIP3    H2 9334   0.736   1.169   5.212 -2.3792 -0.3314  0.4772
 3110TIP3   OH2 9335   6.154   2.036   3.106 -0.0114  0.0008  0.1849
 3110TIP3    H1 9336   6.247   2.015   3.116 -0.1888 -0.6203  0.6528
 3110TIP3    H2 9337   6.125   1.984   3.032 -0.0536 -0.0388  0.2291
 3111TIP3   OH2 9338   4.983   4.499   4.316 -0.1342 -0.2088  0.2044
 3111TIP3    H1 9339   4.928   4.557   4.263 -0.8665  0.0723  1.2423
 3111TIP3    H2 9340   5.044   4.459   4.253 -2.1326 -1.2836 -1.1715
 3112TIP3   OH2 9341   6.155   0.226   4.937  0.4738 -0.2171  0.2790
 3112TIP3    H1 9342   6.220   0.293   4.958  0.4478 -0.7535  2.2538
 3112TIP3    H2 9343   6.150   0.172   5.016 -0.1958 -1.9863 -0.9031
 3113TIP3   OH2 9344   5.247   0.449   0.548  1.0143 -0.1970  0.3346
 3113TIP3    H1 9345   5.206   0.367   0.575 -0.4038  0.9176  1.6834
 3113TIP3    H2 9346   5.338   0.442   0.579  0.5243 -0.6740  1.7325
 3114TIP3   OH2 9347   5.857   1.496   5.080 -0.3684  0.4852 -0.2196
 3114TIP3    H1 9348   5.897   1.574   5.042  0.8429 -0.4796 -1.0119
 3114TIP3    H2 9349   5.922   1.427   5.066 -2.3481 -1.2002 -1.6542
 3115TIP3   OH2 9350   5.833   1.971   1.174  0.3408 -0.2654 -0.4883
 3115TIP3    H1 9351   5.790   2.054   1.195  2.2119 -0.0818  3.4491
 3115TIP3    H2 9352   5.914   1.997   1.130 -0.5057 -0.2953 -2.1699
 3116TIP3   OH2 9353   3.421   2.515   4.148  0.1125 -0.0096 -0.3125
 3116TIP3    H1 9354   3.374   2.465   4.214 -2.9552  0.0346 -2.2150
 3116TIP3    H2 9355   3.367   2.505   4.069  2.3017  1.8396 -2.1780
 3117TIP3   OH2 9356   2.208   5.220   4.519 -0.2302  0.4451  0.0236
 3117TIP3    H1 9357   2.273   5.158   4.552 -0.1721 -0.2813 -1.3908
 3117TIP3    H2 9358   2.135   5.211   4.580  1.5246  2.4983  2.6629
 3118TIP3   OH2 9359   2.423   2.762   1.036 -0.4156 -0.5325 -0.0674
 3118TIP3    H1 9360   2.425   2.814   0.955  0.6010  0.5587  0.6291
 3118TIP3    H2 9361   2.421   2.827   1.106  2.0361 -1.3617  0.8676
 3119TIP3   OH2 9362   6.166   4.099   3.154 -0.2285  0.0401 -0.5336
 3119TIP3    H1 9363   6.151   4.191   3.172 -0.1430  0.3028 -1.7487
 3119TIP3    H2 9364   6.120   4.082   3.072  1.5200 -0.4453 -1.4637
 3120TIP3   OH2 9365   3.152   4.129   1.512  0.0614  0.7826 -0.3416
 3120TIP3    H1 9366   3.219   4.168   1.456  0.7836 -0.5882 -0.4616
 3120TIP3    H2 9367   3.111   4.062   1.459 -0.1911  0.4003  0.3184
 3121TIP3   OH2 9368   4.418   2.214   3.446 -0.1079  0.0838  0.4440
 3121TIP3    H1 9369   4.459   2.283   3.394  1.4711  1.1394  2.8495
 3121TIP3    H2 9370   4.430   2.134   3.396 -0.3305  1.2750 -1.5940
 3122TIP3   OH2 9371   3.024   0.303   1.329 -0.5486  0.4545  0.5397
 3122TIP3    H1 9372   2.973   0.323   1.250  1.4458 -0.5706 -1.0839
 3122TIP3    H2 9373   3.097   0.365   1.326  1.0816 -1.4160 -0.0151
 3123TIP3   OH2 9374   2.013   4.991   3.563 -0.0093 -0.1536 -0.2694
 3123TIP3    H1 9375   2.019   5.086   3.556 -0.4596 -0.1721 -1.0694
 3123TIP3    H2 9376   2.098   4.964   3.597 -0.0222  0.5633  0.3606
 3124TIP3   OH2 9377   0.280   5.308   2.478 -0.3035  0.5201 -0.0181
 3124TIP3    H1 9378   0.343   5.276   2.542  0.7071 -1.0875 -1.7059
 3124TIP3    H2 9379   0.215   5.238   2.471 -1.0424  1.1847  0.0751
 3125TIP3   OH2 9380   2.053   1.464   4.825  0.4663 -0.4207 -0.1036
 3125TIP3    H1 9381   2.002   1.535   4.784  1.1591  1.0509  1.4650
 3125TIP3    H2 9382   2.141   1.477   4.791  0.2852 -1.6350 -1.1271
 3126TIP3   OH2 9383   3.624   5.616   0.441  0.6145  0.2656  0.3286
 3126TIP3    H1 9384   3.624   5.570   0.357  0.9802 -1.6245  1.2953
 3126TIP3    H2 9385   3.664   5.554   0.502 -1.3142  0.7988  2.2864
 3127TIP3   OH2 9386   5.608   3.582   3.746  0.0098 -0.0781 -0.2070
 3127TIP3    H1 9387   5.514   3.573   3.761  0.2410 -1.5615  0.5972
 3127TIP3    H2 9388   5.616   3.593   3.651 -0.9731 -0.1211 -0.3070
 3128TIP3   OH2 9389   6.012   3.942   1.528  0.5190 -0.1595  1.0300
 3128TIP3    H1 9390   5.982   3.968   1.615  0.5061 -0.1716  1.0292
 3128TIP3    H2 9391   6.044   3.852   1.539 -1.0627 -0.8006  0.6690
 3129TIP3   OH2 9392   4.366   0.065   2.566 -0.0881  0.4572 -0.0364
 3129TIP3    H1 9393   4.449   0.088   2.524 -0.0927  0.6577  0.0651
 3129TIP3    H2 9394   4.363  -0.031   2.563 -0.7550  0.4949 -1.7994
 3130TIP3   OH2 9395   2.558   5.995   4.657  0.0928  0.2751  0.6256
 3130TIP3    H1 9396   2.547   5.901   4.641  1.2068  0.2192  0.0735
 3130TIP3    H2 9397   2.471   6.032   4.643 -0.3975 -0.6971  1.0346
 3131TIP3   OH2 9398   1.197   0.906   3.214  0.1999 -0.3806  0.0126
 3131TIP3    H1 9399   1.258   0.944   3.278 -0.9292  0.5028  0.6014
 3131TIP3    H2 9400   1.230   0.936   3.129 -0.9673  2.5088  0.4677
 3132TIP3   OH2 9401   5.071   2.595   4.337 -0.6551 -0.5455  0.1537
 3132TIP3    H1 9402   5.029   2.664   4.286 -1.9475 -1.4253 -0.0349
 3132TIP3    H2 9403   5.154   2.633   4.366 -1.7850  1.4413  0.9419
 3133TIP3   OH2 9404   4.599   5.643   4.440  0.0457  0.5355  0.4145
 3133TIP3    H1 9405   4.645   5.691   4.371 -0.2790  1.4912  0.8471
 3133TIP3    H2 9406   4.507   5.665   4.427 -0.1512 -0.2471  0.4197
 3134TIP3   OH2 9407   6.050   5.769   4.306 -0.6886  0.1834  0.0566
 3134TIP3    H1 9408   6.142   5.782   4.329 -0.9055  0.9522  0.5072
 3134TIP3    H2 9409   6.052   5.695   4.245  0.0476 -0.9537  1.3812
 3135TIP3   OH2 9410   4.405   1.655   3.894  0.4252 -0.1874  0.6146
 3135TIP3    H1 9411   4.498   1.664   3.877  0.0101  0.0699 -1.9391
 3135TIP3    H2 9412   4.387   1.561   3.885  0.4707 -0.2872  1.4640
 3136TIP3   OH2 9413   5.013   5.331   2.239  0.0222  0.0441 -0.4602
 3136TIP3    H1 9414   4.931   5.331   2.189 -0.8762 -1.8198  0.9276
 3136TIP3    H2 9415   5.035   5.239   2.250  0.5755  0.4041  1.9397
 3137TIP3   OH2 9416   1.936   0.971   0.076  0.0675 -0.0584  0.7083
 3137TIP3    H1 9417   1.863   0.960   0.137  1.0467 -0.7865  1.7994
 3137TIP3    H2 9418   1.939   1.065   0.059 -1.5491 -0.1040  0.0802
 3138TIP3   OH2 9419   5.095   4.476   3.901  0.3029  0.2437  0.4047
 3138TIP3    H1 9420   5.128   4.565   3.891  0.2980  0.1808 -0.2310
 3138TIP3    H2 9421   5.136   4.444   3.981  0.1272  0.8949  0.7576
 3139TIP3   OH2 9422   3.794   4.865   2.647  0.5060  0.3094  0.7227
 3139TIP3    H1 9423   3.881   4.879   2.685  0.6918 -1.1823  0.8930
 3139TIP3    H2 9424   3.739   4.841   2.722  0.3688 -0.4876  0.3759
 3140TIP3   OH2 9425   0.031   1.892   3.266 -0.6123 -0.0763 -0.0724
 3140TIP3    H1 9426  -0.021   1.812   3.278  2.1448 -1.9853  0.0096
 3140TIP3    H2 9427   0.106   1.865   3.214 -0.8248  3.0981 -2.3247
 3141TIP3   OH2 9428   2.980   5.721   5.153 -0.7078 -0.0376 -0.2934
 3141TIP3    H1 9429   3.034   5.705   5.076  1.0831  0.8764  0.6912
 3141TIP3    H2 9430   2.927   5.642   5.162 -0.2797 -0.5445 -1.9117
 3142TIP3   OH2 9431   3.259   1.744   0.499  0.0356 -0.0408  0.1112
 3142TIP3    H1 9432   3.314   1.669   0.518 -0.9199 -0.4988  1.1802
 3142TIP3    H2 9433   3.210   1.759   0.579 -1.3393  0.3850 -0.7720
 3143TIP3   OH2 9434   2.045   1.688   3.893 -0.5973 -0.2972 -0.5712
 3143TIP3    H1 9435   2.042   1.720   3.983  0.8819 -1.7129  0.0332
 3143TIP3    H2 9436   2.050   1.767   3.839 -0.7308  0.5579  0.6349
 3144TIP3   OH2 9437   1.827   5.771   2.137 -0.0746  0.3731  0.0699
 3144TIP3    H1 9438   1.785   5.696   2.177 -1.4299  0.9988 -0.1294
 3144TIP3    H2 9439   1.771   5.794   2.063  0.5741  1.2797 -0.1668
 3145TIP3   OH2 9440   5.167   0.661   3.361 -0.6274  0.1148 -0.1134
 3145TIP3    H1 9441   5.242   0.709   3.397 -0.5169  0.1371 -0.3730
 3145TIP3    H2 9442   5.111   0.644   3.437  0.0331 -0.6167  0.2132
 3146TIP3   OH2 9443   3.589   4.131   2.344  0.2060 -0.6698  0.1311
 3146TIP3    H1 9444   3.512   4.087   2.309 -0.4435  1.1752 -0.9285
 3146TIP3    H2 9445   3.554   4.192   2.409  0.6815  0.5366 -0.7108
 3147TIP3   OH2 9446   0.991   0.804   0.898  0.7018  0.1538  0.1125
 3147TIP3    H1 9447   0.913   0.780   0.848 -0.2338  2.0012  0.5987
 3147TIP3    H2 9448   1.044   0.724   0.900 -0.4944 -0.7397 -1.4631
 3148TIP3   OH2 9449   1.874   0.444   3.761 -0.1667 -0.3999  0.5224
 3148TIP3    H1 9450   1.789   0.467   3.723 -0.1742 -2.0928 -0.5884
 3148TIP3    H2 9451   1.933   0.436   3.686  0.7178 -0.3302  1.1858
 3149TIP3   OH2 9452   2.422   5.872   0.673  0.1642  0.6837 -0.5502
 3149TIP3    H1 9453   2.340   5.921   0.665 -0.6559 -0.3653  0.9669
 3149TIP3    H2 9454   2.487   5.927   0.629 -0.7114  3.1497  1.0102
 3150TIP3   OH2 9455   1.208   5.966   3.771 -0.1356  0.0099 -0.3120
 3150TIP3    H1 9456   1.224   6.059   3.761  1.7739 -0.1225  1.0073
 3150TIP3    H2 9457   1.294   5.928   3.789 -1.0145 -1.8449  0.2664
 3151TIP3   OH2 9458   1.023   0.073   0.842 -0.2466  0.0158 -0.2729
 3151TIP3    H1 9459   1.078   0.126   0.784  1.5083 -0.8137  0.5398
 3151TIP3    H2 9460   1.000   0.132   0.914  0.1655  0.2052 -0.2931
 3152TIP3   OH2 9461   0.184   1.390   0.289  0.3997  0.0470 -0.4467
 3152TIP3    H1 9462   0.158   1.301   0.312  0.9263 -0.7474 -2.6632
 3152TIP3    H2 9463   0.140   1.407   0.206 -0.5150  2.2936  0.4350
 3153TIP3   OH2 9464   5.751   2.935   3.851 -0.0379 -0.8025  0.5680
 3153TIP3    H1 9465   5.826   2.894   3.894 -1.4904 -3.7271  0.5561
 3153TIP3    H2 9466   5.781   3.023   3.829  3.0078 -1.5067  1.4672
 3154TIP3   OH2 9467   3.952   1.103   1.990  0.0276  0.1128  0.3244
 3154TIP3    H1 9468   4.030   1.063   1.949  0.7039  1.3215  0.4000
 3154TIP3    H2 9469   3.888   1.031   1.994  2.1156 -1.8330  3.0599
 3155TIP3   OH2 9470   3.189   3.542   1.314  0.3598 -0.1282  0.6150
 3155TIP3    H1 9471   3.223   3.524   1.402  0.0861  0.1544  0.7844
 3155TIP3    H2 9472   3.253   3.602   1.275 -0.8214  1.9341  1.6226
 3156TIP3   OH2 9473   2.071   4.612   0.360 -0.4729  0.5983  0.5484
 3156TIP3    H1 9474   2.091   4.700   0.329 -1.7803  1.2795  1.5558
 3156TIP3    H2 9475   2.154   4.579   0.394  0.0182  1.4597  0.1993
 3157TIP3   OH2 9476   2.676   4.261   4.399  0.6719 -0.2575  0.0741
 3157TIP3    H1 9477   2.677   4.313   4.479 -1.0680  1.7362 -1.0959
 3157TIP3    H2 9478   2.738   4.304   4.340  0.9387 -0.9035 -0.1353
 3158TIP3   OH2 9479   3.845   4.917   0.873  0.2444  0.2469  0.0144
 3158TIP3    H1 9480   3.864   5.011   0.877 -0.2332  0.3164  1.7033
 3158TIP3    H2 9481   3.931   4.876   0.872  0.4606  0.6969 -0.9135
 3159TIP3   OH2 9482   2.457   2.767   4.817 -0.0267  0.6833 -0.1935
 3159TIP3    H1 9483   2.486   2.830   4.751  2.2906 -0.6371 -0.5765
 3159TIP3    H2 9484   2.465   2.682   4.773 -1.4386 -0.0112  0.8246
 3160TIP3   OH2 9485   4.296   0.440   2.587 -0.1803 -0.1270 -0.4119
 3160TIP3    H1 9486   4.205   0.469   2.577  0.0578  1.0578  0.5864
 3160TIP3    H2 9487   4.337   0.463   2.504 -0.7192 -0.3930 -0.7593
 3161TIP3   OH2 9488   4.305   1.320   2.319  0.2191  0.6772  0.0091
 3161TIP3    H1 9489   4.267   1.368   2.245 -0.5268  2.2407  1.3472
 3161TIP3    H2 9490   4.298   1.380   2.393  0.5867 -0.9840  1.4592
 3162TIP3   OH2 9491   4.030   4.675   0.574  0.1822  0.5419 -0.2888
 3162TIP3    H1 9492   3.939   4.655   0.596 -0.0012 -0.5126 -1.8994
 3162TIP3    H2 9493   4.061   4.729   0.648 -0.3516 -2.7927  2.6382
 3163TIP3   OH2 9494   1.174   1.463   2.156  0.2407  0.3328  0.0845
 3163TIP3    H1 9495   1.233   1.407   2.105  1.5250  1.4581  0.2952
 3163TIP3    H2 9496   1.142   1.528   2.093 -1.3236 -0.6492 -0.1820
 3164TIP3   OH2 9497   5.511   0.447   3.559 -0.5532 -0.0989  0.3446
 3164TIP3    H1 9498   5.481   0.447   3.468 -1.4388 -0.2799  0.6270
 3164TIP3    H2 9499   5.575   0.376   3.563 -0.2403  0.1509 -0.2242
 3165TIP3   OH2 9500   4.014   0.444   2.546  0.3950 -0.2231  0.6242
 3165TIP3    H1 9501   3.965   0.431   2.465  0.6868 -0.7605  0.5307
 3165TIP3    H2 9502   3.970   0.388   2.610 -0.1248  0.5597  0.9628
 3166TIP3   OH2 9503   6.238   4.551   4.716 -0.4091 -0.1567 -0.0854
 3166TIP3    H1 9504   6.248   4.642   4.743  0.2701 -0.7120  1.6746
 3166TIP3    H2 9505   6.308   4.504   4.761  0.8801 -1.2136 -2.9319
 3167TIP3   OH2 9506   6.104   5.252   2.152 -0.6666 -0.5158  0.1438
 3167TIP3    H1 9507   6.074   5.325   2.097  2.3399  0.5033 -0.2958
 3167TIP3    H2 9508   6.141   5.189   2.090  1.6296  0.0801  0.8398
 3168TIP3   OH2 9509   0.807   3.781   2.245 -0.6521 -0.8520  0.1265
 3168TIP3    H1 9510   0.815   3.852   2.180  0.5125 -0.5250  0.5975
 3168TIP3    H2 9511   0.725   3.799   2.290 -0.4012  0.1823  0.2037
 3169TIP3   OH2 9512   3.652   3.796   3.043 -0.3636 -0.4343  0.1357
 3169TIP3    H1 9513   3.721   3.801   2.976 -0.1551 -0.2927  0.3602
 3169TIP3    H2 9514   3.571   3.784   2.993 -0.3190  0.5334 -0.1981
 3170TIP3   OH2 9515   4.705   5.217   2.308 -0.8668 -0.1668 -0.0274
 3170TIP3    H1 9516   4.747   5.206   2.223 -1.0435 -1.5976  0.0438
 3170TIP3    H2 9517   4.626   5.267   2.290 -0.6865 -0.0969 -0.6363
 3171TIP3   OH2 9518   3.298   2.015   0.841 -0.4747 -0.1112  0.1890
 3171TIP3    H1 9519   3.263   2.101   0.816 -1.8104 -0.1590  1.7973
 3171TIP3    H2 9520   3.377   2.006   0.787 -1.3338  1.2794 -1.4084
 3172TIP3   OH2 9521   1.312   4.563   4.915 -0.2940  0.5366 -0.7616
 3172TIP3    H1 9522   1.385   4.582   4.856 -1.3210  1.9410 -1.6464
 3172TIP3    H2 9523   1.351   4.567   5.003  1.3895 -2.1681 -1.2485
 3173TIP3   OH2 9524   1.114   1.937   1.956 -0.5726  0.1519 -0.6633
 3173TIP3    H1 9525   1.050   1.872   1.983 -0.5844  0.5059  0.1716
 3173TIP3    H2 9526   1.193   1.917   2.005 -0.4868  0.5895 -0.6133
 3174TIP3   OH2 9527   3.491   2.705   4.341  0.3027 -0.0629  0.1662
 3174TIP3    H1 9528   3.472   2.622   4.296 -2.8404  0.4187  0.4472
 3174TIP3    H2 9529   3.406   2.746   4.353  1.6886  2.7696  0.9812
 3175TIP3   OH2 9530   5.632   0.493   4.499 -0.1211 -0.1007  0.0524
 3175TIP3    H1 9531   5.636   0.583   4.465 -0.6279 -0.2308 -0.3595
 3175TIP3    H2 9532   5.540   0.479   4.521  0.0853 -0.2636  0.8338
 3176TIP3   OH2 9533   3.496   2.854   3.385  0.4663  0.2098 -0.8842
 3176TIP3    H1 9534   3.498   2.762   3.411  2.0465 -0.3524 -2.7702
 3176TIP3    H2 9535   3.411   2.886   3.416  0.5204 -1.4194  1.1996
 3177TIP3   OH2 9536   1.704   0.696   4.670 -0.4019  0.0119 -0.0465
 3177TIP3    H1 9537   1.731   0.641   4.744  2.5273  1.8518  0.4151
 3177TIP3    H2 9538   1.674   0.634   4.604 -1.1296 -1.8256  1.8928
 3178TIP3   OH2 9539   3.498   2.407   4.481 -0.4138 -0.4208 -0.1303
 3178TIP3    H1 9540   3.558   2.471   4.444  0.2203 -0.8991  0.0672
 3178TIP3    H2 9541   3.553   2.334   4.507 -1.1762 -1.2581 -0.7853
 3179TIP3   OH2 9542   3.087   4.721   4.801  0.1066  0.1268  0.5538
 3179TIP3    H1 9543   3.048   4.764   4.877 -1.3116  2.0456 -1.1444
 3179TIP3    H2 9544   3.162   4.777   4.778  0.7708 -0.6625  0.7268
 3180TIP3   OH2 9545   4.836   2.094   3.361 -0.0789  0.3512  0.0405
 3180TIP3    H1 9546   4.853   2.004   3.389  1.0966  1.1529  2.1447
 3180TIP3    H2 9547   4.771   2.086   3.291 -0.0484 -2.1041  0.2104
 3181TIP3   OH2 9548   3.387   2.854   1.370 -0.1584 -0.1715  0.4198
 3181TIP3    H1 9549   3.393   2.796   1.294 -0.2729  0.1330  0.1741
 3181TIP3    H2 9550   3.465   2.833   1.422 -1.6517 -2.5690  1.8194
 3182TIP3   OH2 9551   1.350   5.519   1.458 -0.2766  0.3835 -0.0623
 3182TIP3    H1 9552   1.309   5.478   1.535  1.2999  0.6282  0.9562
 3182TIP3    H2 9553   1.353   5.450   1.392  0.2452 -0.4579  0.8271
 3183TIP3   OH2 9554   5.763   0.723   2.053  0.7031 -0.0753  0.7092
 3183TIP3    H1 9555   5.722   0.769   1.980 -1.8960 -0.8008  1.5990
 3183TIP3    H2 9556   5.785   0.637   2.017  0.8896  0.1047  0.3844
 3184TIP3   OH2 9557   3.550   2.285   0.811 -0.3462  0.1192  0.3539
 3184TIP3    H1 9558   3.619   2.220   0.796 -0.2510  0.5067 -1.0288
 3184TIP3    H2 9559   3.472   2.244   0.774  0.1913  1.7179 -2.9039
 3185TIP3   OH2 9560   2.316   4.055   2.902 -0.2187 -0.2856  0.2187
 3185TIP3    H1 9561   2.382   4.111   2.943 -0.8802  0.0234  0.8847
 3185TIP3    H2 9562   2.366   4.001   2.840  0.4189  1.1480 -0.5725
 3186TIP3   OH2 9563   4.667   2.895   1.986 -0.1376 -0.2062  0.2824
 3186TIP3    H1 9564   4.699   2.985   1.980 -0.8470 -0.0157 -1.3953
 3186TIP3    H2 9565   4.581   2.897   1.943  0.0456 -1.7703 -0.2220
 3187TIP3   OH2 9566   4.305   5.000   0.095  0.2682 -0.1100  0.3611
 3187TIP3    H1 9567   4.364   4.933   0.130  0.4904  0.0869  0.3603
 3187TIP3    H2 9568   4.318   4.996   0.000  0.2063 -0.1356  0.3537
 3188TIP3   OH2 9569   5.371   4.930   0.402  0.0752 -0.0381  0.0121
 3188TIP3    H1 9570   5.424   4.867   0.452 -0.9204  1.0157  2.5695
 3188TIP3    H2 9571   5.379   5.011   0.451 -1.5341  0.9127 -1.2152
 3189TIP3   OH2 9572   3.154   0.108   3.357 -0.0279 -0.2789 -0.1323
 3189TIP3    H1 9573   3.075   0.157   3.377 -0.3260  0.2685 -2.3802
 3189TIP3    H2 9574   3.124   0.036   3.302  1.2437  1.6296 -3.6377
 3190TIP3   OH2 9575   2.227   3.756   0.817  0.1657 -0.4224 -0.2101
 3190TIP3    H1 9576   2.209   3.768   0.724  0.6239 -2.2173 -0.5711
 3190TIP3    H2 9577   2.207   3.841   0.856 -4.5782 -0.8150 -1.2040
 3191TIP3   OH2 9578   1.598   1.002   1.557 -0.1732 -0.1034  0.1624
 3191TIP3    H1 9579   1.680   0.963   1.526 -0.6911 -1.8950  0.8753
 3191TIP3    H2 9580   1.535   0.983   1.488 -0.4208 -0.4994  0.4923
 3192TIP3   OH2 9581   5.810   2.965   4.631 -0.1146  0.6951  0.0649
 3192TIP3    H1 9582   5.738   2.967   4.694  0.2904  0.9829  0.5246
 3192TIP3    H2 9583   5.828   3.057   4.613 -0.3594  0.6133 -0.6286
 3193TIP3   OH2 9584   3.922   4.234   2.034  0.0015 -0.0672  0.0857
 3193TIP3    H1 9585   3.956   4.313   2.076 -0.5677  1.7531 -2.6171
 3193TIP3    H2 9586   3.831   4.254   2.015 -0.1107 -1.3322 -0.8035
 3194TIP3   OH2 9587   1.416   1.591   1.739  0.4746 -0.0505  0.0123
 3194TIP3    H1 9588   1.387   1.683   1.741  1.0959  0.1506  1.3959
 3194TIP3    H2 9589   1.404   1.564   1.648  0.5677  1.5011 -0.4994
 3195TIP3   OH2 9590   5.039   2.800   4.153  0.2874 -0.0294 -0.2219
 3195TIP3    H1 9591   5.104   2.807   4.083  0.5854 -0.4675  0.0059
 3195TIP3    H2 9592   4.976   2.869   4.134  1.1714  0.8326 -0.0683
 3196TIP3   OH2 9593   0.529   4.195   0.285 -0.1755  0.1812  0.0599
 3196TIP3    H1 9594   0.568   4.274   0.247  0.0920 -0.2443 -0.5652
 3196TIP3    H2 9595   0.440   4.222   0.310  0.9395  1.6471  3.0257
 3197TIP3   OH2 9596   0.196   0.801   2.305 -0.1429 -0.3847 -0.6189
 3197TIP3    H1 9597   0.213   0.865   2.374  1.8378  0.4469 -1.7906
 3197TIP3    H2 9598   0.139   0.736   2.346 -0.2470  0.8583  1.3293
 3198TIP3   OH2 9599   3.810   5.036   2.440 -0.9363 -0.1052  0.0838
 3198TIP3    H1 9600   3.804   4.964   2.503 -1.8399 -0.1274 -0.0218
 3198TIP3    H2 9601   3.887   5.085   2.467  0.4491 -1.8099 -0.5855
 3199TIP3   OH2 9602   0.941   1.888   2.560 -0.3629 -0.0178 -0.3771
 3199TIP3    H1 9603   0.921   1.919   2.649  2.4117  0.5213  0.1753
 3199TIP3    H2 9604   0.888   1.810   2.549 -0.9203  0.0077  1.6946
 3200TIP3   OH2 9605   4.395   5.177   0.742 -0.3791 -0.2359 -0.6240
 3200TIP3    H1 9606   4.404   5.120   0.665 -0.7128 -1.5959  0.3149
 3200TIP3    H2 9607   4.455   5.140   0.806 -1.1154  0.0403  0.2455
 3201TIP3   OH2 9608   3.539   3.662   1.992  0.3351  0.0626 -0.3605
 3201TIP3    H1 9609   3.624   3.663   2.036  0.4732  1.0590 -0.6057
 3201TIP3    H2 9610   3.550   3.602   1.919  1.5841  1.8887 -1.7544
 3202TIP3   OH2 9611   0.860   0.881   0.237  0.0769 -0.0216 -0.1270
 3202TIP3    H1 9612   0.931   0.837   0.190 -1.4550 -0.4671 -2.2193
 3202TIP3    H2 9613   0.780   0.844   0.198 -1.3919 -0.9893  3.4333
 3203TIP3   OH2 9614   0.257   5.981   4.906  0.0585 -0.3211  0.0837
 3203TIP3    H1 9615   0.283   6.007   4.994  0.4713 -1.6377  0.3744
 3203TIP3    H2 9616   0.327   5.924   4.875  0.2174  0.5814 -1.3530
 3204TIP3   OH2 9617   3.006   1.199   3.046 -0.3305 -0.5040 -0.4881
 3204TIP3    H1 9618   2.931   1.146   3.074  0.2609 -0.4054  1.4487
 3204TIP3    H2 9619   2.978   1.289   3.062  0.0735 -0.4534 -0.0571
 3205TIP3   OH2 9620   5.077   0.661   1.170 -0.5624  0.2146  0.1603
 3205TIP3    H1 9621   4.984   0.639   1.179 -0.3067 -0.6585  0.8218
 3205TIP3    H2 9622   5.111   0.597   1.107 -0.6619  1.3257 -1.0518
 3206TIP3   OH2 9623   5.507   4.787   3.944  0.0556 -0.2513 -0.2830
 3206TIP3    H1 9624   5.528   4.814   3.855  0.6273  0.6602  0.1184
 3206TIP3    H2 9625   5.592   4.763   3.983 -0.2801 -1.4158 -0.2232
 3207TIP3   OH2 9626   0.719   0.095   3.509 -0.4286  0.6238 -0.1348
 3207TIP3    H1 9627   0.730   0.180   3.467  0.8570  0.3568 -0.3991
 3207TIP3    H2 9628   0.646   0.054   3.462 -0.8656  1.4690 -0.1923
 3208TIP3   OH2 9629   1.011   0.842   4.450 -0.2732 -0.4258 -0.1016
 3208TIP3    H1 9630   0.999   0.833   4.356 -2.0010  2.3450 -0.2476
 3208TIP3    H2 9631   1.059   0.924   4.461 -1.2792  0.0092  1.4374
 3209TIP3   OH2 9632   4.142   2.410   3.429  0.2896 -0.3611 -0.1335
 3209TIP3    H1 9633   4.158   2.460   3.509  0.5721 -1.4164  0.4848
 3209TIP3    H2 9634   4.186   2.326   3.443  0.9113 -0.3373 -1.6662
 3210TIP3   OH2 9635   1.102   0.157   4.065 -0.1290 -0.2328 -0.2629
 3210TIP3    H1 9636   1.184   0.109   4.053  0.1961  0.3032 -0.2357
 3210TIP3    H2 9637   1.034   0.092   4.050  0.2796 -0.3997 -1.6277
 3211TIP3   OH2 9638   3.986   2.419   4.631 -0.5969 -0.0863  0.6361
 3211TIP3    H1 9639   3.959   2.338   4.588  0.6164  1.3469 -3.1799
 3211TIP3    H2 9640   3.915   2.480   4.613  1.4146  1.5219 -2.7348
 3212TIP3   OH2 9641   3.924   1.318   0.154  0.5061 -0.6560 -0.4254
 3212TIP3    H1 9642   3.843   1.290   0.111  1.2132  0.5260 -2.6618
 3212TIP3    H2 9643   3.981   1.240   0.150  0.2353 -0.8366 -0.8474
 3213TIP3   OH2 9644   1.540   5.187   4.125  0.1333 -0.1249 -0.1812
 3213TIP3    H1 9645   1.595   5.244   4.179  0.3488 -0.5488  0.0588
 3213TIP3    H2 9646   1.531   5.232   4.042 -0.6332  0.7956  0.3766
 3214TIP3   OH2 9647   6.269   0.193   4.229  0.2943  0.0567 -0.3296
 3214TIP3    H1 9648   6.308   0.204   4.142  0.6706  1.5468 -0.0071
 3214TIP3    H2 9649   6.318   0.121   4.269  1.5711  0.7488 -0.5871
 3215TIP3   OH2 9650   4.306   1.519   4.401 -0.0355  0.1675  0.0473
 3215TIP3    H1 9651   4.329   1.564   4.483  0.0077  0.6628 -0.2293
 3215TIP3    H2 9652   4.333   1.580   4.332 -0.5172 -0.0341 -0.3264
 3216TIP3   OH2 9653   0.887   4.725   4.875 -0.9279  0.0281 -0.2486
 3216TIP3    H1 9654   0.823   4.683   4.932 -0.3988  0.5032  0.7182
 3216TIP3    H2 9655   0.912   4.657   4.812 -0.1198 -1.1245  1.2514
 3217TIP3   OH2 9656   5.331   2.586   5.164 -0.3349 -0.3650 -0.3306
 3217TIP3    H1 9657   5.287   2.644   5.226  0.4330  0.5723 -0.6357
 3217TIP3    H2 9658   5.272   2.583   5.088 -0.0523  0.6326 -0.6115
 3218TIP3   OH2 9659   0.510   0.886   1.165  0.2316 -0.4770  0.2488
 3218TIP3    H1 9660   0.585   0.862   1.110  1.0423  1.4915  0.3915
 3218TIP3    H2 9661   0.437   0.896   1.104  0.5432 -0.5688 -0.1427
 3219TIP3   OH2 9662   4.313   5.853   1.706  0.5785 -0.3200  0.2725
 3219TIP3    H1 9663   4.377   5.921   1.685 -0.1877 -0.1336 -1.7407
 3219TIP3    H2 9664   4.239   5.871   1.647 -0.2767 -2.0010  0.7695
 3220TIP3   OH2 9665   1.907   4.023   2.860 -0.1177 -0.2284  0.1389
 3220TIP3    H1 9666   1.871   4.053   2.777  1.7261 -0.9453 -0.9977
 3220TIP3    H2 9667   1.883   4.090   2.924  2.2242  2.7671 -1.8674
 3221TIP3   OH2 9668   5.333   3.958   0.982  0.0747  0.0527  0.1554
 3221TIP3    H1 9669   5.412   3.989   1.026 -0.7248  2.6676 -0.0947
 3221TIP3    H2 9670   5.299   3.890   1.040  1.2840  0.4722  1.4140
 3222TIP3   OH2 9671   3.221   2.274   0.749 -0.5563  0.5955 -0.5104
 3222TIP3    H1 9672   3.217   2.279   0.654 -1.3627  0.0792 -0.5045
 3222TIP3    H2 9673   3.212   2.365   0.778 -1.8020  0.6049 -0.8818
 3223TIP3   OH2 9674   6.147   4.747   2.434 -0.2722 -0.8068  0.4282
 3223TIP3    H1 9675   6.110   4.829   2.400 -1.3143 -0.9160  1.2387
 3223TIP3    H2 9676   6.138   4.686   2.361 -1.4956 -0.7568  0.5131
 3224TIP3   OH2 9677   1.774   2.125   2.850  0.3138 -0.4938  0.4423
 3224TIP3    H1 9678   1.835   2.163   2.913 -2.1066  1.4302  1.7512
 3224TIP3    H2 9679   1.757   2.195   2.787 -0.7929 -0.8827  0.2826
 3225TIP3   OH2 9680   5.376   4.946   4.285  0.2069  0.1692 -0.3908
 3225TIP3    H1 9681   5.395   4.983   4.199 -1.7948  0.3335 -0.8028
 3225TIP3    H2 9682   5.281   4.936   4.287  0.2011  0.1433  1.7910
 3226TIP3   OH2 9683   5.838   2.667   3.471  0.1231  0.3383  0.9996
 3226TIP3    H1 9684   5.829   2.761   3.486  0.7015  0.4977  0.4079
 3226TIP3    H2 9685   5.748   2.633   3.475 -0.1066  0.9423  1.0557
 3227TIP3   OH2 9686   3.895   0.259   5.057 -0.5121 -0.1072 -0.2557
 3227TIP3    H1 9687   3.970   0.254   4.996 -0.1064  0.9385  0.1392
 3227TIP3    H2 9688   3.905   0.343   5.100 -1.4972 -0.3032  0.3785
 3228TIP3   OH2 9689   1.098   2.288   3.215 -0.0979  0.5705  0.0903
 3228TIP3    H1 9690   1.045   2.208   3.210 -0.5862  0.8815  0.2246
 3228TIP3    H2 9691   1.099   2.310   3.308 -0.4519  1.0423 -0.0136
 3229TIP3   OH2 9692   3.933   0.194   3.578 -0.2541  0.4520  0.0865
 3229TIP3    H1 9693   4.023   0.162   3.586  0.3636  0.9651 -3.3969
 3229TIP3    H2 9694   3.942   0.289   3.573 -1.2143  0.6369  1.3388
 3230TIP3   OH2 9695   1.030   2.010   2.320  0.5142 -0.1295 -0.0614
 3230TIP3    H1 9696   1.095   1.950   2.282  2.0638  1.2022  0.3560
 3230TIP3    H2 9697   0.993   1.962   2.394  0.7762 -1.0425 -0.5142
 3231TIP3   OH2 9698   0.915   1.968   2.808 -0.3581  0.0919  0.2573
 3231TIP3    H1 9699   0.875   2.049   2.841 -2.2036 -1.1006  1.1074
 3231TIP3    H2 9700   1.004   1.969   2.844 -0.2014  1.9241 -0.0997
 3232TIP3   OH2 9701   3.857   0.370   4.709  0.1545  0.4486 -0.0766
 3232TIP3    H1 9702   3.924   0.422   4.754  0.4604 -0.9322  1.1637
 3232TIP3    H2 9703   3.776   0.420   4.721  0.6316  1.2020  0.0721
 3233TIP3   OH2 9704   2.758   1.192   2.115  0.1736  0.0703 -0.3360
 3233TIP3    H1 9705   2.705   1.118   2.145 -1.4361  1.1039 -0.5094
 3233TIP3    H2 9706   2.700   1.241   2.056  1.4375  1.0862 -0.7875
 3234TIP3   OH2 9707   6.291   5.444   1.818 -0.3003 -0.1892  0.3967
 3234TIP3    H1 9708   6.299   5.539   1.807  0.4158 -0.1562  1.0995
 3234TIP3    H2 9709   6.335   5.426   1.901  1.3142 -1.3773 -0.6583
 3235TIP3   OH2 9710   5.223   0.262   3.141  0.7705  0.1002 -0.3326
 3235TIP3    H1 9711   5.155   0.195   3.146  2.9588 -2.4380 -1.7204
 3235TIP3    H2 9712   5.191   0.324   3.074 -0.7499 -0.2326  0.0615
 3236TIP3   OH2 9713   0.839   3.207   0.324 -0.2609 -0.1926 -0.2285
 3236TIP3    H1 9714   0.913   3.166   0.279  1.7872 -2.1739  4.3017
 3236TIP3    H2 9715   0.862   3.300   0.327  1.3790 -0.5669 -0.1315
 3237TIP3   OH2 9716   6.227   2.127   3.703  0.3392 -0.2290 -0.4999
 3237TIP3    H1 9717   6.170   2.086   3.768 -0.2534  0.2178 -0.7235
 3237TIP3    H2 9718   6.211   2.221   3.713  0.9651 -0.1003 -0.6378
 3238TIP3   OH2 9719   4.683   3.637   3.751 -0.3617  0.3743  0.2408
 3238TIP3    H1 9720   4.714   3.678   3.832  0.7657  0.2950 -0.1246
 3238TIP3    H2 9721   4.597   3.675   3.736  0.9864  3.3695 -0.5890
 3239TIP3   OH2 9722   3.792   5.945   4.299 -0.6404  0.3577 -0.0078
 3239TIP3    H1 9723   3.753   5.939   4.386  0.2108  1.9951  0.5274
 3239TIP3    H2 9724   3.881   5.911   4.309 -0.5936  0.3990 -0.2670
 3240TIP3   OH2 9725   1.143   4.934   2.832  0.2794 -0.0248 -0.2005
 3240TIP3    H1 9726   1.138   5.025   2.859 -0.5152 -0.3605  0.8406
 3240TIP3    H2 9727   1.212   4.932   2.766 -1.6260  1.8247 -2.4100
 3241TIP3   OH2 9728   6.286   3.399   3.484  0.2554  0.1010  0.1505
 3241TIP3    H1 9729   6.226   3.371   3.553 -0.5060  1.1130 -0.0623
 3241TIP3    H2 9730   6.363   3.432   3.530 -0.2056  0.6779  0.5171
 3242TIP3   OH2 9731   1.558   1.970   2.484  0.0193  0.0797 -0.3040
 3242TIP3    H1 9732   1.593   1.883   2.501 -0.3181 -0.1095 -0.5723
 3242TIP3    H2 9733   1.619   2.008   2.421  1.2045  0.7363  1.1673
 3243TIP3   OH2 9734   3.190   0.708   3.497 -0.1560  0.7193 -0.2378
 3243TIP3    H1 9735   3.173   0.622   3.460  1.8195  1.0590 -2.0867
 3243TIP3    H2 9736   3.109   0.757   3.481 -0.3668 -0.0077 -1.5614
 3244TIP3   OH2 9737   5.377   2.355   3.876 -0.4899  0.4789 -0.4407
 3244TIP3    H1 9738   5.460   2.312   3.897 -0.3732  0.8791 -0.0825
 3244TIP3    H2 9739   5.385   2.378   3.783  0.0682  1.1006 -0.2476
 3245TIP3   OH2 9740   3.061   4.033   3.052 -0.3221  0.3820 -0.4098
 3245TIP3    H1 9741   3.119   3.997   3.120 -0.6515  0.1393 -0.2560
 3245TIP3    H2 9742   2.973   4.010   3.081 -0.4075 -0.8936 -1.6090
 3246TIP3   OH2 9743   4.657   3.470   0.444  0.6177 -0.0894 -0.1421
 3246TIP3    H1 9744   4.625   3.546   0.493 -1.1441  0.7678 -2.4254
 3246TIP3    H2 9745   4.657   3.398   0.507  1.2391  1.5343  1.7949
 3247TIP3   OH2 9746   1.246   4.945   5.046 -0.1813 -0.0408  0.3840
 3247TIP3    H1 9747   1.208   4.900   4.971 -1.4743  0.6936  0.5776
 3247TIP3    H2 9748   1.288   5.023   5.009  0.7913 -0.6138  0.2286
 3248TIP3   OH2 9749   0.045   0.663   0.880  0.1574 -0.0299 -0.0402
 3248TIP3    H1 9750  -0.028   0.666   0.942 -1.2373  0.5736 -1.6535
 3248TIP3    H2 9751   0.050   0.752   0.845 -0.8462 -0.9421 -2.7023
 3249TIP3   OH2 9752   1.156   3.697   2.809  0.2704 -0.4091 -0.3474
 3249TIP3    H1 9753   1.075   3.689   2.759  0.7358  1.1471 -1.4168
 3249TIP3    H2 9754   1.222   3.654   2.755  0.9555  2.0644 -1.6167
 3250TIP3   OH2 9755   0.835   0.424   4.010 -0.6094  0.3495  0.1658
 3250TIP3    H1 9756   0.816   0.472   3.929  0.5852  0.9326  0.2227
 3250TIP3    H2 9757   0.827   0.490   4.079  0.4455  0.3405  0.3052
 3251TIP3   OH2 9758   5.191   1.156   2.794 -0.3641 -0.0479 -0.1239
 3251TIP3    H1 9759   5.149   1.072   2.774  0.7242 -0.9022  0.9314
 3251TIP3    H2 9760   5.191   1.204   2.712 -1.7614 -0.7333 -0.5577
 3252TIP3   OH2 9761   4.617   0.928   4.652  0.1904  0.2972  0.4540
 3252TIP3    H1 9762   4.660   1.013   4.654 -2.6188  1.8263  2.1315
 3252TIP3    H2 9763   4.567   0.924   4.734 -1.4313 -2.0439 -0.5376
 3253TIP3   OH2 9764   4.293   2.220   0.328 -0.4569 -0.0171  0.1310
 3253TIP3    H1 9765   4.235   2.218   0.252 -2.5111  1.6055  1.5399
 3253TIP3    H2 9766   4.370   2.268   0.297 -2.3657  3.0623 -0.3465
 3254TIP3   OH2 9767   3.329   2.489   1.028  0.2149 -0.3530  0.6063
 3254TIP3    H1 9768   3.346   2.416   1.088 -0.4196  0.1520  1.4169
 3254TIP3    H2 9769   3.254   2.460   0.976 -0.1647 -0.1972  1.0665
 3255TIP3   OH2 9770   2.763   4.253   0.302 -0.0510  0.3434  0.5266
 3255TIP3    H1 9771   2.732   4.221   0.387 -0.0812 -0.6416  0.1561
 3255TIP3    H2 9772   2.853   4.282   0.318 -0.0709  0.2035  0.9010
 3256TIP3   OH2 9773   3.215   1.968   0.331  0.1004 -0.3934 -0.4482
 3256TIP3    H1 9774   3.237   1.905   0.400  1.1304  1.0341  0.5923
 3256TIP3    H2 9775   3.286   1.959   0.267  2.5715  2.3513  1.6227
 3257TIP3   OH2 9776   0.452   0.150   0.416  0.0039 -0.0372  0.2419
 3257TIP3    H1 9777   0.421   0.065   0.385  0.1112  0.0453 -0.0890
 3257TIP3    H2 9778   0.374   0.206   0.414  0.0680  0.0412 -0.1386
 3258TIP3   OH2 9779   3.712   5.834   1.380  0.0580 -0.2415 -0.3183
 3258TIP3    H1 9780   3.783   5.793   1.429 -0.2654 -0.3784  0.0490
 3258TIP3    H2 9781   3.738   5.926   1.372  0.8270 -0.5249 -1.2284
 3259TIP3   OH2 9782   1.479   4.799   0.798 -0.7700 -0.0324  0.3612
 3259TIP3    H1 9783   1.457   4.885   0.835 -0.0078 -0.8223  2.8772
 3259TIP3    H2 9784   1.402   4.746   0.813 -1.0758  0.0499 -0.7951
 3260TIP3   OH2 9785   3.614   0.682   1.911 -0.0439  0.0538  0.2210
 3260TIP3    H1 9786   3.653   0.769   1.908 -1.5105  0.7389 -2.7135
 3260TIP3    H2 9787   3.671   0.628   1.856 -1.0637  0.1163 -0.9429
 3261TIP3   OH2 9788   0.078   3.162   4.187 -0.1600  0.1428 -0.1033
 3261TIP3    H1 9789   0.057   3.190   4.276 -0.8482  0.1312 -0.2545
 3261TIP3    H2 9790  -0.007   3.156   4.143  0.3153  2.6990 -1.5369
 3262TIP3   OH2 9791   0.733   0.574   1.211 -0.2202  0.3622  0.2016
 3262TIP3    H1 9792   0.730   0.501   1.149 -1.4038 -0.3761  1.0834
 3262TIP3    H2 9793   0.746   0.651   1.157 -1.3512 -0.2428 -0.9805
 3263TIP3   OH2 9794   2.619   0.761   1.529 -0.1341 -0.0183 -0.0613
 3263TIP3    H1 9795   2.536   0.757   1.576  0.5602  1.3639  1.3916
 3263TIP3    H2 9796   2.627   0.852   1.501  0.9605 -0.0730  0.0158
 3264TIP3   OH2 9797   6.073   4.513   1.438  0.4854 -0.6532  0.1777
 3264TIP3    H1 9798   6.061   4.464   1.519  0.1135 -0.2337  0.3785
 3264TIP3    H2 9799   6.091   4.446   1.372  0.5724 -1.0127  0.5629
 3265TIP3   OH2 9800   5.424   5.624   4.255 -0.2807  0.2120  0.0417
 3265TIP3    H1 9801   5.499   5.589   4.206 -1.0571 -0.6211 -0.6046
 3265TIP3    H2 9802   5.447   5.715   4.273  1.0804 -0.1536  0.2748
 3266TIP3   OH2 9803   3.164   5.802   0.287 -0.0736  0.8871 -0.6157
 3266TIP3    H1 9804   3.250   5.761   0.275  0.3152  1.0911  1.1587
 3266TIP3    H2 9805   3.184   5.892   0.315 -0.8542  0.8989 -0.0603
 3267TIP3   OH2 9806   5.791   0.983   5.063 -0.2276 -0.5669 -0.3525
 3267TIP3    H1 9807   5.759   0.969   5.152 -1.4674 -0.6440 -0.7909
 3267TIP3    H2 9808   5.784   0.897   5.021 -1.6183 -0.1171 -1.1117
 3268TIP3   OH2 9809   5.080   1.060   1.470  0.8582  0.3575  0.6884
 3268TIP3    H1 9810   5.038   1.026   1.549  1.1123 -2.3618 -0.2137
 3268TIP3    H2 9811   5.025   1.027   1.398  2.9108 -0.9436 -0.3932
 3269TIP3   OH2 9812   0.515   4.366   3.648 -0.1789  0.2602  0.4445
 3269TIP3    H1 9813   0.421   4.370   3.630 -0.2853  1.3838  1.1578
 3269TIP3    H2 9814   0.552   4.317   3.574 -1.3029 -0.0574  0.0809
 3270TIP3   OH2 9815   6.177   0.622   4.927 -0.2159  0.0006  0.9358
 3270TIP3    H1 9816   6.246   0.557   4.936 -0.0733  0.4199  3.3250
 3270TIP3    H2 9817   6.117   0.584   4.863  0.7880 -1.6292  0.8976
 3271TIP3   OH2 9818   0.391   1.883   4.391  0.4999 -0.5022 -0.4008
 3271TIP3    H1 9819   0.363   1.878   4.482  0.6766 -1.3799 -0.3828
 3271TIP3    H2 9820   0.441   1.802   4.377 -1.2414 -1.4081 -1.8307
 3272TIP3   OH2 9821   5.317   5.175   0.914 -0.1658 -0.1165  0.7728
 3272TIP3    H1 9822   5.392   5.232   0.931  0.5425 -0.7750 -0.0926
 3272TIP3    H2 9823   5.275   5.166   1.000  0.0619  1.1840  1.0512
 3273TIP3   OH2 9824   0.690   2.218   3.066  0.0371 -0.1093  0.1270
 3273TIP3    H1 9825   0.596   2.207   3.081  0.1069 -0.6899  0.1655
 3273TIP3    H2 9826   0.696   2.244   2.974 -0.0081 -3.0445 -0.8094
 3274TIP3   OH2 9827   3.405   3.905   1.155 -0.1431  0.0425 -0.3364
 3274TIP3    H1 9828   3.425   3.955   1.076 -0.6856 -1.1710 -1.2709
 3274TIP3    H2 9829   3.466   3.831   1.152 -1.1785 -0.8272 -0.4293
 3275TIP3   OH2 9830   2.099   2.780   1.787 -0.4851 -0.9851 -0.2950
 3275TIP3    H1 9831   2.113   2.703   1.842 -0.1497  0.2327  1.3945
 3275TIP3    H2 9832   2.010   2.808   1.806  0.4476  0.9158  1.6620
 3276TIP3   OH2 9833   1.832   1.079   3.144  0.3134  0.0219 -0.7598
 3276TIP3    H1 9834   1.757   1.136   3.160  0.7008  0.1757  0.6780
 3276TIP3    H2 9835   1.811   1.033   3.062 -2.8513 -2.2823  1.0963
 3277TIP3   OH2 9836   1.102   5.572   0.309  0.0010  0.3742 -0.3834
 3277TIP3    H1 9837   1.133   5.662   0.312 -0.3822  0.5024 -0.2448
 3277TIP3    H2 9838   1.177   5.522   0.278  1.4416  0.1986  2.9646
 3278TIP3   OH2 9839   1.125   0.516   0.377 -0.4062 -0.1212  0.3622
 3278TIP3    H1 9840   1.208   0.536   0.420 -0.1873 -1.1278  0.4404
 3278TIP3    H2 9841   1.059   0.534   0.444 -0.1284 -0.8642  0.8502
 3279TIP3   OH2 9842   4.575   3.886   1.047  0.4656 -0.4372 -0.2683
 3279TIP3    H1 9843   4.642   3.833   1.003  0.8438  0.4616 -0.8132
 3279TIP3    H2 9844   4.523   3.922   0.976  1.2620  1.2724 -0.0357
 3280TIP3   OH2 9845   0.912   0.041   3.240 -0.3260  0.2193 -0.5478
 3280TIP3    H1 9846   0.873   0.056   3.154  2.5614  2.2333 -1.6459
 3280TIP3    H2 9847   0.881   0.113   3.294 -0.9111 -0.1879 -0.3271
 3281TIP3   OH2 9848   6.317   2.815   0.225  0.0757  0.2635  0.1909
 3281TIP3    H1 9849   6.379   2.867   0.174 -1.3011  0.9593 -0.8419
 3281TIP3    H2 9850   6.364   2.796   0.306  1.4914  1.0916 -0.3852
 3282TIP3   OH2 9851   0.279   1.473   2.433 -0.0551 -0.2341 -0.0115
 3282TIP3    H1 9852   0.259   1.562   2.464  0.9672 -0.5140  1.5678
 3282TIP3    H2 9853   0.369   1.479   2.400  0.4965 -0.9102  1.2680
 3283TIP3   OH2 9854   1.455   4.679   5.123 -0.2959 -0.3665  0.0278
 3283TIP3    H1 9855   1.373   4.689   5.172  0.9440  0.2574  2.1281
 3283TIP3    H2 9856   1.487   4.769   5.112  0.7709 -0.6721  0.5007
 3284TIP3   OH2 9857   5.317   0.097   4.781 -0.0755 -0.0511 -0.2084
 3284TIP3    H1 9858   5.354   0.099   4.693 -1.1081 -1.7065 -0.7204
 3284TIP3    H2 9859   5.223   0.113   4.768 -0.0391  1.0991  0.7606
 3285TIP3   OH2 9860   3.435   3.140   5.136 -0.0766  0.0781  0.2521
 3285TIP3    H1 9861   3.487   3.062   5.155 -0.1589  0.0879  0.5297
 3285TIP3    H2 9862   3.344   3.112   5.150 -0.0047  0.7598  2.3712
 3286TIP3   OH2 9863   5.387   0.140   3.339 -0.1086  0.1852  0.2479
 3286TIP3    H1 9864   5.349   0.205   3.280  0.0627  0.5185  0.5049
 3286TIP3    H2 9865   5.315   0.113   3.395 -0.3996 -0.5090 -0.4412
 3287TIP3   OH2 9866   3.959   4.296   4.940  0.7243  0.6258 -0.0671
 3287TIP3    H1 9867   3.957   4.285   4.845 -4.3140  1.9486 -0.3907
 3287TIP3    H2 9868   3.915   4.218   4.974  0.4906  1.1973  0.9736
 3288TIP3   OH2 9869   4.181   0.560   0.993 -0.2972  0.2227 -0.3164
 3288TIP3    H1 9870   4.095   0.561   1.034 -0.6277 -0.8111 -0.9761
 3288TIP3    H2 9871   4.166   0.527   0.905  0.5188  1.7086 -1.0535
 3289TIP3   OH2 9872   6.132   0.564   3.400 -0.0634 -0.4328 -0.3487
 3289TIP3    H1 9873   6.089   0.488   3.440  1.3787 -1.2986 -0.3974
 3289TIP3    H2 9874   6.151   0.536   3.311 -0.9105  0.5660 -0.8631
 3290TIP3   OH2 9875   6.152   0.472   2.545  0.3054 -0.2152 -0.0164
 3290TIP3    H1 9876   6.086   0.406   2.525 -0.4823 -0.2648  2.3692
 3290TIP3    H2 9877   6.169   0.516   2.462 -2.2719 -0.6081 -0.8332
 3291TIP3   OH2 9878   1.804   0.227   2.100  0.5152 -0.1863 -0.0559
 3291TIP3    H1 9879   1.744   0.278   2.045  2.0170  0.8286 -0.8177
 3291TIP3    H2 9880   1.843   0.292   2.159 -1.5977 -1.3167  2.8854
 3292TIP3   OH2 9881   4.990   5.722   3.768  0.1120 -0.4638 -0.1898
 3292TIP3    H1 9882   4.919   5.659   3.778  0.3476 -0.6363  0.4886
 3292TIP3    H2 9883   4.947   5.803   3.743 -0.2684 -0.7070 -0.3379
 3293TIP3   OH2 9884   0.936   1.011  -0.010 -0.0643  0.3461 -0.4161
 3293TIP3    H1 9885   0.926   1.038   0.081  0.9300 -2.6059  0.6989
 3293TIP3    H2 9886   0.846   1.005  -0.043 -0.3788  2.8303 -0.1426
 3294TIP3   OH2 9887   4.869   3.887   4.752  0.5604  0.4782 -0.1168
 3294TIP3    H1 9888   4.796   3.921   4.804  0.2114 -0.4829  0.0494
 3294TIP3    H2 9889   4.833   3.880   4.663  0.0349 -1.1196  0.1859
 3295TIP3   OH2 9890   3.940   2.255   3.722 -0.6445  0.1842 -0.2679
 3295TIP3    H1 9891   3.917   2.290   3.636 -1.1361  1.2281  0.2725
 3295TIP3    H2 9892   3.866   2.278   3.779 -0.7266 -1.2360  0.2583
 3296TIP3   OH2 9893   3.424   4.294   3.256  0.0176  0.0812 -0.6327
 3296TIP3    H1 9894   3.374   4.301   3.175  0.0276  1.1128 -0.5556
 3296TIP3    H2 9895   3.515   4.298   3.230  0.0710 -1.3176 -0.7248
 3297TIP3   OH2 9896   3.295   0.851   0.378  0.7206  0.4985 -0.0182
 3297TIP3    H1 9897   3.304   0.837   0.284  1.8310 -0.2578  0.1765
 3297TIP3    H2 9898   3.259   0.939   0.386  1.3609  0.8850 -1.1391
 3298TIP3   OH2 9899   0.727   2.210   2.506 -0.8289  0.0043  0.1832
 3298TIP3    H1 9900   0.815   2.198   2.541 -1.8125 -0.6250  2.6715
 3298TIP3    H2 9901   0.713   2.134   2.449 -0.0568 -0.2883  0.3741
 3299TIP3   OH2 9902   5.506   2.317   2.415 -0.7523  0.2671  0.2380
 3299TIP3    H1 9903   5.597   2.341   2.396 -0.9503  2.2502  1.4393
 3299TIP3    H2 9904   5.457   2.346   2.339 -0.3842 -1.0500 -0.5315
 3300TIP3   OH2 9905   2.546   1.272   1.941 -0.1428  0.4378  0.0649
 3300TIP3    H1 9906   2.591   1.233   1.865 -0.6159 -1.4815  0.7024
 3300TIP3    H2 9907   2.454   1.274   1.916  0.0097  2.5986 -0.5084
 3301TIP3   OH2 9908   3.748   5.600   4.700 -0.2410  0.1657 -0.1752
 3301TIP3    H1 9909   3.825   5.544   4.711 -0.5376 -0.5444 -1.5203
 3301TIP3    H2 9910   3.783   5.682   4.665 -0.1131 -0.2236 -0.9647
 3302TIP3   OH2 9911   6.202   3.222   0.497  0.2667  0.2328  0.5713
 3302TIP3    H1 9912   6.151   3.198   0.420  0.9454 -0.0581  0.2075
 3302TIP3    H2 9913   6.136   3.237   0.566 -0.2322 -2.7748  0.8815
 3303TIP3   OH2 9914   1.101   1.628   0.666  0.2350  0.5731  0.4235
 3303TIP3    H1 9915   1.074   1.546   0.624 -0.6444  1.3354 -0.5744
 3303TIP3    H2 9916   1.188   1.645   0.631  0.9409 -0.5465  1.5851
 3304TIP3   OH2 9917   1.249   4.245   2.215 -0.2072 -0.3717 -0.1106
 3304TIP3    H1 9918   1.165   4.206   2.238  0.4422 -1.4785  0.4356
 3304TIP3    H2 9919   1.253   4.240   2.119 -0.4895 -0.8884 -0.0956
 3305TIP3   OH2 9920   3.488   0.048   2.563 -0.3276 -0.0486  0.0466
 3305TIP3    H1 9921   3.550  -0.021   2.588 -1.2551 -1.3725 -1.1405
 3305TIP3    H2 9922   3.426   0.052   2.637  0.5988  0.6187  0.8099
 3306TIP3   OH2 9923   2.176   2.823   0.748  0.2386  0.8374 -0.1009
 3306TIP3    H1 9924   2.098   2.869   0.780 -0.3198 -0.7966  1.0392
 3306TIP3    H2 9925   2.145   2.734   0.729  1.5348  0.5438 -0.9718
 3307TIP3   OH2 9926   2.367   2.278   3.405 -0.7035  0.6195  0.9743
 3307TIP3    H1 9927   2.368   2.184   3.423 -4.4563  0.2722  0.1555
 3307TIP3    H2 9928   2.302   2.314   3.467 -0.4931  2.3988  0.2359
 3308TIP3   OH2 9929   4.137   4.206   1.169  0.3078 -1.1902 -0.3809
 3308TIP3    H1 9930   4.140   4.191   1.264  1.1320  2.7838  0.3774
 3308TIP3    H2 9931   4.130   4.301   1.160  1.3550 -1.3332 -4.3478
 3309TIP3   OH2 9932   4.167   1.185   1.650  0.5512 -0.1929  0.6352
 3309TIP3    H1 9933   4.202   1.214   1.734  0.4325 -0.4742  0.7831
 3309TIP3    H2 9934   4.208   1.100   1.635 -0.5601 -0.8341  1.1303
 3310TIP3   OH2 9935   4.493   2.802   4.094 -0.3268  0.3131 -0.2822
 3310TIP3    H1 9936   4.575   2.758   4.074  0.4033  2.2456 -1.8715
 3310TIP3    H2 9937   4.492   2.810   4.189  0.6959 -0.8742 -0.1519
 3311TIP3   OH2 9938   5.756   0.485   0.722 -0.2177 -0.2046 -0.4608
 3311TIP3    H1 9939   5.666   0.456   0.711 -0.3053 -1.4189  2.5709
 3311TIP3    H2 9940   5.806   0.404   0.735  1.0308  0.5479 -0.3527
 3312TIP3   OH2 9941   0.217   1.771   2.351  0.2134 -0.0313 -0.3039
 3312TIP3    H1 9942   0.186   1.857   2.324 -0.1080 -0.3576 -0.9979
 3312TIP3    H2 9943   0.200   1.714   2.276  1.1993 -0.5210 -0.1782
 3313TIP3   OH2 9944   1.930   3.501   3.969 -0.1962 -0.2276  0.6044
 3313TIP3    H1 9945   1.856   3.516   3.910  0.2796  0.0478  0.0692
 3313TIP3    H2 9946   2.007   3.505   3.912  0.2147 -0.7626  1.1140
 3314TIP3   OH2 9947   3.842   0.310   0.529 -0.3213 -0.1702 -0.2228
 3314TIP3    H1 9948   3.848   0.280   0.438 -1.9498 -0.3001 -0.3090
 3314TIP3    H2 9949   3.763   0.364   0.531 -1.2693 -1.5504  1.4992
 3315TIP3   OH2 9950   4.285   5.273   0.212 -0.7080  0.5110 -0.6019
 3315TIP3    H1 9951   4.259   5.198   0.157 -2.2908  0.8642 -0.3993
 3315TIP3    H2 9952   4.268   5.349   0.157 -1.1558  0.8112 -0.0532
 3316TIP3   OH2 9953   1.285   2.407   2.778  0.5759  0.4287 -0.0161
 3316TIP3    H1 9954   1.203   2.362   2.797  0.0380  1.0605 -0.7383
 3316TIP3    H2 9955   1.347   2.337   2.756  0.1037 -0.0271  0.0856
 3317TIP3   OH2 9956   4.449   0.515   0.497 -0.1367  0.0829  0.1208
 3317TIP3    H1 9957   4.427   0.429   0.531 -0.6310 -0.3276 -1.1504
 3317TIP3    H2 9958   4.475   0.498   0.406  1.0179  1.1225  0.2468
 3318TIP3   OH2 9959   4.133   4.400   4.130 -0.0640 -0.1301 -0.2415
 3318TIP3    H1 9960   4.079   4.473   4.099 -0.8193 -0.9813 -1.0223
 3318TIP3    H2 9961   4.089   4.322   4.094  0.8822 -0.9399  0.3281
 3319TIP3   OH2 9962   1.656   2.381   3.148  0.6553  0.0888 -0.0085
 3319TIP3    H1 9963   1.740   2.360   3.189  1.3966  0.6908 -1.1789
 3319TIP3    H2 9964   1.676   2.392   3.055 -0.0220  3.7798  0.1466
 3320TIP3   OH2 9965   5.467   0.048   2.422  0.1060  0.5173 -0.0835
 3320TIP3    H1 9966   5.524   0.014   2.491 -0.3379  0.5181  0.2965
 3320TIP3    H2 9967   5.476  -0.014   2.350  0.4557  0.4284  0.0367
 3321TIP3   OH2 9968   3.075   5.624   4.133  0.1426 -0.1037  0.6169
 3321TIP3    H1 9969   3.044   5.545   4.177  0.7481 -0.2998  0.7044
 3321TIP3    H2 9970   3.171   5.616   4.134  0.1721 -0.1310 -0.7596
 3322TIP3   OH2 9971   0.885   5.604   2.945  0.0431  1.0419 -0.0987
 3322TIP3    H1 9972   0.904   5.698   2.950  0.6866  1.0260 -1.6795
 3322TIP3    H2 9973   0.832   5.586   3.023 -1.2494  2.9987 -0.4465
 3323TIP3   OH2 9974   2.865   5.349   3.447 -0.2308 -0.3249  0.2891
 3323TIP3    H1 9975   2.839   5.436   3.476  0.4740 -0.1229  0.3302
 3323TIP3    H2 9976   2.921   5.365   3.372 -0.9318 -0.7930 -0.3511
 3324TIP3   OH2 9977   2.881   4.590   0.375  0.4432 -0.5352 -0.4377
 3324TIP3    H1 9978   2.795   4.581   0.334  0.7220 -0.7222 -0.9813
 3324TIP3    H2 9979   2.865   4.568   0.467 -0.3933  0.9240 -0.2024
 3325TIP3   OH2 9980   0.606   4.603   2.651  0.4609  0.0684 -0.1813
 3325TIP3    H1 9981   0.666   4.671   2.681  0.8961 -0.3749 -0.0463
 3325TIP3    H2 9982   0.650   4.562   2.577 -0.2200  0.5631 -0.8764
 3326TIP3   OH2 9983   3.830   5.589   1.261 -0.6737  0.3031  0.1680
 3326TIP3    H1 9984   3.840   5.675   1.221 -3.4380  0.2643 -0.8079
 3326TIP3    H2 9985   3.919   5.554   1.267  0.2838  2.2738 -1.5368
 3327TIP3   OH2 9986   3.067   1.695   4.390 -0.3356  0.0494 -0.4700
 3327TIP3    H1 9987   2.990   1.750   4.405  1.3071  3.0468 -2.0715
 3327TIP3    H2 9988   3.050   1.652   4.306 -0.3998  0.5400 -0.7144
 3328TIP3   OH2 9989   0.009   1.155   2.164  0.4811  0.0280  0.0713
 3328TIP3    H1 9990   0.068   1.087   2.131  0.3510 -0.2578  0.4169
 3328TIP3    H2 9991  -0.067   1.107   2.196  1.0271  0.1990  1.7044
 3329TIP3   OH2 9992   2.072   0.654   1.428 -0.4385 -0.6841  0.1256
 3329TIP3    H1 9993   2.148   0.660   1.485 -0.6593  0.4192  0.3333
 3329TIP3    H2 9994   2.093   0.709   1.353 -1.5835  0.8527  0.8723
 3330TIP3   OH2 9995   5.242   2.933   3.983 -0.5497  0.2792  1.1465
 3330TIP3    H1 9996   5.228   3.001   4.048  0.8848 -1.0925  2.9927
 3330TIP3    H2 9997   5.331   2.902   3.999 -1.3335 -2.4102  0.7558
 3331TIP3   OH2 9998   5.189   1.504   3.726  0.4012 -0.6024  0.3320
 3331TIP3    H1 9999   5.171   1.418   3.763 -1.0584 -0.7385 -0.6206
 3331TIP3    H210000   5.269   1.491   3.674  0.4646 -1.2572  0.5854
 3332TIP3   OH210001   1.294   5.938   3.404 -0.4757  0.1387  0.3821
 3332TIP3    H110002   1.352   5.994   3.456  1.3872 -1.4469  0.1108
 3332TIP3    H210003   1.288   5.982   3.320  0.1760  0.4152  0.4770
 3333TIP3   OH210004   2.680   2.116   2.398  0.1307 -0.8074  0.0578
 3333TIP3    H110005   2.719   2.194   2.359  0.0445 -1.0327 -0.4809
 3333TIP3    H210006   2.694   2.127   2.492  1.2467 -0.7493 -0.1038
 3334TIP3   OH210007   3.035   3.698   2.151 -0.0169  0.2091  0.1706
 3334TIP3    H110008   3.064   3.769   2.209  1.3427  0.8092 -1.1595
 3334TIP3    H210009   3.074   3.720   2.066  0.7603 -2.3483 -0.2008
 3335TIP3   OH210010   1.512   4.238   3.527 -0.1975 -0.2376 -0.3005
 3335TIP3    H110011   1.518   4.327   3.563 -2.1034 -1.0980  2.4859
 3335TIP3    H210012   1.457   4.247   3.449  1.1826  1.2346 -1.1688
 3336TIP3   OH210013   0.303   2.780   4.365 -0.2206  0.5440 -0.2060
 3336TIP3    H110014   0.217   2.814   4.391 -0.4495  0.5603 -0.9700
 3336TIP3    H210015   0.290   2.686   4.356 -0.4537  0.6762 -1.4108
 3337TIP3   OH210016   5.491   3.990   5.093 -0.5090 -0.3491 -0.4172
 3337TIP3    H110017   5.429   4.052   5.132 -1.0134 -1.1248  0.0454
 3337TIP3    H210018   5.483   4.004   4.999  0.0985  0.9580 -0.2986
 3338TIP3   OH210019   0.600   3.674   5.138  0.2220  0.5223 -0.2543
 3338TIP3    H110020   0.597   3.768   5.122  0.4722  0.1634 -2.7786
 3338TIP3    H210021   0.690   3.649   5.114 -0.1169 -0.4863 -0.4892
 3339TIP3   OH210022   2.842   2.179   4.128 -0.2999 -0.1460  0.0969
 3339TIP3    H110023   2.808   2.096   4.161 -0.0695 -0.1626  0.2941
 3339TIP3    H210024   2.789   2.198   4.051 -1.6800  0.5067  1.1568
 3340TIP3   OH210025   1.778   4.436   0.146  0.4094 -0.6004  0.0830
 3340TIP3    H110026   1.700   4.425   0.092 -0.3329 -2.3975  1.4454
 3340TIP3    H210027   1.785   4.531   0.159 -0.1761 -0.2302 -1.9556
 3341TIP3   OH210028   5.362   1.476   2.633 -0.1921 -0.4467  0.3139
 3341TIP3    H110029   5.386   1.461   2.725  0.0421  2.3999  0.8041
 3341TIP3    H210030   5.442   1.510   2.593 -1.0066  0.9694 -0.2042
 3342TIP3   OH210031   0.620   2.421   1.833 -0.2335  0.3259 -0.4231
 3342TIP3    H110032   0.677   2.361   1.786 -0.0179 -2.1199  2.6131
 3342TIP3    H210033   0.673   2.499   1.849  1.4267 -0.8525  0.0835
 3343TIP3   OH210034   0.385   5.073   2.082  0.6787  0.1187 -0.3900
 3343TIP3    H110035   0.443   5.053   2.156  0.6679 -1.9751 -0.8771
 3343TIP3    H210036   0.437   5.053   2.004 -0.1884 -0.3263 -0.8707
 3344TIP3   OH210037   1.198   3.980   0.458 -0.7404 -0.0714  0.1394
 3344TIP3    H110038   1.229   3.924   0.387  1.8959  0.8407  0.4670
 3344TIP3    H210039   1.204   4.069   0.422  0.7326  0.4108  1.4632
 3345TIP3   OH210040   2.083   1.990   2.618  0.5454 -0.1528  0.1845
 3345TIP3    H110041   2.131   2.070   2.640  0.2135  0.4714 -1.2584
 3345TIP3    H210042   2.142   1.919   2.644  2.2016  0.5918 -1.3539
 3346TIP3   OH210043   5.926   2.940   3.242  0.3205 -0.1877 -0.1550
 3346TIP3    H110044   6.018   2.967   3.249 -0.4482  2.3510  1.5547
 3346TIP3    H210045   5.907   2.897   3.325 -0.3324  0.3738 -0.0042
 3347TIP3   OH210046   1.168   0.660   3.844  0.3276  0.2232 -0.2282
 3347TIP3    H110047   1.144   0.735   3.898 -1.9857 -1.3677  1.0946
 3347TIP3    H210048   1.157   0.584   3.901  2.4740 -1.2054 -1.5500
 3348TIP3   OH210049   1.673   4.824   4.487 -1.1524  0.1681 -0.5475
 3348TIP3    H110050   1.765   4.809   4.466 -1.5052  0.4331 -2.4049
 3348TIP3    H210051   1.626   4.811   4.404 -2.5999  1.6919 -0.0262
 3349TIP3   OH210052   2.713   5.629   3.989 -0.1197 -0.8084 -0.6390
 3349TIP3    H110053   2.788   5.579   3.955  0.4296  0.6088 -1.5750
 3349TIP3    H210054   2.641   5.605   3.930  0.3823  0.2061 -1.7152
 3350TIP3   OH210055   6.202   1.802   5.179  0.3414 -0.4906  0.2605
 3350TIP3    H110056   6.193   1.896   5.168  1.5930 -0.4248 -0.2893
 3350TIP3    H210057   6.231   1.770   5.094 -0.6500 -1.4663  0.2665
 3351TIP3   OH210058   3.934   4.570   4.676 -0.5286 -0.1233  0.6809
 3351TIP3    H110059   3.948   4.587   4.769  0.7742  0.3745  0.4086
 3351TIP3    H210060   3.891   4.649   4.644 -0.1796  0.0733  0.6896
 3352TIP3   OH210061   0.209   2.439   1.291 -0.0954  0.2296  0.1570
 3352TIP3    H110062   0.158   2.514   1.259  0.2594  0.0572 -0.8325
 3352TIP3    H210063   0.300   2.467   1.282  0.0612 -0.6154 -0.9530
 3353TIP3   OH210064   1.375   5.241   2.501  0.3897 -0.1213  0.5215
 3353TIP3    H110065   1.390   5.150   2.524  1.6926 -0.1021 -0.1595
 3353TIP3    H210066   1.284   5.258   2.527 -0.1991 -1.8761 -0.2550
 3354TIP3   OH210067   1.347   1.053   4.492  0.4019 -0.1466  0.1646
 3354TIP3    H110068   1.270   1.039   4.547 -0.9102  0.9549 -1.2769
 3354TIP3    H210069   1.360   1.148   4.493  0.8215 -0.1796 -0.7744
 3355TIP3   OH210070   5.117   4.691   3.221 -0.2220 -0.6446  0.0776
 3355TIP3    H110071   5.189   4.754   3.231 -1.5538  0.9099  0.3968
 3355TIP3    H210072   5.156   4.618   3.172  1.4513  0.3251 -0.1338
 3356TIP3   OH210073   0.395   1.881   4.713 -0.3792  0.7528  0.1989
 3356TIP3    H110074   0.476   1.925   4.740  1.1556 -0.9771 -1.3383
 3356TIP3    H210075   0.395   1.800   4.764 -1.3154  0.8554  0.3753
 3357TIP3   OH210076   4.450   4.173   1.066  0.0079  0.4176 -0.6072
 3357TIP3    H110077   4.404   4.090   1.078  1.5492 -0.1187  2.7688
 3357TIP3    H210078   4.418   4.229   1.137  2.2263  1.0683 -0.0255
 3358TIP3   OH210079   3.334   5.157   5.148  0.5713  0.3685 -0.7026
 3358TIP3    H110080   3.270   5.199   5.090  0.9317  2.5735  0.3821
 3358TIP3    H210081   3.282   5.097   5.201 -0.2265  0.4622 -1.3569
 3359TIP3   OH210082   4.008   5.584   1.997 -0.3941  0.6637  0.1094
 3359TIP3    H110083   3.962   5.599   2.079  1.3008  0.8679  1.0788
 3359TIP3    H210084   4.062   5.506   2.013  0.4331  1.0727 -0.5764
 3360TIP3   OH210085   0.657   0.320   2.013  0.2735  0.3531  0.3036
 3360TIP3    H110086   0.624   0.231   2.003 -0.4294  0.4630  1.5427
 3360TIP3    H210087   0.618   0.369   1.940 -0.8808  0.0728  0.7189
 3361TIP3   OH210088   5.614   1.937   2.236 -0.2231  0.4300 -1.0534
 3361TIP3    H110089   5.680   1.956   2.169  1.1781 -1.1134 -0.1863
 3361TIP3    H210090   5.662   1.889   2.304 -1.8935  0.7642  0.4286
 3362TIP3   OH210091   0.929   1.337   4.984 -0.0258 -0.2346  0.1025
 3362TIP3    H110092   0.881   1.271   4.933 -0.2805  0.6704 -0.8699
 3362TIP3    H210093   0.882   1.342   5.067 -0.3775 -0.8181 -0.0498
 3363TIP3   OH210094   0.038   4.571   0.167  0.0496 -0.6759  0.0313
 3363TIP3    H110095   0.035   4.621   0.248 -0.1908  0.9453 -0.9250
 3363TIP3    H210096  -0.041   4.516   0.169  0.3141 -1.0359  1.1031
 3364TIP3   OH210097   0.415   4.721   1.986 -0.0914 -0.3436 -0.1146
 3364TIP3    H110098   0.501   4.679   1.990  1.4292  2.4643 -0.3496
 3364TIP3    H210099   0.394   4.741   2.077  0.3951  0.5008 -0.1700
 3365TIP3   OH210100   5.329   1.961   2.317  0.0025  0.5896 -0.3212
 3365TIP3    H110101   5.421   1.977   2.298 -0.2664  0.7890 -1.5697
 3365TIP3    H210102   5.327   1.877   2.362  0.6769 -0.2139 -1.7196
 3366TIP3   OH210103   1.740   4.500   3.154  0.0730  0.1230  0.0874
 3366TIP3    H110104   1.655   4.456   3.151  0.4658 -0.6202 -1.8970
 3366TIP3    H210105   1.786   4.459   3.227 -0.3730 -1.2460 -0.3771
 3367TIP3   OH210106   0.338   2.873   0.159  0.2837  0.1904  0.2229
 3367TIP3    H110107   0.293   2.866   0.244  0.2624 -0.4489  0.1684
 3367TIP3    H210108   0.431   2.879   0.182  0.3683 -1.0616  0.2773
 3368TIP3   OH210109   4.478   5.949   5.003  0.0571  0.0055 -0.3838
 3368TIP3    H110110   4.573   5.955   5.011  0.1268 -0.4442 -0.8256
 3368TIP3    H210111   4.464   5.895   4.926 -0.5589  1.3803 -1.2767
 3369TIP3   OH210112   3.956   5.260   4.080 -0.1516 -0.0551 -0.3592
 3369TIP3    H110113   3.919   5.325   4.140  0.0925  0.1609 -0.4381
 3369TIP3    H210114   4.031   5.224   4.126  0.3172  0.4493 -0.7155
 3370TIP3   OH210115   5.551   4.198   0.183 -0.2686  0.1177  0.0288
 3370TIP3    H110116   5.505   4.276   0.212 -0.7353  0.3592 -1.2762
 3370TIP3    H210117   5.588   4.222   0.098  0.0029 -0.9199 -0.1660
 3371TIP3   OH210118   3.574   4.292   4.030 -0.1330 -0.1013  0.1341
 3371TIP3    H110119   3.592   4.223   3.965 -0.5594  0.0067 -0.0999
 3371TIP3    H210120   3.496   4.262   4.076 -0.3747  0.2661 -0.0293
 3372TIP3   OH210121   1.373   1.243   1.239  0.5375  0.3249 -0.4998
 3372TIP3    H110122   1.324   1.251   1.321  2.2790 -0.9895  0.7426
 3372TIP3    H210123   1.330   1.304   1.179 -3.0940 -1.2752  0.2242
 3373TIP3   OH210124   5.511   3.983   3.907 -0.2542  0.0955  0.2253
 3373TIP3    H110125   5.529   3.916   3.972 -0.4752 -0.0793  0.1089
 3373TIP3    H210126   5.578   3.971   3.840 -0.1989  0.0922  0.2816
 3374TIP3   OH210127   3.775   4.949   3.688 -0.5496  0.6047  0.0398
 3374TIP3    H110128   3.726   4.882   3.736  0.8759 -0.5292 -0.0083
 3374TIP3    H210129   3.710   5.016   3.667 -2.0051 -0.7051  0.1782
 3375TIP3   OH210130   4.549   1.604   2.125  0.6324 -0.6742  0.2429
 3375TIP3    H110131   4.567   1.636   2.213  1.8228  1.5799 -0.7227
 3375TIP3    H210132   4.593   1.667   2.067 -0.1196 -2.0514 -1.9713
 3376TIP3   OH210133   3.270   1.577  -0.010 -0.4974 -0.2547  0.4665
 3376TIP3    H110134   3.268   1.620   0.075  0.1722 -2.0120  1.4397
 3376TIP3    H210135   3.193   1.520  -0.010 -1.1315  0.5509 -0.6075
 3377TIP3   OH210136   6.100   0.692   2.733  0.6205  0.3766  1.2090
 3377TIP3    H110137   6.136   0.618   2.685  1.7410  2.2572 -1.0684
 3377TIP3    H210138   6.007   0.674   2.741  1.1307 -2.1023  2.4505
 3378TIP3   OH210139   3.149   2.575   0.783 -0.5590 -0.6300  0.2049
 3378TIP3    H110140   3.171   2.569   0.689 -0.0433 -0.7950  0.3321
 3378TIP3    H210141   3.057   2.601   0.784 -1.0944 -2.3621 -0.3625
 3379TIP3   OH210142   1.527   4.331   4.332 -0.0866  0.0147 -0.3340
 3379TIP3    H110143   1.484   4.376   4.258  0.5438 -0.1119 -0.7820
 3379TIP3    H210144   1.620   4.334   4.310  0.0806 -0.2386  0.3467
 3380TIP3   OH210145   3.948   1.911   1.375 -0.1172  0.2094  0.5653
 3380TIP3    H110146   3.987   1.882   1.457  2.0688 -1.8429 -1.0365
 3380TIP3    H210147   3.857   1.882   1.379  0.0408 -0.1587  2.0959
 3381TIP3   OH210148   0.299   4.725   1.254  0.7082  0.9030  0.0495
 3381TIP3    H110149   0.300   4.802   1.310  1.6483  1.4643 -0.7113
 3381TIP3    H210150   0.390   4.712   1.229  0.6576 -0.7789  0.5826
 3382TIP3   OH210151   0.193   2.244   0.628  0.5033 -0.2206  1.0530
 3382TIP3    H110152   0.164   2.294   0.552  0.6162 -2.2761 -0.4238
 3382TIP3    H210153   0.270   2.197   0.597 -0.7762 -2.9045  1.6556
 3383TIP3   OH210154   2.145   3.311   2.906  0.4176  0.0605 -0.4713
 3383TIP3    H110155   2.174   3.393   2.944 -0.0698 -0.3381  0.7942
 3383TIP3    H210156   2.060   3.330   2.868  0.5979  0.2915 -0.7647
 3384TIP3   OH210157   2.848   4.925   0.247  0.2872  0.2368  0.5512
 3384TIP3    H110158   2.779   4.891   0.305  0.5579 -0.6512  0.3756
 3384TIP3    H210159   2.813   4.912   0.159 -0.8397  3.1224  0.4850
 3385TIP3   OH210160   1.734   4.660   3.748 -0.1403  0.0585 -0.1047
 3385TIP3    H110161   1.736   4.747   3.707  0.7265  0.5637  0.9399
 3385TIP3    H210162   1.650   4.657   3.794 -0.5811 -0.0344 -0.9053
 3386TIP3   OH210163   3.272   2.497   3.939  0.3612  0.2600 -0.1233
 3386TIP3    H110164   3.189   2.450   3.949  1.2895 -1.5004 -0.2548
 3386TIP3    H210165   3.248   2.579   3.898 -1.3465 -0.1005  0.0523
 3387TIP3   OH210166   2.470   2.560   4.613 -0.4135 -0.8555 -0.5699
 3387TIP3    H110167   2.548   2.605   4.582 -1.0438 -0.6215 -1.9025
 3387TIP3    H210168   2.408   2.565   4.540 -1.9256 -0.4585  0.6619
 3388TIP3   OH210169   1.220   0.564   3.589  0.0792 -0.7224 -0.2807
 3388TIP3    H110170   1.189   0.473   3.593  0.1118 -0.7094  0.3865
 3388TIP3    H210171   1.201   0.599   3.676  2.4928 -0.8715  0.3592
 3389TIP3   OH210172   0.859   2.905   0.969  0.0868 -0.4260 -0.6889
 3389TIP3    H110173   0.785   2.963   0.951 -0.3430 -0.2880  1.2675
 3389TIP3    H210174   0.894   2.882   0.883 -1.5342  0.4071 -1.6085
 3390TIP3   OH210175   0.061   3.462   1.932  0.3928 -0.0822  0.1654
 3390TIP3    H110176   0.026   3.440   1.846 -1.7819 -0.0865  0.9893
 3390TIP3    H210177   0.067   3.377   1.977 -0.3044  0.1200  0.6480
 3391TIP3   OH210178   5.381   2.486   1.669 -0.2704  0.2919  0.4597
 3391TIP3    H110179   5.410   2.571   1.701 -0.5046  1.1748 -1.5178
 3391TIP3    H210180   5.316   2.507   1.601 -2.2209 -1.5303  1.6462
 3392TIP3   OH210181   4.152   1.827   3.202  0.2384 -0.5993 -0.2609
 3392TIP3    H110182   4.148   1.875   3.285  2.4039  0.9602 -0.9741
 3392TIP3    H210183   4.085   1.759   3.211 -1.8964  1.5283  1.4440
 3393TIP3   OH210184   2.363   5.040   2.998 -0.2089  0.3685  0.2876
 3393TIP3    H110185   2.297   5.027   2.929  0.9332  0.5134 -0.8706
 3393TIP3    H210186   2.368   4.956   3.042 -0.1347 -0.1006 -0.5802
 3394TIP3   OH210187   5.552   2.111   2.585 -0.1727  0.6105  0.6213
 3394TIP3    H110188   5.528   2.183   2.526  0.4073  0.5356  0.2850
 3394TIP3    H210189   5.486   2.044   2.570 -0.4183  0.8645  0.5575
 3395TIP3   OH210190   1.809   3.921   4.896  0.0119  0.3792 -0.3314
 3395TIP3    H110191   1.784   3.832   4.871 -1.0433  0.4493  0.3968
 3395TIP3    H210192   1.902   3.926   4.875  0.1082 -0.9230 -0.3239
 3396TIP3   OH210193   4.816   1.365   2.942  0.4957 -0.3238 -0.2249
 3396TIP3    H110194   4.753   1.296   2.921  1.9496 -1.6019 -0.6130
 3396TIP3    H210195   4.870   1.327   3.012  0.4507  0.9860  0.5448
 3397TIP3   OH210196   1.483   3.004   3.920  0.0466 -0.8097  0.3433
 3397TIP3    H110197   1.504   2.940   3.853  0.6637  0.5411 -0.8163
 3397TIP3    H210198   1.566   3.016   3.968 -0.3090 -1.5383  1.1626
 3398TIP3   OH210199   3.136   1.872   3.982  0.3689  0.1865  0.1081
 3398TIP3    H110200   3.067   1.938   3.978 -1.9228 -1.7021  3.7508
 3398TIP3    H210201   3.110   1.806   3.918 -1.1349 -0.3330  1.1965
 3399TIP3   OH210202   5.942   4.548   3.467  0.4602 -0.1967 -0.2844
 3399TIP3    H110203   5.873   4.505   3.518  0.1494  0.8302  0.2002
 3399TIP3    H210204   5.895   4.588   3.393  0.7097 -0.5122 -0.6124
 3400TIP3   OH210205   3.014   0.117   0.538 -0.3190 -0.4468  0.3243
 3400TIP3    H110206   2.993   0.055   0.607 -0.5434 -0.3391  0.3531
 3400TIP3    H210207   3.052   0.192   0.583 -1.5867  0.1318  0.4506
 3401TIP3   OH210208   3.290   0.083   0.358 -0.1760  0.1031  0.0713
 3401TIP3    H110209   3.337   0.160   0.391  0.5997 -0.8492  1.2946
 3401TIP3    H210210   3.200   0.094   0.391  0.1993 -0.0329  1.1813
 3402TIP3   OH210211   5.600   4.950   3.037  0.4489 -0.1071 -0.2804
 3402TIP3    H110212   5.603   5.001   2.956  0.4307 -0.8299 -0.7433
 3402TIP3    H210213   5.690   4.948   3.068  0.3921  0.5045 -0.0677
 3403TIP3   OH210214   6.170   5.738   3.728  0.1600 -0.4114 -0.6017
 3403TIP3    H110215   6.265   5.741   3.713  0.4646 -1.0691  0.9943
 3403TIP3    H210216   6.154   5.808   3.791 -0.1248 -1.3423  0.3999
 3404TIP3   OH210217   2.139   3.864   4.274  0.4648  0.0472 -0.4875
 3404TIP3    H110218   2.065   3.861   4.214  0.7106 -1.7143 -0.7499
 3404TIP3    H210219   2.207   3.912   4.227 -0.9901  3.2946  0.4186
 3405TIP3   OH210220   5.665   4.123   4.803 -0.4657  0.0333 -0.6937
 3405TIP3    H110221   5.702   4.185   4.867 -1.1145 -0.3040  0.0301
 3405TIP3    H210222   5.718   4.045   4.812 -0.9598 -0.2405 -0.0889
 3406TIP3   OH210223   5.513   0.057   0.631 -0.5756  0.1835  0.1833
 3406TIP3    H110224   5.574  -0.001   0.586 -0.8602 -0.2089  0.2971
 3406TIP3    H210225   5.556   0.076   0.714 -1.1341 -1.0760  0.7862
 3407TIP3   OH210226   0.692   5.850   3.541 -0.2769  0.2262  0.4123
 3407TIP3    H110227   0.755   5.909   3.583 -1.3620  0.8783  1.1527
 3407TIP3    H210228   0.617   5.905   3.520 -0.7560 -0.6149 -0.1384
 3408TIP3   OH210229   4.803   4.265   2.057 -0.1111 -0.0105 -0.8822
 3408TIP3    H110230   4.859   4.211   2.002  0.1527 -2.1900  1.3703
 3408TIP3    H210231   4.756   4.203   2.113 -4.0888  1.7428 -1.8897
 3409TIP3   OH210232   3.683   5.672   2.392  0.4680 -0.0948 -0.3915
 3409TIP3    H110233   3.599   5.703   2.357  0.6661  1.7294  0.6515
 3409TIP3    H210234   3.664   5.649   2.483  1.5180  2.6976  0.6465
 3410TIP3   OH210235   2.098   3.518   4.209 -0.0977 -0.2445  0.0815
 3410TIP3    H110236   2.038   3.497   4.137 -0.3166  1.6992 -0.3783
 3410TIP3    H210237   2.165   3.574   4.169 -0.0997  0.7020  1.3212
 3411TIP3   OH210238   4.855   1.305   3.409  0.4175  0.6225  0.3738
 3411TIP3    H110239   4.829   1.274   3.496 -0.2844  0.4301  0.0982
 3411TIP3    H210240   4.885   1.395   3.424 -0.1682  0.7632  0.7372
 3412TIP3   OH210241   2.586   2.343   1.226 -0.3181  0.1046 -0.7309
 3412TIP3    H110242   2.611   2.356   1.317 -0.1183 -0.3853 -0.7114
 3412TIP3    H210243   2.491   2.336   1.227 -0.3840  0.9294 -0.6706
 3413TIP3   OH210244   4.461   2.531   2.705 -0.7808  0.4680  0.2537
 3413TIP3    H110245   4.426   2.605   2.656 -0.9358  0.3456  0.1796
 3413TIP3    H210246   4.508   2.479   2.641 -1.4113  0.0387  0.1295
 3414TIP3   OH210247   6.314   2.082   0.722  0.2737 -0.0857 -0.0954
 3414TIP3    H110248   6.344   1.998   0.757  0.9932  1.1144  2.2978
 3414TIP3    H210249   6.394   2.131   0.704 -0.1385  0.0690 -1.7093
 3415TIP3   OH210250   0.368   1.479   4.297  0.3729  0.4528  0.0951
 3415TIP3    H110251   0.316   1.415   4.344  1.4363  0.3984  1.2548
 3415TIP3    H210252   0.401   1.538   4.365  2.4775  0.0066 -0.4663
 3416TIP3   OH210253   3.041   2.722   2.927 -0.8158 -0.1281 -0.1726
 3416TIP3    H110254   3.129   2.736   2.892 -0.0886 -2.1474  0.6732
 3416TIP3    H210255   3.010   2.809   2.951  1.6988  0.4714  1.2040
 3417TIP3   OH210256   5.647   3.215   0.922 -0.4114 -0.1468  0.2566
 3417TIP3    H110257   5.559   3.178   0.910 -0.2339 -0.3892 -0.3713
 3417TIP3    H210258   5.701   3.139   0.946 -0.3171 -0.0532  0.3388
 3418TIP3   OH210259   0.173   2.816   0.677  0.4568 -0.1719  0.4304
 3418TIP3    H110260   0.234   2.763   0.728  1.3943 -0.5363 -1.0242
 3418TIP3    H210261   0.194   2.906   0.702  2.5924 -0.1964 -1.0448
 3419TIP3   OH210262   2.138   4.983   2.829  0.0341 -0.3424 -0.1072
 3419TIP3    H110263   2.066   4.920   2.830 -1.5511  1.3551  0.8798
 3419TIP3    H210264   2.109   5.051   2.768  1.2649 -0.0913 -0.4391
 3420TIP3   OH210265   4.071   5.779   2.608  0.0436 -0.3536  0.1365
 3420TIP3    H110266   4.097   5.688   2.626  0.8699  0.1612  1.6876
 3420TIP3    H210267   4.091   5.791   2.515 -1.4784 -2.1945 -0.4891
 3421TIP3   OH210268   3.473   4.953   4.421 -0.3634  0.3384 -0.0050
 3421TIP3    H110269   3.473   4.957   4.517 -0.2177  1.0494 -0.0337
 3421TIP3    H210270   3.382   4.942   4.397 -0.2108 -2.6652  0.3130
 3422TIP3   OH210271   1.853   3.937   5.184  0.2315 -0.1593 -0.9866
 3422TIP3    H110272   1.807   3.912   5.104 -0.1076 -1.2506 -0.4563
 3422TIP3    H210273   1.847   3.861   5.241 -0.1633  0.8623  0.3844
 3423TIP3   OH210274   2.622   5.041   1.190 -0.1355 -0.5752  0.2157
 3423TIP3    H110275   2.701   5.021   1.139 -1.1709  0.8399 -2.0692
 3423TIP3    H210276   2.655   5.068   1.276  2.0839  2.1136 -1.3230
 3424TIP3   OH210277   1.913   2.306   3.844  0.5001 -0.0404 -1.1285
 3424TIP3    H110278   1.903   2.396   3.875  2.4818 -0.3486  0.5981
 3424TIP3    H210279   1.898   2.312   3.749 -2.1287  1.5794 -0.7244
 3425TIP3   OH210280   1.042   2.858   4.296  0.0618 -0.1536  0.0216
 3425TIP3    H110281   0.977   2.827   4.360 -0.0573 -1.3651 -0.6583
 3425TIP3    H210282   1.063   2.946   4.325  1.7152 -1.4008  3.1060
 3426TIP3   OH210283   3.268   1.546   0.289 -0.3117 -0.3778  0.0250
 3426TIP3    H110284   3.203   1.606   0.324  0.9101  0.3717  1.0833
 3426TIP3    H210285   3.252   1.464   0.336 -0.9060 -0.3959 -0.2001
 3427TIP3   OH210286   4.689   5.535   5.013  0.0946 -0.3555  0.0300
 3427TIP3    H110287   4.774   5.580   5.010 -0.7889  1.4336 -2.9338
 3427TIP3    H210288   4.694   5.471   4.942 -1.5852  1.1226 -1.5360
 3428TIP3   OH210289   1.309   5.088   1.652  0.1115 -0.2194  0.0248
 3428TIP3    H110290   1.215   5.101   1.643  0.2401  0.2611 -0.7782
 3428TIP3    H210291   1.319   5.030   1.728 -0.8803 -1.2150 -0.5851
 3429TIP3   OH210292   5.764   4.081   0.638 -0.2853 -0.4927  0.1301
 3429TIP3    H110293   5.762   4.133   0.718  0.0782  1.6630 -1.1746
 3429TIP3    H210294   5.811   4.001   0.663 -0.4602 -0.0342  2.1237
 3430TIP3   OH210295   1.138   1.326   3.988  0.4732 -0.5823 -0.0976
 3430TIP3    H110296   1.053   1.296   4.020 -0.1994  0.1912 -1.1176
 3430TIP3    H210297   1.194   1.324   4.065 -0.3212 -1.6006  0.4829
 3431TIP3   OH210298   3.185   4.297   2.707 -0.3521 -0.2179  0.1608
 3431TIP3    H110299   3.248   4.331   2.770  0.2103  0.8732 -0.9636
 3431TIP3    H210300   3.141   4.374   2.672 -2.3677 -0.9436  0.9218
 3432TIP3   OH210301   0.456   3.335   4.261 -0.4503  0.3994  0.0940
 3432TIP3    H110302   0.370   3.346   4.302 -0.2607 -0.1366  0.6498
 3432TIP3    H210303   0.508   3.408   4.293 -0.6923  0.7157 -0.2296
 3433TIP3   OH210304   6.069   5.895   0.817 -0.0187 -0.6587 -0.4246
 3433TIP3    H110305   6.165   5.892   0.814 -0.0136 -0.8558 -0.0973
 3433TIP3    H210306   6.045   5.958   0.749  0.3561 -0.3620 -0.2848
 3434TIP3   OH210307   3.943   2.790   2.066 -0.1301  0.0759  0.2055
 3434TIP3    H110308   3.942   2.886   2.061 -0.1177  0.0184 -1.3706
 3434TIP3    H210309   3.855   2.764   2.040 -0.1922 -0.3447  0.8216
 3435TIP3   OH210310   2.669   1.810   1.929 -0.2882 -0.0796  0.2820
 3435TIP3    H110311   2.644   1.719   1.947 -1.2930 -0.2210 -1.5632
 3435TIP3    H210312   2.752   1.822   1.976  0.3856 -2.2580 -0.2267
 3436TIP3   OH210313   5.359   3.826   2.243  0.2515  0.5006 -0.0433
 3436TIP3    H110314   5.430   3.856   2.299  0.3582 -0.1270  0.1592
 3436TIP3    H210315   5.343   3.736   2.270  0.0037  0.3376 -0.7183
 3437TIP3   OH210316   4.874   3.067   0.975 -0.2269 -0.1010 -0.2955
 3437TIP3    H110317   4.922   2.997   1.021 -0.4388 -0.3127 -0.3947
 3437TIP3    H210318   4.940   3.110   0.921 -0.1125 -0.2761 -0.2947
 3438TIP3   OH210319   1.425   5.855   4.909 -0.2814 -0.2336 -0.4801
 3438TIP3    H110320   1.511   5.888   4.931 -0.1123 -1.1849  0.3537
 3438TIP3    H210321   1.366   5.930   4.921 -0.0502 -0.4033  2.2449
 3439TIP3   OH210322   1.316   0.298   2.670 -0.1169  0.0792 -0.0202
 3439TIP3    H110323   1.375   0.314   2.597  0.9910  1.0869  1.0659
 3439TIP3    H210324   1.269   0.381   2.682 -1.2782 -0.4947 -0.4220
 3440TIP3   OH210325   1.522   4.343   2.149 -0.6154 -0.3073 -0.1538
 3440TIP3    H110326   1.591   4.297   2.196  2.1773  0.6117 -3.0331
 3440TIP3    H210327   1.485   4.278   2.090 -1.3867 -0.4710  0.4879
 3441TIP3   OH210328   1.134   2.993   2.297 -0.0768  0.3170 -0.1879
 3441TIP3    H110329   1.137   2.908   2.342 -0.2190  0.9180  0.9939
 3441TIP3    H210330   1.041   3.011   2.286 -0.0591  0.5612  0.0502
 3442TIP3   OH210331   0.175   5.147   1.900  0.2875  0.0803 -0.0557
 3442TIP3    H110332   0.146   5.082   1.836  2.1749  0.7247 -1.6783
 3442TIP3    H210333   0.216   5.097   1.969  0.2886 -0.5405 -0.4979
 3443TIP3   OH210334   0.183   2.084   1.079 -0.0421 -0.4824 -0.1521
 3443TIP3    H110335   0.231   2.148   1.026  0.7500 -0.9282  0.0151
 3443TIP3    H210336   0.109   2.058   1.024 -0.4970  0.7232 -0.1397
 3444TIP3   OH210337   2.451   1.685   0.439 -0.0416 -0.3017  0.3251
 3444TIP3    H110338   2.414   1.653   0.521  1.9389  1.0803  1.8478
 3444TIP3    H210339   2.454   1.780   0.449  0.8577 -0.1509 -1.0755
 3445TIP3   OH210340   2.402   4.887   1.055 -0.0924  0.0458  0.2842
 3445TIP3    H110341   2.386   4.981   1.070 -1.7815 -0.3688  1.4039
 3445TIP3    H210342   2.494   4.875   1.076 -0.0200  1.3371  0.8451
 3446TIP3   OH210343   4.339   5.899   3.223  0.4726  0.2375 -0.1857
 3446TIP3    H110344   4.261   5.844   3.226 -0.7354  1.7714 -1.3506
 3446TIP3    H210345   4.305   5.988   3.211  2.3914  0.9973 -0.3699
 3447TIP3   OH210346   2.976   3.001   2.087  0.3423  0.2568 -0.0268
 3447TIP3    H110347   2.927   3.033   2.163  1.1213  0.2071  0.5017
 3447TIP3    H210348   3.048   3.062   2.077  0.8024 -0.2952 -0.1332
 3448TIP3   OH210349   3.404   3.405   0.724  0.4830  0.1934  0.8569
 3448TIP3    H110350   3.427   3.487   0.768 -0.1361  0.2128  1.1614
 3448TIP3    H210351   3.395   3.429   0.632 -3.3630  1.3581  1.3622
 3449TIP3   OH210352   2.721   2.249   3.898 -0.0998 -0.5249 -0.2927
 3449TIP3    H110353   2.731   2.268   3.805  1.9119 -2.2384 -0.4848
 3449TIP3    H210354   2.627   2.258   3.914 -0.3384  0.9745 -2.1942
 3450TIP3   OH210355   0.761   2.034   0.568 -0.2852 -0.0973  0.3280
 3450TIP3    H110356   0.839   1.993   0.604 -1.4037  0.0703  3.3144
 3450TIP3    H210357   0.786   2.125   0.552  0.5457 -0.4348 -0.3022
 3451TIP3   OH210358   3.652   1.284   4.527 -0.0365 -0.1146 -0.3525
 3451TIP3    H110359   3.694   1.316   4.607 -1.1541  1.2690 -0.2899
 3451TIP3    H210360   3.689   1.337   4.457  1.2973 -1.6429 -0.8712
 3452TIP3   OH210361   3.655   2.022   3.837 -0.1737  0.1228  0.1799
 3452TIP3    H110362   3.623   2.050   3.751  0.8528 -0.2785 -0.3519
 3452TIP3    H210363   3.694   2.101   3.875 -0.2502  0.2003  0.0983
 3453TIP3   OH210364   0.231   0.841   0.531  0.1970  0.2640  0.4662
 3453TIP3    H110365   0.252   0.934   0.533  2.6369 -0.1117 -1.9911
 3453TIP3    H210366   0.275   0.805   0.608  1.0798  0.8461  0.2442
 3454TIP3   OH210367   3.647   5.880   2.735  0.2079 -0.1448  0.2882
 3454TIP3    H110368   3.722   5.878   2.676 -0.2426 -1.3494 -0.2863
 3454TIP3    H210369   3.576   5.918   2.683  0.2067  0.2704  0.5823
 3455TIP3   OH210370   5.163   0.123   2.399  0.2359 -0.0832 -0.2969
 3455TIP3    H110371   5.232   0.077   2.446 -0.1146 -1.4175 -1.0308
 3455TIP3    H210372   5.209   0.192   2.351  0.5866  1.3019  1.9431
 3456TIP3   OH210373   0.535   3.839   3.865 -0.3004 -0.1597  0.4089
 3456TIP3    H110374   0.592   3.790   3.923 -0.1006 -0.4497 -0.0237
 3456TIP3    H210375   0.463   3.779   3.846  0.0353 -0.3599 -0.2647
 3457TIP3   OH210376   3.502   3.962   3.228 -0.3115  0.2000 -0.6413
 3457TIP3    H110377   3.546   4.012   3.297 -0.7606  1.8164 -1.4876
 3457TIP3    H210378   3.574   3.917   3.182  0.3968  1.9318 -1.3104
 3458TIP3   OH210379   5.107   2.196   0.401  0.0790  0.6101 -0.2860
 3458TIP3    H110380   5.114   2.207   0.306 -0.4698  2.7559 -0.1282
 3458TIP3    H210381   5.018   2.223   0.423  0.7433  1.9643  1.0046
 3459TIP3   OH210382   2.049   0.126   2.027  0.0443  0.1551 -0.1456
 3459TIP3    H110383   1.956   0.149   2.024 -0.0022  0.0435  0.2788
 3459TIP3    H210384   2.049   0.032   2.046  0.2379  0.5776  2.3121
 3460TIP3   OH210385   3.285   1.721   0.899 -0.5972  0.4211 -0.1071
 3460TIP3    H110386   3.228   1.646   0.917 -0.0348  0.2279  1.0157
 3460TIP3    H210387   3.238   1.773   0.835  0.0712 -2.1535 -2.8998
 3461TIP3   OH210388   3.387   4.236   1.734  0.0888  0.0033 -0.1937
 3461TIP3    H110389   3.361   4.224   1.825  3.1717  3.6406  1.4804
 3461TIP3    H210390   3.466   4.183   1.724  1.0084  1.2655  0.0651
 3462TIP3   OH210391   2.870   2.566   4.144 -0.1806 -0.2046 -0.1791
 3462TIP3    H110392   2.868   2.618   4.063 -0.4763  2.0893  1.1889
 3462TIP3    H210393   2.788   2.588   4.188 -0.2759 -1.8433  0.5060
 3463TIP3   OH210394   3.374   0.248   4.755  0.0983 -0.4608 -0.0271
 3463TIP3    H110395   3.452   0.303   4.749  1.4210 -2.2983 -0.5788
 3463TIP3    H210396   3.319   0.276   4.683 -0.0280  1.2335  0.6941
 3464TIP3   OH210397   1.534   4.414   4.604 -0.5088  0.2589 -0.5405
 3464TIP3    H110398   1.550   4.383   4.515 -1.4084  0.8399 -0.9271
 3464TIP3    H210399   1.487   4.343   4.647  0.2297 -0.1594 -0.4133
 3465TIP3   OH210400   3.234   4.543   3.433 -0.1011  0.0984  0.5364
 3465TIP3    H110401   3.247   4.452   3.405 -3.5680  0.1689 -2.1095
 3465TIP3    H210402   3.265   4.595   3.358 -0.0218  0.9908  1.1781
 3466TIP3   OH210403   1.837   1.017   0.876  0.0526  0.5265  0.5986
 3466TIP3    H110404   1.852   0.926   0.903 -1.6865 -0.0010 -0.0742
 3466TIP3    H210405   1.925   1.055   0.872  0.8826 -1.3065  0.2577
 3467TIP3   OH210406   1.502   5.277   3.864 -0.1810  1.0519 -0.0293
 3467TIP3    H110407   1.586   5.300   3.824  0.6030  1.9527  1.9889
 3467TIP3    H210408   1.492   5.184   3.845  2.6317  0.2404  1.8572
 3468TIP3   OH210409   4.361   2.233   3.731  0.5514 -0.7074  0.2208
 3468TIP3    H110410   4.380   2.327   3.728  0.3253 -0.6066  1.3625
 3468TIP3    H210411   4.329   2.212   3.643  1.2529  0.1390 -0.2486
 3469TIP3   OH210412   2.374   5.175   1.092 -0.0644  0.2554  0.6038
 3469TIP3    H110413   2.469   5.183   1.095 -0.1765  1.3523  2.9495
 3469TIP3    H210414   2.343   5.212   1.175 -2.4962 -0.8095  0.2739
 3470TIP3   OH210415   1.342   3.462   1.180 -0.3188  0.6740  0.1303
 3470TIP3    H110416   1.377   3.514   1.107 -0.3837 -1.3149 -1.4090
 3470TIP3    H210417   1.417   3.412   1.212 -0.6088  0.4195  0.4182
 3471TIP3   OH210418   4.680   2.970   4.804  0.1465  0.1222 -0.4216
 3471TIP3    H110419   4.743   2.904   4.833  0.1324 -0.3111 -1.3685
 3471TIP3    H210420   4.613   2.972   4.873  1.9552  1.7078  1.4162
 3472TIP3   OH210421   4.409   2.373   1.261 -0.8150 -0.4324  0.5406
 3472TIP3    H110422   4.380   2.293   1.306 -0.2559 -0.3897  0.9801
 3472TIP3    H210423   4.504   2.366   1.259 -0.8354 -0.5791 -0.9196
 3473TIP3   OH210424   4.239   4.480   2.625  0.1878  0.2940  0.0723
 3473TIP3    H110425   4.156   4.491   2.579  1.0931 -1.2510 -2.1140
 3473TIP3    H210426   4.227   4.402   2.678  0.0789  0.3966  0.2007
 3474TIP3   OH210427   2.715   0.202   2.925 -0.0818  0.3666  0.0367
 3474TIP3    H110428   2.691   0.128   2.869 -2.5472  1.9886 -1.2515
 3474TIP3    H210429   2.646   0.267   2.909  0.7319  2.0669  2.8044
 3475TIP3   OH210430   1.783   3.669   4.786  0.1820  0.5013 -0.1187
 3475TIP3    H110431   1.776   3.576   4.763 -0.5475  0.6803 -0.6843
 3475TIP3    H210432   1.781   3.714   4.701  0.8975  1.0171  0.1317
 3476TIP3   OH210433   3.404   3.832   4.073 -0.2279 -0.0104 -0.1015
 3476TIP3    H110434   3.450   3.858   4.153 -1.5509  1.4139  0.2521
 3476TIP3    H210435   3.342   3.765   4.101  0.0625 -0.2978 -0.1448
 3477TIP3   OH210436   1.547   2.680   3.530 -0.0661 -0.5841 -0.4983
 3477TIP3    H110437   1.572   2.700   3.620  0.1659  0.6086 -0.8166
 3477TIP3    H210438   1.517   2.589   3.534 -2.2872  0.1393  1.2500
 3478TIP3   OH210439   5.027   0.476   4.806  0.3012  1.0029  0.2200
 3478TIP3    H110440   4.942   0.483   4.763  0.0804  1.1896  0.6774
 3478TIP3    H210441   5.014   0.516   4.892  0.0940 -1.3861  1.3875
 3479TIP3   OH210442   6.085   3.304   3.655  0.9493 -0.0933  0.1725
 3479TIP3    H110443   6.130   3.230   3.613  0.0599 -0.2815 -0.4745
 3479TIP3    H210444   6.028   3.264   3.720  1.8999  0.1652  1.1953
 3480TIP3   OH210445   2.169   5.557   3.868  0.0920  0.1122  0.0560
 3480TIP3    H110446   2.246   5.600   3.905 -0.6469  1.8422 -0.3274
 3480TIP3    H210447   2.115   5.535   3.944  0.9026 -1.0579  0.3219
 3481TIP3   OH210448   0.606   0.937   4.403 -0.5095 -0.3179  0.5507
 3481TIP3    H110449   0.636   0.849   4.379  0.1428  0.0283  0.0919
 3481TIP3    H210450   0.624   0.943   4.497  2.4139  0.4555  0.0446
 3482TIP3   OH210451   3.914   2.833   1.690 -0.2908 -0.1439 -0.2771
 3482TIP3    H110452   3.917   2.737   1.688 -0.2009 -0.1792  1.0258
 3482TIP3    H210453   3.997   2.860   1.651 -0.2016 -0.5911 -0.4070
 3483TIP3   OH210454   1.669   0.976   2.422 -0.0118  0.5734 -0.3109
 3483TIP3    H110455   1.745   1.031   2.441  0.3931 -0.1119  0.0797
 3483TIP3    H210456   1.704   0.888   2.416 -0.4828  0.4733 -2.0503
 3484TIP3   OH210457   3.264   2.754   2.770  0.4944  0.4657 -0.0160
 3484TIP3    H110458   3.221   2.811   2.706  1.7505  1.4893  0.0037
 3484TIP3    H210459   3.335   2.713   2.721  1.7040  1.5410  0.7610
 3485TIP3   OH210460   5.052   0.504   0.332 -0.2214  0.1888  0.1818
 3485TIP3    H110461   5.108   0.557   0.275  1.6531 -3.4264 -1.7067
 3485TIP3    H210462   5.089   0.517   0.420  0.4368  1.5955 -0.2639
 3486TIP3   OH210463   0.510   3.585   4.413 -0.5318  0.2538  0.3538
 3486TIP3    H110464   0.551   3.654   4.362 -0.7855 -0.2697 -0.5677
 3486TIP3    H210465   0.547   3.595   4.501  0.5790  0.5978 -0.1461
 3487TIP3   OH210466   5.136   4.645   4.595  0.1860 -0.2458  0.5810
 3487TIP3    H110467   5.043   4.666   4.587 -0.0477 -1.7760 -1.3943
 3487TIP3    H210468   5.177   4.686   4.518  0.9521 -0.5788  0.7966
 3488TIP3   OH210469   5.241   2.557   1.421 -0.0329  0.0040  0.1840
 3488TIP3    H110470   5.153   2.571   1.385 -0.5137 -1.7788  0.5521
 3488TIP3    H210471   5.288   2.512   1.351  0.6724  1.0996 -0.0743
 3489TIP3   OH210472   2.169   4.580   4.554 -0.4473 -0.3706 -0.1031
 3489TIP3    H110473   2.144   4.592   4.463 -2.7163  2.2831  0.7400
 3489TIP3    H210474   2.086   4.570   4.601  0.5166  0.6616  1.9282
 3490TIP3   OH210475   1.691   5.544   2.210 -0.0559 -0.0354  0.1633
 3490TIP3    H110476   1.716   5.461   2.251 -0.4061  0.1032  0.6721
 3490TIP3    H210477   1.595   5.543   2.211 -0.1387 -0.8159 -2.2713
 3491TIP3   OH210478   5.000   4.086   1.132  0.2469 -0.6542 -0.0471
 3491TIP3    H110479   5.045   4.135   1.202 -0.7978 -1.4023  1.1896
 3491TIP3    H210480   5.052   4.104   1.054  0.2685  1.9278  0.4572
 3492TIP3   OH210481   2.348   1.864   4.061  0.5193  0.3357 -0.4258
 3492TIP3    H110482   2.317   1.929   3.998  1.1153 -0.7669 -1.8916
 3492TIP3    H210483   2.417   1.909   4.109 -0.9243  1.6762  0.5264
 3493TIP3   OH210484   3.672   1.540   4.834  0.9830 -0.3715 -0.2274
 3493TIP3    H110485   3.676   1.446   4.853 -2.1295 -0.4208  0.6710
 3493TIP3    H210486   3.733   1.552   4.761 -0.0220 -3.4676 -1.7447
 3494TIP3   OH210487   3.346   5.533   4.187 -0.6362 -0.0938 -0.0472
 3494TIP3    H110488   3.375   5.468   4.123 -0.6334  0.5210 -0.6850
 3494TIP3    H210489   3.419   5.540   4.249 -0.3790 -0.2408 -0.3316
 3495TIP3   OH210490   6.149   0.991   3.203  0.3169 -0.0876 -0.0431
 3495TIP3    H110491   6.132   0.980   3.109  0.8098 -0.3144 -0.1124
 3495TIP3    H210492   6.075   0.948   3.246  0.7657 -1.1867 -0.3286
 3496TIP3   OH210493   4.247   0.889   4.298 -0.3090  0.2765 -0.4104
 3496TIP3    H110494   4.276   0.979   4.318  0.0591 -0.1263  0.9933
 3496TIP3    H210495   4.328   0.838   4.294 -0.6253 -0.4809  1.5384
 3497TIP3   OH210496   6.247   2.278   4.811  0.4924  0.3840 -0.5784
 3497TIP3    H110497   6.295   2.248   4.888  1.0863  1.1192 -0.6519
 3497TIP3    H210498   6.291   2.236   4.738 -0.0834 -0.3285 -0.5260
 3498TIP3   OH210499   3.234   3.597   0.071  0.1718 -0.3004 -0.0365
 3498TIP3    H110500   3.293   3.658   0.116 -0.3172 -1.1768  1.9112
 3498TIP3    H210501   3.165   3.653   0.035 -0.5080  0.3571  2.0854
 3499TIP3   OH210502   6.237   0.412   2.223  0.6712 -0.1870  0.2042
 3499TIP3    H110503   6.311   0.361   2.255 -1.2661 -1.6384  2.8044
 3499TIP3    H210504   6.169   0.347   2.206 -1.3835  1.2975  2.1191
 3500TIP3   OH210505   4.747   4.227   0.580 -0.6202  0.6147  0.3985
 3500TIP3    H110506   4.756   4.183   0.664  0.8966  0.6812  0.2880
 3500TIP3    H210507   4.665   4.194   0.544 -0.8703 -0.0319  1.5276
 3501TIP3   OH210508   5.825   0.531   1.884  0.3035 -0.1417  0.3150
 3501TIP3    H110509   5.809   0.589   1.810 -0.4468 -0.0815  0.5192
 3501TIP3    H210510   5.902   0.480   1.859  0.9206  0.8753  0.1001
 3502TIP3   OH210511   2.591   4.419   2.486  0.0665 -0.3233  0.3785
 3502TIP3    H110512   2.556   4.493   2.536  1.0135  0.8790 -0.6575
 3502TIP3    H210513   2.567   4.342   2.537 -1.3141  0.6539  1.2928
 3503TIP3   OH210514   2.911   5.127   2.538  0.4360 -0.2674 -0.1598
 3503TIP3    H110515   2.881   5.124   2.629  0.0372 -0.9703 -0.3046
 3503TIP3    H210516   2.898   5.218   2.511 -1.8802 -0.5767 -0.3125
 3504TIP3   OH210517   2.794   3.793   5.206 -0.0102  0.3330 -0.4080
 3504TIP3    H110518   2.851   3.717   5.195 -2.4915 -1.8013  0.3824
 3504TIP3    H210519   2.762   3.813   5.118  1.2718  1.0760 -0.7406
 3505TIP3   OH210520   6.348   0.453   3.708  0.2142  0.2935  0.2973
 3505TIP3    H110521   6.289   0.495   3.770 -0.8332  0.5165 -0.7930
 3505TIP3    H210522   6.396   0.526   3.667 -0.4685  0.3243 -0.4766
 3506TIP3   OH210523   0.281   0.867   5.135 -0.4135 -0.7477  0.0256
 3506TIP3    H110524   0.360   0.830   5.096  0.1748  1.4111 -1.0210
 3506TIP3    H210525   0.306   0.888   5.225 -0.0822 -0.8763 -0.0365
 3507TIP3   OH210526   2.804   1.169   4.335  0.2170  0.2125 -0.3656
 3507TIP3    H110527   2.815   1.084   4.378  0.2660  0.1553 -0.4897
 3507TIP3    H210528   2.771   1.227   4.404 -1.0214 -0.2058 -0.5832
 3508TIP3   OH210529   1.964   2.978   0.849  0.6507  0.2069  0.0512
 3508TIP3    H110530   1.914   2.964   0.769  1.0770 -0.1640 -0.1480
 3508TIP3    H210531   1.907   3.035   0.902 -0.4387 -1.0009  0.2441
 3509TIP3   OH210532   6.338   3.306   4.424 -0.4192  0.3695 -0.2870
 3509TIP3    H110533   6.273   3.245   4.458 -0.9052 -0.3862 -2.4168
 3509TIP3    H210534   6.289   3.360   4.361  0.5878  1.1489 -0.4272
 3510TIP3   OH210535   5.689   5.007   0.893  0.6379  0.3142  0.0008
 3510TIP3    H110536   5.756   4.943   0.917  1.8400  1.0173 -1.3361
 3510TIP3    H210537   5.704   5.024   0.800 -1.3733  0.5485 -0.3155
 3511TIP3   OH210538   6.003   2.711   3.106  0.5455 -0.1745 -0.0750
 3511TIP3    H110539   5.979   2.772   3.176 -2.1834 -0.0012 -1.0334
 3511TIP3    H210540   5.947   2.635   3.121  0.5269 -0.4727 -1.5839
 3512TIP3   OH210541   0.742   2.424   0.969 -0.3287 -0.6640 -0.0594
 3512TIP3    H110542   0.837   2.416   0.969 -0.4885 -3.8081 -0.5281
 3512TIP3    H210543   0.721   2.460   1.055  1.2913  1.1591 -0.3656
 3513TIP3   OH210544   1.934   4.834   4.404  0.0892 -0.3641  0.0321
 3513TIP3    H110545   1.987   4.770   4.356 -0.0398 -0.5193  0.0976
 3513TIP3    H210546   1.986   4.853   4.483  0.0453 -0.5206  0.0993
 3514TIP3   OH210547   3.658   2.368   1.708  0.3333  0.2321 -0.3729
 3514TIP3    H110548   3.657   2.276   1.684 -0.2432 -0.0249  0.5758
 3514TIP3    H210549   3.569   2.386   1.739 -0.0139  1.5037 -1.9577
 3515TIP3   OH210550   5.408   2.887   3.216 -0.0495 -0.6917 -1.0174
 3515TIP3    H110551   5.341   2.934   3.167 -1.5996  0.2441  1.7907
 3515TIP3    H210552   5.455   2.954   3.265  0.5035 -1.6820 -0.1341
 3516TIP3   OH210553   2.054   3.904   2.389  0.4588  0.3067  0.2158
 3516TIP3    H110554   1.984   3.874   2.330 -1.1567  0.4301  1.9999
 3516TIP3    H210555   2.114   3.829   2.395  0.1472 -0.0412 -0.8067
 3517TIP3   OH210556   4.399   0.795   0.070 -0.3516 -0.1441 -0.0654
 3517TIP3    H110557   4.380   0.703   0.051  1.0164 -0.5374  0.3373
 3517TIP3    H210558   4.426   0.831  -0.014 -1.7152  0.1369 -0.4075
 3518TIP3   OH210559   2.778   2.987   4.876 -0.1677 -0.1161  0.1870
 3518TIP3    H110560   2.872   2.979   4.862 -0.2835  0.9205 -1.3940
 3518TIP3    H210561   2.744   3.023   4.795 -2.1284 -1.6253  0.2516
 3519TIP3   OH210562   2.798   1.601   4.110  0.4876  0.2205  0.3921
 3519TIP3    H110563   2.799   1.505   4.115  3.2663  0.1925  0.5833
 3519TIP3    H210564   2.888   1.627   4.127  0.5977  2.7243 -3.0203
 3520TIP3   OH210565   1.907   4.620   2.350  0.5413 -0.8553 -0.4091
 3520TIP3    H110566   1.953   4.616   2.266  0.2311  0.1107 -0.6430
 3520TIP3    H210567   1.945   4.696   2.395  0.6047 -1.2800  0.2669
 3521TIP3   OH210568   2.207   2.776   0.395 -0.0202  0.0086  0.4475
 3521TIP3    H110569   2.239   2.717   0.464  0.9205 -1.3083 -1.0472
 3521TIP3    H210570   2.273   2.770   0.326 -0.6046  1.7881 -0.3294
 3522TIP3   OH210571   5.893   4.677   1.054  0.1069 -0.2073 -0.5900
 3522TIP3    H110572   5.847   4.702   0.974  0.5033 -0.9597 -1.0618
 3522TIP3    H210573   5.887   4.581   1.056 -1.9137 -0.1347  1.4872
 3523TIP3   OH210574   2.187   2.009   4.303 -0.2751 -0.1841  0.5214
 3523TIP3    H110575   2.216   1.965   4.383 -1.5266  0.2990  1.2613
 3523TIP3    H210576   2.262   2.062   4.276 -0.0418  0.1194  1.7162
 3524TIP3   OH210577   1.769   3.165   1.376  0.0301 -0.0447  0.0991
 3524TIP3    H110578   1.828   3.090   1.374  0.4068  0.2356  0.6271
 3524TIP3    H210579   1.817   3.233   1.422 -0.3611  0.4844 -0.2620
 3525TIP3   OH210580   4.032   3.350   3.165 -0.1751 -0.2403 -0.0135
 3525TIP3    H110581   4.060   3.278   3.222  1.0098  1.2537  1.3969
 3525TIP3    H210582   4.113   3.383   3.126 -0.6774  0.3911 -0.5498
 3526TIP3   OH210583   5.854   1.021   1.506  0.6350 -0.1952 -0.1395
 3526TIP3    H110584   5.775   1.034   1.453 -0.3399  1.5079  1.6303
 3526TIP3    H210585   5.834   0.943   1.559  1.1685 -1.2291 -1.3981
 3527TIP3   OH210586   3.939   2.437   0.388  0.3439 -0.4540  0.0386
 3527TIP3    H110587   3.852   2.458   0.357  1.2022  0.8595 -1.6327
 3527TIP3    H210588   3.934   2.345   0.415 -1.5038 -0.4180 -0.0965
 3528TIP3   OH210589   5.685   0.224   0.272  0.1756  0.1026 -0.0510
 3528TIP3    H110590   5.626   0.184   0.208 -1.9102  0.2711  1.6572
 3528TIP3    H210591   5.770   0.183   0.255 -0.1954  0.3466 -3.0644
 3529TIP3   OH210592   4.847   1.918   1.591 -0.1273  0.3478  0.3063
 3529TIP3    H110593   4.779   1.970   1.635  1.1323 -0.0474  2.9066
 3529TIP3    H210594   4.915   1.981   1.569 -0.0560  0.3034  0.3992
 3530TIP3   OH210595   5.329   0.735   3.615  0.3258 -0.3543 -0.5728
 3530TIP3    H110596   5.322   0.826   3.642 -0.2740 -0.5729  0.0320
 3530TIP3    H210597   5.403   0.733   3.554 -1.3106  1.0309 -2.7587
 3531TIP3   OH210598   5.859   0.540   2.251 -0.5962  0.1367  0.0449
 3531TIP3    H110599   5.842   0.620   2.203 -0.4249  0.0097 -0.2280
 3531TIP3    H210600   5.821   0.471   2.198  1.2861 -0.2367 -0.9167
 3532TIP3   OH210601   2.566   3.865   1.546 -0.2052 -0.1275  0.0064
 3532TIP3    H110602   2.545   3.958   1.544 -0.5118 -0.2026 -0.3672
 3532TIP3    H210603   2.637   3.854   1.482  2.2808  0.4205  2.4704
 3533TIP3   OH210604   5.023   2.145   2.106  0.5753 -0.1033  0.1490
 3533TIP3    H110605   5.067   2.229   2.122 -1.7820  1.6456 -1.7924
 3533TIP3    H210606   5.095   2.084   2.089  2.4179  1.2853  2.2190
 3534TIP3   OH210607   0.446   1.181   3.217 -0.1879  0.4229  0.1202
 3534TIP3    H110608   0.419   1.272   3.206 -2.1795 -0.1154 -0.0042
 3534TIP3    H210609   0.412   1.137   3.138  1.4250 -0.3061 -0.2048
 3535TIP3   OH210610   4.235   3.337   1.298 -0.1141  0.4456 -0.7064
 3535TIP3    H110611   4.167   3.400   1.319  1.6894  3.1368 -2.3719
 3535TIP3    H210612   4.203   3.292   1.219  0.3531  2.4080 -2.0850
 3536TIP3   OH210613   5.408   3.359   2.823  0.0726 -0.4516  0.1950
 3536TIP3    H110614   5.485   3.331   2.872 -0.3975 -1.6755  0.2711
 3536TIP3    H210615   5.369   3.278   2.791 -1.9992 -0.0010  1.3629
 3537TIP3   OH210616   5.004   2.514   1.323  0.1046  0.3512  0.3577
 3537TIP3    H110617   5.008   2.540   1.232 -0.5664 -0.3806  0.1031
 3537TIP3    H210618   5.012   2.419   1.321 -1.4271  0.1886  0.9234
 3538TIP3   OH210619   3.779   3.471   1.182 -0.7000  0.1096 -0.4580
 3538TIP3    H110620   3.705   3.486   1.123 -1.5217 -0.7582  0.3106
 3538TIP3    H210621   3.765   3.382   1.215 -0.2831  0.5861  1.0603
 3539TIP3   OH210622   1.128   0.833   4.058 -0.2103 -0.2894 -0.1977
 3539TIP3    H110623   1.061   0.822   4.125  1.4673 -0.1152  1.5786
 3539TIP3    H210624   1.193   0.891   4.098  1.2509 -0.8236 -1.6733
 3540TIP3   OH210625   2.429   0.216   4.426 -0.6442  0.7658  0.8434
 3540TIP3    H110626   2.374   0.245   4.353 -0.7007 -0.1655  0.4905
 3540TIP3    H210627   2.489   0.288   4.442 -2.6167  2.2554  1.9263
 3541TIP3   OH210628   3.405   1.313   2.007 -0.5923  0.0263 -0.2151
 3541TIP3    H110629   3.471   1.331   1.939 -1.4160 -2.8542 -1.9642
 3541TIP3    H210630   3.425   1.376   2.077  3.1588  0.1709 -1.1818
 3542TIP3   OH210631   0.139   0.585   2.505 -0.5781  0.4077  0.1448
 3542TIP3    H110632   0.229   0.602   2.530 -0.5315 -0.5838  0.7488
 3542TIP3    H210633   0.131   0.489   2.510 -0.8092  0.1866 -2.9236
 3543TIP3   OH210634   5.780   4.909   2.596  0.2303 -0.1374 -0.0615
 3543TIP3    H110635   5.818   4.994   2.619 -1.4643  1.1260 -1.6362
 3543TIP3    H210636   5.852   4.859   2.558  1.2271  0.5877  0.8199
 3544TIP3   OH210637   2.762   1.865   2.344  0.2240  0.0333  0.6537
 3544TIP3    H110638   2.810   1.865   2.261 -1.5786  0.5812 -0.4328
 3544TIP3    H210639   2.739   1.956   2.359 -2.0762 -0.4009  0.1363
 3545TIP3   OH210640   0.780   4.135   0.380  0.4076 -0.2982 -0.3143
 3545TIP3    H110641   0.766   4.047   0.416  1.4086 -0.7360 -0.9743
 3545TIP3    H210642   0.692   4.165   0.356  0.3172 -2.4534 -3.1246
 3546TIP3   OH210643   1.154   2.416   4.733 -0.1087  0.1613 -0.3334
 3546TIP3    H110644   1.090   2.419   4.803  0.3909  0.2696  0.1287
 3546TIP3    H210645   1.220   2.353   4.763 -0.0754 -0.0704 -0.8662
 3547TIP3   OH210646   1.348   4.029   0.692 -0.1864  0.0218 -0.0414
 3547TIP3    H110647   1.360   4.108   0.639  1.8450 -0.1241  0.1306
 3547TIP3    H210648   1.287   3.976   0.641 -0.4788  1.0880 -0.8495
 3548TIP3   OH210649   3.418   1.087   1.716  0.2766 -0.4605 -0.4000
 3548TIP3    H110650   3.502   1.113   1.756 -0.5402  1.6385  0.0666
 3548TIP3    H210651   3.384   1.020   1.775  1.7153 -1.5378 -0.7326
 3549TIP3   OH210652   1.576   1.075   0.768  0.0989 -0.1548  0.1578
 3549TIP3    H110653   1.574   1.015   0.693  0.3620 -1.7005  1.3366
 3549TIP3    H210654   1.665   1.067   0.803  0.0849  0.8093  0.4449
 3550TIP3   OH210655   5.786   2.726   2.446 -0.0772  0.1819 -0.0679
 3550TIP3    H110656   5.857   2.684   2.496 -0.5596 -1.2902 -0.5582
 3550TIP3    H210657   5.711   2.668   2.459 -0.7504  0.8596 -0.8821
 3551TIP3   OH210658   5.574   2.584   3.828  0.1661  0.5232  0.2408
 3551TIP3    H110659   5.613   2.604   3.742 -1.4684  2.8975 -0.0255
 3551TIP3    H210660   5.521   2.506   3.811  0.6786  0.3354 -0.6277
 3552TIP3   OH210661   4.833   2.321   2.685  0.7751 -0.0484  0.1624
 3552TIP3    H110662   4.895   2.283   2.622  0.4136  0.3889 -0.4769
 3552TIP3    H210663   4.757   2.263   2.682 -0.2564  1.2628 -1.6795
 3553TIP3   OH210664   4.659   3.645   2.654 -0.5754 -0.1236  0.0871
 3553TIP3    H110665   4.600   3.578   2.621  2.6077 -3.0720 -0.1634
 3553TIP3    H210666   4.662   3.630   2.749 -0.5223  0.2632  0.1482
 3554TIP3   OH210667   2.063   4.159   3.545 -0.0159  0.7024 -0.5281
 3554TIP3    H110668   2.096   4.246   3.568 -2.3824  2.3613 -2.6574
 3554TIP3    H210669   1.970   4.174   3.527 -0.4573 -2.2586 -1.1864
 3555TIP3   OH210670   0.843   0.125   3.760  0.0391 -0.0226  0.0200
 3555TIP3    H110671   0.924   0.074   3.751 -1.2544 -2.3023  0.4730
 3555TIP3    H210672   0.787   0.093   3.689 -0.2289  2.1356 -0.8262
 3556TIP3   OH210673   0.019   5.520   2.134  0.2722  0.3440 -0.8116
 3556TIP3    H110674   0.073   5.493   2.060  0.0053 -0.9800 -0.5431
 3556TIP3    H210675   0.035   5.453   2.201 -1.1942  0.2946 -0.4870
 3557TIP3   OH210676   1.089   5.194   2.913  0.1509  0.0902  0.3467
 3557TIP3    H110677   1.080   5.289   2.921  2.2973  0.3596  0.2819
 3557TIP3    H210678   1.067   5.160   2.999  1.0120  0.8337  0.8808
 3558TIP3   OH210679   2.580   4.223   2.060  0.4032 -0.0651 -0.4298
 3558TIP3    H110680   2.552   4.272   2.138  1.2751 -3.0546  1.9698
 3558TIP3    H210681   2.662   4.265   2.034 -0.4926  1.7177 -0.5458
 3559TIP3   OH210682   4.654   5.960   2.941 -0.7898  0.0423  0.3552
 3559TIP3    H110683   4.612   5.915   2.868  2.5050 -1.6578 -0.6940
 3559TIP3    H210684   4.705   6.031   2.900 -0.7219  0.5526  1.2834
 3560TIP3   OH210685   6.183   2.564   2.586 -0.3674 -0.2381  0.4337
 3560TIP3    H110686   6.151   2.474   2.587  2.4239 -1.3539  1.1937
 3560TIP3    H210687   6.191   2.588   2.678  0.1504  0.2853  0.2602
 3561TIP3   OH210688   5.133   3.869   2.078  0.2119  0.2274 -0.1698
 3561TIP3    H110689   5.083   3.791   2.052  0.2428  0.3585 -0.6410
 3561TIP3    H210690   5.209   3.834   2.125  0.3076 -0.0348 -0.5148
 3562TIP3   OH210691   0.540   5.344   4.857 -0.0752 -0.0512  0.0212
 3562TIP3    H110692   0.513   5.303   4.775  0.7918  0.4274 -0.5052
 3562TIP3    H210693   0.458   5.355   4.905 -0.7037  0.4357 -1.1291
 3563TIP3   OH210694   0.243   5.233   3.752 -0.6187  0.2109 -0.3877
 3563TIP3    H110695   0.304   5.187   3.694  0.3788 -0.1940  0.9248
 3563TIP3    H210696   0.159   5.231   3.705  0.1341 -0.1188 -1.7799
 3564TIP3   OH210697   3.974   3.906   0.532  0.1157  0.1781 -0.5968
 3564TIP3    H110698   3.984   3.956   0.452  0.4201 -0.2571 -0.8369
 3564TIP3    H210699   4.005   3.818   0.509 -3.7792 -1.2134 -1.2745
 3565TIP3   OH210700   2.478   0.932   2.996 -0.1408 -0.2839  0.4899
 3565TIP3    H110701   2.498   0.886   3.077 -0.3614 -2.0444 -0.4007
 3565TIP3    H210702   2.555   0.986   2.980  0.2590 -0.5519  1.4414
 3566TIP3   OH210703   2.157   0.923   3.784 -0.2168 -0.0029 -0.2871
 3566TIP3    H110704   2.131   0.831   3.789 -0.6223  0.0728 -0.8777
 3566TIP3    H210705   2.241   0.927   3.830 -0.9807 -0.3560  1.1916
 3567TIP3   OH210706   6.018   0.940   1.176 -0.1696 -0.0715  0.0338
 3567TIP3    H110707   5.944   0.889   1.209  1.4594 -2.2418  0.5910
 3567TIP3    H210708   6.051   0.889   1.101  0.1981  1.3526 -0.8183
 3568TIP3   OH210709   4.825   0.581   1.192  0.3469  0.0503  1.1200
 3568TIP3    H110710   4.818   0.490   1.162  0.5885  0.6597 -0.9544
 3568TIP3    H210711   4.743   0.597   1.238 -0.1297 -0.9297  0.6614
 3569TIP3   OH210712   0.752   0.701   0.777  0.1002  0.4155 -0.4300
 3569TIP3    H110713   0.711   0.625   0.736  1.2637  0.2511 -1.3254
 3569TIP3    H210714   0.719   0.776   0.729  0.1868  0.3538 -0.5843
 3570TIP3   OH210715   2.008   1.299   2.477  0.4659 -0.3838  0.8502
 3570TIP3    H110716   2.074   1.277   2.412  1.2454 -1.5957  1.9998
 3570TIP3    H210717   1.967   1.215   2.498 -2.1302  0.4232 -0.4847
 3571TIP3   OH210718   3.974   0.499   2.271 -0.1030 -0.2212 -0.2303
 3571TIP3    H110719   4.005   0.580   2.230 -1.2997  0.4263  0.1027
 3571TIP3    H210720   3.890   0.482   2.229 -0.0851 -1.0354  0.0551
 3572TIP3   OH210721   1.960   1.980   3.436  0.3533  0.2622  0.0334
 3572TIP3    H110722   2.029   1.919   3.410  0.2212  0.5720 -1.0726
 3572TIP3    H210723   1.892   1.971   3.369 -0.3941  0.4382  0.7495
 3573TIP3   OH210724   4.397   4.041   3.953  0.0210  0.2969 -0.3959
 3573TIP3    H110725   4.480   4.013   3.916 -0.2404  0.3202 -1.0123
 3573TIP3    H210726   4.376   3.975   4.019  1.3700  1.1997  1.0106
 3574TIP3   OH210727   1.739   4.387   2.742  0.1170 -0.2490  0.0310
 3574TIP3    H110728   1.803   4.413   2.675 -0.5499  0.8275 -0.2138
 3574TIP3    H210729   1.673   4.338   2.693 -0.0050 -0.0768  0.0223
 3575TIP3   OH210730   5.610   0.113   1.210 -0.0633  0.2355  0.6964
 3575TIP3    H110731   5.675   0.122   1.140  0.2105  1.3645  1.0766
 3575TIP3    H210732   5.588   0.020   1.210  0.9806 -0.0324  0.0398
 3576TIP3   OH210733   3.638   4.665   1.374 -0.4323  0.4249 -0.2081
 3576TIP3    H110734   3.602   4.608   1.307 -0.8086  0.4916 -0.0645
 3576TIP3    H210735   3.726   4.687   1.342 -0.8470  0.9980 -1.0163
 3577TIP3   OH210736   4.380   2.181   0.647 -0.7878  0.4731 -0.7523
 3577TIP3    H110737   4.290   2.156   0.629 -0.0323 -2.2962 -1.1342
 3577TIP3    H210738   4.404   2.131   0.725  0.3863  1.2536 -0.5865
 3578TIP3   OH210739   3.551   1.310   2.908 -0.0574 -0.9844  0.2236
 3578TIP3    H110740   3.488   1.375   2.941  0.1968 -1.5632  1.9345
 3578TIP3    H210741   3.510   1.225   2.926  0.0421 -1.3455 -1.1165
 3579TIP3   OH210742   1.860   3.935   0.518 -0.1203  0.3039 -0.2774
 3579TIP3    H110743   1.772   3.907   0.544 -1.4403  2.5527 -1.9973
 3579TIP3    H210744   1.898   3.971   0.598 -0.3039 -1.5737  0.7243
 3580TIP3   OH210745   0.638   1.189   0.039 -0.1614 -0.1839  0.1692
 3580TIP3    H110746   0.714   1.235   0.074 -0.7097  2.1540 -1.4579
 3580TIP3    H210747   0.666   1.159  -0.047 -0.9030  0.2380 -0.2267
 3581TIP3   OH210748   3.744   4.683   4.288  0.2033 -0.0295 -0.3499
 3581TIP3    H110749   3.756   4.589   4.279  1.3124 -0.1330  1.5405
 3581TIP3    H210750   3.738   4.697   4.383 -2.1185  1.5730 -0.6460
 3582TIP3   OH210751   4.200   3.754   3.398  0.3236 -0.4867  0.1517
 3582TIP3    H110752   4.116   3.759   3.352  0.4000  0.9855  0.1224
 3582TIP3    H210753   4.194   3.673   3.450 -0.7946 -0.8031 -0.4359
 3583TIP3   OH210754   2.757   2.727   1.495 -0.1658 -1.0286  0.7294
 3583TIP3    H110755   2.665   2.721   1.520 -0.2252 -0.7298  0.5844
 3583TIP3    H210756   2.801   2.663   1.551 -0.3564 -0.6680  1.3047
 3584TIP3   OH210757   4.341   1.161   3.993  0.3110 -0.4569  0.2931
 3584TIP3    H110758   4.382   1.162   3.907  0.3986 -1.3482  0.3111
 3584TIP3    H210759   4.411   1.137   4.054 -0.3186 -2.6301  0.2404
 3585TIP3   OH210760   5.943   3.188   0.346  0.3080  0.2361  0.3663
 3585TIP3    H110761   5.902   3.117   0.395  1.4793  0.2379  1.3930
 3585TIP3    H210762   5.954   3.153   0.257 -1.8369  0.2357  0.0276
 3586TIP3   OH210763   2.115   0.175   1.031  0.0964 -0.3300 -0.2787
 3586TIP3    H110764   2.067   0.092   1.041  0.9822 -0.9471 -0.9940
 3586TIP3    H210765   2.190   0.166   1.089 -0.1542  0.2556  0.1402
 3587TIP3   OH210766   2.048   1.255   0.713  0.1914 -0.3415 -0.1211
 3587TIP3    H110767   1.988   1.291   0.648 -0.0726  2.0333  1.3219
 3587TIP3    H210768   2.135   1.265   0.673 -0.0499  0.0232 -0.5601
 3588TIP3   OH210769   1.743   0.362   2.782  0.0782 -0.4424 -0.1437
 3588TIP3    H110770   1.820   0.341   2.836  4.2265  3.3460 -3.7257
 3588TIP3    H210771   1.714   0.447   2.815  1.2385  0.8434 -2.2541
 3589TIP3   OH210772   0.130   5.510   1.078  0.4911  0.0866 -0.0492
 3589TIP3    H110773   0.068   5.475   1.013 -1.1634  0.0520  1.4657
 3589TIP3    H210774   0.205   5.539   1.026 -0.8897  0.3689 -2.0231
 3590TIP3   OH210775   1.892   4.413   0.478 -0.1349  0.3459 -0.1947
 3590TIP3    H110776   1.966   4.354   0.486 -0.9472 -0.5873  0.7657
 3590TIP3    H210777   1.931   4.498   0.455  1.3483  0.1648  1.4603
 3591TIP3   OH210778   6.224   5.469   3.929 -0.0551 -0.1488 -0.4035
 3591TIP3    H110779   6.232   5.498   3.838  0.3990  0.0464 -0.3062
 3591TIP3    H210780   6.272   5.386   3.932  1.0870  0.5030 -0.0518
 3592TIP3   OH210781   0.245   0.776   1.723  0.0616  0.4384 -0.6920
 3592TIP3    H110782   0.311   0.738   1.781 -0.9804 -0.7000 -0.2402
 3592TIP3    H210783   0.199   0.840   1.777 -0.0385  0.3367 -0.6591
 3593TIP3   OH210784   2.922   0.514   2.303 -0.3784 -0.6529 -0.2696
 3593TIP3    H110785   2.901   0.607   2.316 -1.1177 -0.8568  0.0177
 3593TIP3    H210786   2.999   0.515   2.247 -1.3134  0.1038 -1.5795
 3594TIP3   OH210787   2.310   4.068   3.448  0.3270 -0.1825 -0.3950
 3594TIP3    H110788   2.353   4.070   3.533  1.1212  0.5348 -0.7911
 3594TIP3    H210789   2.219   4.088   3.466  0.2852 -1.0371  0.3893
 3595TIP3   OH210790   2.300   5.566   4.958 -0.1839 -0.0730 -0.0540
 3595TIP3    H110791   2.339   5.621   4.890 -1.6496 -0.5465 -1.3328
 3595TIP3    H210792   2.235   5.513   4.912 -1.4535 -0.1924  1.7704
 3596TIP3   OH210793   6.260   3.582   0.341 -0.2220 -0.0513 -0.3175
 3596TIP3    H110794   6.165   3.581   0.355 -0.2453 -1.8432 -0.4265
 3596TIP3    H210795   6.273   3.534   0.259  0.8184 -0.1778 -0.0910
 3597TIP3   OH210796   0.647   3.581   2.791  0.4833  0.3071 -0.6497
 3597TIP3    H110797   0.560   3.605   2.823  1.4329  0.4343  2.0689
 3597TIP3    H210798   0.685   3.528   2.861  2.5673  0.1797 -1.7996
 3598TIP3   OH210799   2.543   3.309   0.065  0.4452 -0.3140  0.5020
 3598TIP3    H110800   2.553   3.224   0.106 -1.8912 -1.3178 -0.7970
 3598TIP3    H210801   2.463   3.345   0.104  0.4179  0.4853 -0.2595
 3599TIP3   OH210802   4.011   3.294   4.600 -0.5911 -0.5176  0.1185
 3599TIP3    H110803   3.980   3.357   4.665  1.6477  3.1545 -1.9811
 3599TIP3    H210804   3.964   3.318   4.520  1.0070 -0.8109 -0.9643
 3600TIP3   OH210805   4.367   3.409   3.349 -0.4428 -0.8316  0.1329
 3600TIP3    H110806   4.435   3.439   3.410  1.2531  0.5950 -2.3050
 3600TIP3    H210807   4.286   3.442   3.386  0.3705 -0.9278  2.1395
 3601TIP3   OH210808   0.739   5.150   2.771  0.1231 -0.3874  0.2158
 3601TIP3    H110809   0.814   5.163   2.713  2.7910 -0.5291  3.3386
 3601TIP3    H210810   0.747   5.220   2.836 -2.2288 -0.7030  0.9258
 3602TIP3   OH210811   1.969   2.231   3.535  0.7447  0.6738  0.1649
 3602TIP3    H110812   1.969   2.136   3.531 -0.6584  0.6381  0.5970
 3602TIP3    H210813   2.062   2.255   3.527  1.1492 -0.7236  0.3768
 3603TIP3   OH210814   0.993   2.179   2.608  0.7889 -0.1904  0.1593
 3603TIP3    H110815   0.994   2.088   2.576 -1.3284 -0.5461  1.0134
 3603TIP3    H210816   1.057   2.179   2.680  1.0341 -0.9149 -0.0414
 3604TIP3   OH210817   2.612   3.747   4.626  0.2895  0.5567  0.1783
 3604TIP3    H110818   2.606   3.713   4.715  1.2295 -1.3446 -0.4186
 3604TIP3    H210819   2.537   3.708   4.581  1.1055 -0.4268 -0.3929
 3605TIP3   OH210820   2.709   3.254   1.609 -0.7117 -0.2437  0.3511
 3605TIP3    H110821   2.721   3.161   1.589 -0.2479 -0.7192  2.5625
 3605TIP3    H210822   2.796   3.291   1.606 -1.1533  0.8272 -3.2402
 3606TIP3   OH210823   3.526   4.760   4.127  0.0869  0.5230 -0.7141
 3606TIP3    H110824   3.521   4.695   4.057  0.0440  0.2741 -0.4825
 3606TIP3    H210825   3.612   4.745   4.167  0.2418  0.8695 -0.9067
 3607TIP3   OH210826   5.686   2.967   2.369  0.1377 -0.1057 -0.8593
 3607TIP3    H110827   5.748   3.038   2.390  0.4449 -0.6978  0.3503
 3607TIP3    H210828   5.725   2.889   2.408 -1.5380 -0.4320  0.2809
 3608TIP3   OH210829   3.964   4.232   3.372  0.1182 -0.8315 -0.2617
 3608TIP3    H110830   3.985   4.298   3.307 -0.8752  0.6492  0.8565
 3608TIP3    H210831   4.049   4.199   3.402  0.6320  0.0926 -0.6846
 3609TIP3   OH210832   3.557   5.586   3.211  0.7990 -0.1370 -0.0289
 3609TIP3    H110833   3.507   5.565   3.132 -0.5938  0.3626  0.6934
 3609TIP3    H210834   3.537   5.677   3.229  2.0279  0.0972  0.2717
 3610TIP3   OH210835   3.010   1.429   0.426 -0.5050 -0.0747 -0.4110
 3610TIP3    H110836   3.093   1.393   0.457 -0.3457 -0.8520 -1.6599
 3610TIP3    H210837   2.969   1.357   0.379 -0.9707  0.8856 -1.5189
 3611TIP3   OH210838   6.251   1.618   3.141 -0.0793 -0.2634  0.2683
 3611TIP3    H110839   6.279   1.528   3.159  0.8690  0.3070  1.8058
 3611TIP3    H210840   6.186   1.637   3.209 -1.8081 -0.4229 -1.2538
 3612TIP3   OH210841  -0.030   2.271   5.110  0.0478  0.2178  1.1398
 3612TIP3    H110842   0.057   2.301   5.083 -0.9897  2.5853  0.1973
 3612TIP3    H210843  -0.024   2.266   5.205  1.2611  0.1481  1.0828
 3613TIP3   OH210844   2.691   0.376   3.671 -0.1240  0.2096  0.1142
 3613TIP3    H110845   2.665   0.454   3.720  1.6849  1.4975 -0.8552
 3613TIP3    H210846   2.785   0.370   3.685 -0.0849 -1.2595 -0.6381
 3614TIP3   OH210847   5.078   3.896   4.149  0.3149 -0.1393  0.1143
 3614TIP3    H110848   5.019   3.909   4.224  0.2303  0.9987 -0.1301
 3614TIP3    H210849   5.044   3.955   4.082  0.7217 -0.7448 -0.6287
 3615TIP3   OH210850   6.277   1.583   0.864  0.1907  0.1744 -0.0065
 3615TIP3    H110851   6.320   1.509   0.907  0.2470  0.2498  0.0676
 3615TIP3    H210852   6.246   1.548   0.781 -0.1409 -0.0390  0.2031
 3616TIP3   OH210853   0.081   5.244   0.918 -0.3789  0.6414 -0.0259
 3616TIP3    H110854   0.099   5.207   0.831 -0.3830 -1.5012  0.8373
 3616TIP3    H210855   0.166   5.276   0.949  0.1772 -1.0482  0.2593
 3617TIP3   OH210856   1.604   1.396   0.318 -0.4778  0.1608 -0.3876
 3617TIP3    H110857   1.682   1.341   0.330  0.1867  1.1138 -0.2353
 3617TIP3    H210858   1.536   1.353   0.370  0.8531  1.1253  2.3742
 3618TIP3   OH210859   5.862   4.217   2.082  0.5930 -0.7534 -0.5111
 3618TIP3    H110860   5.780   4.263   2.060  0.2496 -0.9148  0.3846
 3618TIP3    H210861   5.930   4.282   2.068  0.6074 -1.2551 -3.5083
 3619TIP3   OH210862   5.580   3.504   4.993  0.7840 -0.1208 -0.0129
 3619TIP3    H110863   5.512   3.568   5.017 -0.3643 -1.3310  0.0598
 3619TIP3    H210864   5.646   3.513   5.062 -0.3426 -0.4241  1.1403
 3620TIP3   OH210865   3.239   3.805   1.405  0.2204  0.0139  0.3438
 3620TIP3    H110866   3.145   3.802   1.421  0.0360 -1.4618 -0.8012
 3620TIP3    H210867   3.250   3.874   1.340 -0.2463 -0.7313 -0.5341
 3621TIP3   OH210868   2.298   0.003   3.933 -0.4535 -0.7901  0.1609
 3621TIP3    H110869   2.377   0.056   3.949  0.0052 -0.6421 -2.1900
 3621TIP3    H210870   2.261  -0.011   4.020  2.1808 -0.8857  1.3763
 3622TIP3   OH210871   2.904   1.863   2.119  0.0186 -0.3179  0.0720
 3622TIP3    H110872   2.983   1.812   2.103 -0.5258 -2.0046  2.4103
 3622TIP3    H210873   2.936   1.945   2.158  0.7033 -0.0692 -0.9669
 3623TIP3   OH210874   1.602   0.181   4.939 -1.3128 -0.3301 -0.6427
 3623TIP3    H110875   1.602   0.198   4.845  1.0769 -1.4463 -0.9328
 3623TIP3    H210876   1.682   0.221   4.971 -1.1601 -1.5055  0.5744
 3624TIP3   OH210877   1.145   0.337   3.318 -0.0991  0.1891  0.3391
 3624TIP3    H110878   1.196   0.261   3.291 -1.2453 -0.3170 -0.4593
 3624TIP3    H210879   1.117   0.316   3.407 -0.7787 -0.5465 -0.0327
 3625TIP3   OH210880   5.777   4.584   4.865 -0.7517 -0.3495  0.0080
 3625TIP3    H110881   5.696   4.532   4.866  0.6276 -2.6498 -0.2198
 3625TIP3    H210882   5.809   4.577   4.775 -0.5681  1.0270 -0.0486
 3626TIP3   OH210883   4.154   3.594   4.324  0.4521 -0.0436  0.3592
 3626TIP3    H110884   4.154   3.570   4.232  0.1525  1.3614 -0.0318
 3626TIP3    H210885   4.235   3.556   4.359 -0.2432 -1.9877 -0.0702
 3627TIP3   OH210886   2.836   4.539   1.788  0.1268  0.2575  0.3724
 3627TIP3    H110887   2.805   4.578   1.869  0.1204  0.7832  0.1212
 3627TIP3    H210888   2.775   4.467   1.771  0.4313 -0.1856  1.0968
 3628TIP3   OH210889   2.336   3.500   0.175 -0.3687  0.0561  0.5490
 3628TIP3    H110890   2.361   3.531   0.262  1.2914  1.3907 -0.3309
 3628TIP3    H210891   2.245   3.529   0.164  0.3195  2.5299  0.7556
 3629TIP3   OH210892   1.259   3.691   3.884 -0.6868 -0.0094 -0.2339
 3629TIP3    H110893   1.244   3.783   3.906  0.6002  0.5020 -1.3607
 3629TIP3    H210894   1.320   3.660   3.951 -1.0435 -0.0235  0.0883
 3630TIP3   OH210895   5.026   1.740   0.337 -0.4964 -0.1965 -0.2483
 3630TIP3    H110896   5.024   1.813   0.276 -1.7350 -1.0156 -1.2393
 3630TIP3    H210897   4.936   1.706   0.337 -0.5034 -0.3202  1.9227
 3631TIP3   OH210898   4.905   2.294   5.004  0.2604  0.0528  0.1464
 3631TIP3    H110899   4.864   2.208   5.012  0.7302 -0.0497  1.9264
 3631TIP3    H210900   4.975   2.282   4.940 -0.5374 -0.5258 -0.6399
 3632TIP3   OH210901   6.065   0.683   2.077 -0.1970  0.0273 -0.0918
 3632TIP3    H110902   6.030   0.602   2.115  0.6185  0.2409  1.1740
 3632TIP3    H210903   5.987   0.734   2.052 -0.7142 -1.0145 -0.6574
 3633TIP3   OH210904   4.571   3.174   2.104 -0.2218  0.3006 -0.7838
 3633TIP3    H110905   4.577   3.270   2.109  0.1199  0.3198 -1.4422
 3633TIP3    H210906   4.662   3.144   2.104 -0.2213  0.1280 -2.9172
 3634TIP3   OH210907   0.020   1.115   4.774  0.0060 -0.6178 -0.3111
 3634TIP3    H110908   0.046   1.122   4.866  0.0119 -0.3168 -0.3372
 3634TIP3    H210909   0.099   1.086   4.729  0.7537  1.7373 -0.6292
 3635TIP3   OH210910   0.021   0.022   2.937 -0.0383  0.0523  0.0181
 3635TIP3    H110911   0.086   0.071   2.886 -1.2394  1.0552 -0.6139
 3635TIP3    H210912   0.024   0.061   3.024 -0.5152  0.8175 -0.2986
 3636TIP3   OH210913   3.078   0.109   4.743 -0.1203 -0.4578 -0.1225
 3636TIP3    H110914   3.107   0.071   4.660 -2.6532 -1.5546 -0.5726
 3636TIP3    H210915   3.121   0.195   4.745 -0.5231 -0.0752 -2.9270
 3637TIP3   OH210916   1.805   1.367   3.758 -0.1428  0.8978  0.4478
 3637TIP3    H110917   1.833   1.279   3.786 -0.8496  0.3767 -0.4330
 3637TIP3    H210918   1.780   1.411   3.840  1.8259  0.8974  1.0963
 3638TIP3   OH210919   1.941   1.151   1.772  0.0084  0.1786  0.3162
 3638TIP3    H110920   1.876   1.093   1.812 -0.5427 -0.5688 -1.5083
 3638TIP3    H210921   1.993   1.184   1.845 -2.0943  0.4008  1.8059
 3639TIP3   OH210922   6.338   5.904   1.654 -0.4904  0.2798 -0.1219
 3639TIP3    H110923   6.312   5.861   1.572 -0.3186 -0.4807  0.2097
 3639TIP3    H210924   6.333   5.997   1.635 -0.8307  0.1165 -0.8830
 3640TIP3   OH210925   0.017   5.226   3.635 -0.4313 -0.0938 -0.1312
 3640TIP3    H110926   0.044   5.225   3.543 -2.5425  0.5833 -0.8228
 3640TIP3    H210927  -0.046   5.298   3.641 -0.2447 -0.0432  1.8892
 3641TIP3   OH210928   5.699   3.408   2.557 -0.2991  0.0138  0.1351
 3641TIP3    H110929   5.657   3.441   2.637  1.5001  1.4230  0.5840
 3641TIP3    H210930   5.628   3.402   2.493 -1.1968  2.4213  0.7965
 3642TIP3   OH210931   4.760   4.811   0.121 -0.0558 -0.3246 -0.3003
 3642TIP3    H110932   4.774   4.771   0.207 -1.7032 -0.7316 -0.1843
 3642TIP3    H210933   4.845   4.846   0.097  0.2417  0.7095  1.9692
 3643TIP3   OH210934   3.899   0.261   3.968 -0.1204 -0.5484 -0.2260
 3643TIP3    H110935   3.911   0.356   3.970  1.3965 -0.7086  1.9118
 3643TIP3    H210936   3.985   0.226   3.943  0.4995 -1.3948  2.6840
 3644TIP3   OH210937   1.016   3.163   3.953 -0.2693  0.1444  0.6691
 3644TIP3    H110938   1.101   3.128   3.977 -0.8161 -2.2314 -0.5503
 3644TIP3    H210939   1.032   3.255   3.934  2.0347 -0.2677  0.3662
 3645TIP3   OH210940   1.532   1.936   4.507 -0.5353  0.2714 -0.1605
 3645TIP3    H110941   1.618   1.895   4.515 -0.3212  0.9721  1.4354
 3645TIP3    H210942   1.523   1.955   4.413  0.6247 -0.6733 -0.4860
 3646TIP3   OH210943   4.192   2.595   0.337  0.4854  0.0492  0.4581
 3646TIP3    H110944   4.175   2.667   0.398  1.0686  0.4720  0.1375
 3646TIP3    H210945   4.114   2.541   0.341 -1.7316  2.7225 -2.1145
 3647TIP3   OH210946   4.999   4.435   0.471 -0.1883  0.2218 -0.1061
 3647TIP3    H110947   4.932   4.480   0.420  0.8440  0.6237 -1.1548
 3647TIP3    H210948   5.067   4.413   0.407  0.6259 -0.2837  0.9039
 3648TIP3   OH210949   3.887   3.119   2.307  0.2694 -0.5602 -0.1009
 3648TIP3    H110950   3.958   3.111   2.243  1.5055 -0.7983  1.2601
 3648TIP3    H210951   3.810   3.085   2.261  0.6825  0.9921 -2.1162
 3649TIP3   OH210952   4.682   0.412   4.330 -0.8319 -0.1566  0.1308
 3649TIP3    H110953   4.762   0.464   4.318 -1.3626  0.5525 -0.4244
 3649TIP3    H210954   4.703   0.352   4.402 -0.4581  1.3325  1.3053
 3650TIP3   OH210955   1.897   2.913   5.083  0.7392  0.0841  0.0277
 3650TIP3    H110956   1.977   2.960   5.107  0.6390 -0.0487  0.6431
 3650TIP3    H210957   1.929   2.835   5.036  0.9324  0.4299 -0.4155
 3651TIP3   OH210958   2.817   4.552   0.693  0.5337  0.0483  0.4211
 3651TIP3    H110959   2.839   4.641   0.722 -0.6081 -0.1866  2.1394
 3651TIP3    H210960   2.894   4.500   0.716  0.5004  0.2808  1.0980
 3652TIP3   OH210961   2.945   3.396   1.652  0.1806  0.1127 -0.5246
 3652TIP3    H110962   2.936   3.393   1.748 -0.2108 -0.3697 -0.5685
 3652TIP3    H210963   3.016   3.335   1.633 -0.3235 -0.4507 -0.6048
 3653TIP3   OH210964   4.461   3.443   1.000  0.8527  0.2228 -0.2778
 3653TIP3    H110965   4.474   3.497   0.922  1.2054 -0.4715 -0.7103
 3653TIP3    H210966   4.524   3.372   0.990  0.0271 -0.5644  0.0169
 3654TIP3   OH210967   3.800   5.125   1.649  0.1531 -0.0173 -0.3584
 3654TIP3    H110968   3.875   5.086   1.693 -0.1663 -2.1587 -1.5679
 3654TIP3    H210969   3.731   5.059   1.655 -0.6901  0.6611 -1.8318
 3655TIP3   OH210970   1.553   0.737   3.703  0.3088 -0.3683  0.2626
 3655TIP3    H110971   1.476   0.726   3.759 -0.9255  2.0913 -0.8117
 3655TIP3    H210972   1.620   0.774   3.761  0.7671 -2.4913  1.1930
 3656TIP3   OH210973   5.109   4.082   2.328  0.1560  0.0192  0.4847
 3656TIP3    H110974   5.190   4.074   2.377 -0.2110 -0.6962  0.9909
 3656TIP3    H210975   5.076   3.992   2.320 -0.7418  0.3252  0.5734
 3657TIP3   OH210976   0.686   5.380   1.271  0.0231  0.2100  0.8900
 3657TIP3    H110977   0.754   5.362   1.336  0.3312  1.8228  1.0545
 3657TIP3    H210978   0.704   5.469   1.242 -1.2485  0.1885 -0.0347
 3658TIP3   OH210979   0.718   4.559   5.047 -0.3367  0.3785  0.6195
 3658TIP3    H110980   0.702   4.476   5.003 -1.3237  0.9058 -0.0464
 3658TIP3    H210981   0.764   4.535   5.128  0.8494 -0.6596 -0.3226
 3659TIP3   OH210982   1.818   4.582   1.011 -0.1267 -0.1811  0.4704
 3659TIP3    H110983   1.724   4.564   1.022 -0.0117  0.1571  2.3686
 3659TIP3    H210984   1.852   4.588   1.101  1.4406  1.1488 -0.1644
 3660TIP3   OH210985   0.799   5.047   2.050  0.3319 -0.3145 -0.2490
 3660TIP3    H110986   0.838   4.982   2.109 -0.0793  0.7235  1.2137
 3660TIP3    H210987   0.711   5.060   2.083  0.6511  1.5474 -0.0214
 3661TIP3   OH210988   1.153   3.444   0.059 -0.8761  0.4702 -0.5778
 3661TIP3    H110989   1.168   3.462  -0.034 -0.7226  2.5944 -0.1751
 3661TIP3    H210990   1.224   3.384   0.083 -0.9614 -0.1627 -1.8362
 3662TIP3   OH210991   2.597   4.887   0.350  0.2250 -0.0931  0.0432
 3662TIP3    H110992   2.549   4.913   0.429  0.1709 -0.6509  0.1990
 3662TIP3    H210993   2.535   4.902   0.279 -0.5016 -1.5855  0.3238
 3663TIP3   OH210994   3.633   4.558   0.968  0.3492 -0.3485  0.4894
 3663TIP3    H110995   3.659   4.493   1.033  1.2626  1.4642  2.0632
 3663TIP3    H210996   3.548   4.590   1.000 -1.1653 -2.1926 -1.4566
 3664TIP3   OH210997   5.239   3.758   0.778 -0.3637 -0.1563 -0.2488
 3664TIP3    H110998   5.240   3.713   0.694 -2.0198  0.4782 -0.6316
 3664TIP3    H210999   5.277   3.695   0.840  0.7030 -0.6905 -1.4089
 3665TIP3   OH211000   1.556   0.507   1.037  0.2221  0.7073  0.0435
 3665TIP3    H111001   1.562   0.494   1.131 -0.9405 -0.6267 -0.0462
 3665TIP3    H211002   1.616   0.441   1.000  0.1889  0.8006 -0.1797
 3666TIP3   OH211003   2.355   0.919   4.317 -0.1279 -0.0865 -0.6222
 3666TIP3    H111004   2.261   0.936   4.323  0.0616  0.4688  1.2165
 3666TIP3    H211005   2.379   0.952   4.230 -1.7664 -1.0961 -1.5163
 3667TIP3   OH211006   3.563   5.567   4.325 -0.4713 -0.5046  0.0616
 3667TIP3    H111007   3.575   5.479   4.360  0.9771 -0.7875 -1.0481
 3667TIP3    H211008   3.579   5.625   4.400  0.6112 -1.1414  0.3442
 3668TIP3   OH211009   3.929   5.694   1.520 -0.0026  0.1854  0.1327
 3668TIP3    H111010   3.994   5.752   1.481 -0.4522  0.4414 -0.2425
 3668TIP3    H211011   3.938   5.611   1.472  0.0316  0.2241  0.0732
 3669TIP3   OH211012   5.140   0.596   4.505 -0.4539  0.4581 -0.1829
 3669TIP3    H111013   5.153   0.611   4.599 -0.9236  0.5705 -0.1324
 3669TIP3    H211014   5.181   0.671   4.463  0.9291 -0.2428 -0.1392
 3670TIP3   OH211015   6.142   0.868   5.105  0.3074  0.0258 -0.1611
 3670TIP3    H111016   6.176   0.793   5.057  0.8975 -0.1471  0.5010
 3670TIP3    H211017   6.147   0.841   5.197  3.0074  1.8071  0.3277
 3671TIP3   OH211018   4.515   3.182   4.321  0.1815  0.1779  0.4902
 3671TIP3    H111019   4.530   3.174   4.415 -0.4842  0.1120  0.5954
 3671TIP3    H211020   4.426   3.149   4.308 -0.1043  1.1171 -0.0208
 3672TIP3   OH211021   6.055   3.302   4.002  0.9653 -0.2099  0.0733
 3672TIP3    H111022   6.077   3.392   3.977  1.2836 -0.4540 -0.5323
 3672TIP3    H211023   5.967   3.309   4.040  1.8797  0.7188  2.2023
 3673TIP3   OH211024   5.974   4.024   3.996  0.0391  0.0676  0.3150
 3673TIP3    H111025   6.051   3.984   4.036  0.6551  0.5557 -0.3562
 3673TIP3    H211026   5.965   4.109   4.040  0.0139  0.1036  0.2398
 3674TIP3   OH211027   5.562   4.096   1.085 -0.5354  0.2753  0.1816
 3674TIP3    H111028   5.514   4.177   1.104  2.9581  3.4567 -2.8961
 3674TIP3    H211029   5.629   4.092   1.153 -0.1999  0.4197 -0.1418
 3675TIP3   OH211030   2.763   0.109   4.447  0.0712  0.2004 -0.5312
 3675TIP3    H111031   2.727   0.116   4.359  0.1226  0.7956 -0.5104
 3675TIP3    H211032   2.742   0.020   4.475 -0.7464  0.3038 -0.7912
 3676TIP3   OH211033   2.489   3.380   1.043 -0.1984 -0.0682  0.0556
 3676TIP3    H111034   2.495   3.380   1.139  0.5088 -1.6014  0.0453
 3676TIP3    H211035   2.398   3.403   1.025 -0.5842 -0.6640  1.1270
 3677TIP3   OH211036   0.167   5.573   2.417 -0.2569  0.2045  0.1033
 3677TIP3    H111037   0.252   5.587   2.457 -0.1342  0.9524 -0.4001
 3677TIP3    H211038   0.155   5.478   2.419 -0.3874  0.2382  2.1404
 3678TIP3   OH211039   3.175   2.729   1.484 -0.4816  0.3055  0.0074
 3678TIP3    H111040   3.198   2.638   1.468 -1.1017 -0.1497  1.5638
 3678TIP3    H211041   3.241   2.779   1.435  0.4408 -0.9620 -0.0976
 3679TIP3   OH211042   0.394   0.753   3.523 -0.2393  0.1158  0.1337
 3679TIP3    H111043   0.347   0.670   3.524  1.8866 -1.1821  1.3982
 3679TIP3    H211044   0.447   0.751   3.443  0.8039 -0.4093  0.8078
 3680TIP3   OH211045   4.723   3.276   0.173 -0.0445  0.4161 -0.0043
 3680TIP3    H111046   4.796   3.256   0.115  0.8658 -0.2820  1.3331
 3680TIP3    H211047   4.761   3.329   0.243 -0.5673 -0.7762  1.2372
 3681TIP3   OH211048   4.138   4.104   2.965  0.4533  0.2251 -0.5028
 3681TIP3    H111049   4.198   4.094   3.039 -1.5832  1.3909  1.4595
 3681TIP3    H211050   4.096   4.018   2.957  0.9399 -0.0113 -0.5366
 3682TIP3   OH211051   5.117   5.436   1.233  0.0378 -0.0505  0.4063
 3682TIP3    H111052   5.120   5.482   1.317  0.5195  0.6010  0.0382
 3682TIP3    H211053   5.168   5.491   1.173  1.5056 -1.5691  0.1950
 3683TIP3   OH211054   6.260   2.725   3.541 -0.5063  0.1726 -0.0205
 3683TIP3    H111055   6.341   2.686   3.506 -0.4731  1.3771 -1.3812
 3683TIP3    H211056   6.192   2.698   3.479 -0.7461  0.9996 -0.1242
 3684TIP3   OH211057   3.920   5.420   3.164 -0.8406 -0.4466 -0.3915
 3684TIP3    H111058   3.842   5.414   3.110  0.2083 -1.1656 -1.9025
 3684TIP3    H211059   3.990   5.442   3.103 -0.0794  1.7767  1.1491
 3685TIP3   OH211060   3.841   2.887   3.613  0.3106  0.1235 -0.3659
 3685TIP3    H111061   3.768   2.882   3.674 -0.5911 -0.1014 -1.4141
 3685TIP3    H211062   3.800   2.883   3.526  1.5357  0.4679 -0.9935
 3686TIP3   OH211063   6.341   0.361   3.036  0.0224 -0.3599 -0.3421
 3686TIP3    H111064   6.377   0.450   3.033  0.7199 -0.6539 -1.1225
 3686TIP3    H211065   6.271   0.362   2.971 -0.7976 -0.0394  0.5361
 3687TIP3   OH211066   3.337   2.270   3.703  0.0894 -0.2220  0.1716
 3687TIP3    H111067   3.242   2.272   3.716  0.0736 -2.0332  0.6330
 3687TIP3    H211068   3.363   2.362   3.698 -1.5856  0.3218  0.8118
 3688TIP3   OH211069   4.485   4.238   0.809  0.3597 -0.3772  0.1479
 3688TIP3    H111070   4.487   4.245   0.904  0.3435  1.3865  0.0491
 3688TIP3    H211071   4.531   4.316   0.778 -0.1721 -0.6009 -1.3042
 3689TIP3   OH211072   1.750   5.322   3.742  0.0531 -0.2551  0.1541
 3689TIP3    H111073   1.819   5.304   3.806  1.2681  0.5932 -0.8723
 3689TIP3    H211074   1.796   5.362   3.668 -1.7820  2.1170  0.1917
 3690TIP3   OH211075   1.589   2.753   4.518 -0.0596 -0.0174  0.0604
 3690TIP3    H111076   1.549   2.707   4.445 -0.3954  1.0213 -0.4277
 3690TIP3    H211077   1.637   2.685   4.566  0.1201 -0.7225 -1.0815
 3691TIP3   OH211078   1.407   1.313   4.542 -0.7297  0.2001  0.3221
 3691TIP3    H111079   1.425   1.407   4.549 -3.0817  0.6626  1.2783
 3691TIP3    H211080   1.427   1.278   4.629 -1.0701  0.0932  0.3619
 3692TIP3   OH211081   3.622   5.482   0.216  0.3838  0.1507 -0.5803
 3692TIP3    H111082   3.537   5.472   0.174  0.7574 -1.1915 -1.0819
 3692TIP3    H211083   3.654   5.392   0.225  1.8581  0.6530 -0.6393
 3693TIP3   OH211084   3.018   5.851   0.514  0.1300  0.3106 -0.0887
 3693TIP3    H111085   2.942   5.892   0.474  1.4875  0.7068 -2.4258
 3693TIP3    H211086   3.074   5.826   0.440  2.0553 -0.4108  1.5171
 3694TIP3   OH211087  -0.005   5.844   0.195 -0.3749 -0.4896  0.2034
 3694TIP3    H111088   0.082   5.861   0.159 -0.1788  0.5027  1.1252
 3694TIP3    H211089  -0.027   5.922   0.245 -1.6803 -0.8496  0.2353
 3695TIP3   OH211090   0.797   3.715   4.862 -0.2733  0.2312 -0.2349
 3695TIP3    H111091   0.869   3.679   4.913 -0.4745 -1.6146 -1.1574
 3695TIP3    H211092   0.791   3.657   4.785 -1.7075  1.2931 -0.9713
 3696TIP3   OH211093   0.710   4.500   1.438  0.0081 -0.3088 -0.1894
 3696TIP3    H111094   0.800   4.528   1.421 -0.3607 -0.0621 -2.0462
 3696TIP3    H211095   0.657   4.577   1.415 -0.7360 -0.9392 -0.6322
 3697TIP3   OH211096   6.012   5.089   3.554  0.1513 -0.2555 -0.2850
 3697TIP3    H111097   6.062   5.100   3.474 -0.3187 -1.3216 -0.7536
 3697TIP3    H211098   6.078   5.074   3.622  0.5039 -1.1195 -0.7968
 3698TIP3   OH211099   5.196   0.399   3.484 -0.8477 -0.1473 -0.2166
 3698TIP3    H111100   5.233   0.454   3.415 -0.5202 -0.4432 -0.2745
 3698TIP3    H211101   5.144   0.460   3.537  0.0967  0.3683  0.1393
 3699TIP3   OH211102   2.913   5.502   4.446 -0.0857 -0.4045 -0.0369
 3699TIP3    H111103   2.896   5.440   4.517 -0.6793 -1.2214 -0.8536
 3699TIP3    H211104   3.008   5.507   4.441  0.0033  1.0808  1.9830
 3700TIP3   OH211105   5.991   5.159   0.235  0.4919  0.2109 -0.1465
 3700TIP3    H111106   6.056   5.198   0.177  1.8963  0.0263  1.2230
 3700TIP3    H211107   5.973   5.228   0.300 -0.4744  0.1534 -0.3408
 3701TIP3   OH211108   0.578   5.351   0.743 -0.3307  0.2987 -0.3399
 3701TIP3    H111109   0.525   5.431   0.750  1.3372  1.4065  0.1854
 3701TIP3    H211110   0.628   5.348   0.824 -0.9935 -1.7950  0.0406
 3702TIP3   OH211111   1.743   3.649   3.803  0.8874  0.3081  0.5200
 3702TIP3    H111112   1.743   3.570   3.749  1.1099  0.6422  0.0272
 3702TIP3    H211113   1.655   3.685   3.793  0.5097 -0.3139  1.4086
 3703TIP3   OH211114   6.074   1.147   0.835  0.1212  0.3345  0.6336
 3703TIP3    H111115   5.987   1.116   0.857  0.9163 -1.1190  1.8465
 3703TIP3    H211116   6.123   1.068   0.812  0.6845  1.2868 -1.7786
 3704TIP3   OH211117   3.879   3.854   3.479  0.1505  0.2457  0.3508
 3704TIP3    H111118   3.873   3.808   3.395 -1.7739  0.1490  0.4939
 3704TIP3    H211119   3.955   3.912   3.470  0.1355  0.0435 -1.3482
 3705TIP3   OH211120   1.885   3.364   2.720  0.1236 -0.4588 -0.3746
 3705TIP3    H111121   1.930   3.370   2.636 -0.1109 -0.2565 -0.4856
 3705TIP3    H211122   1.797   3.334   2.698  0.2811 -1.1415 -0.1328
 3706TIP3   OH211123   0.991   2.781   3.563 -0.0029  0.3356  0.0173
 3706TIP3    H111124   0.963   2.853   3.620 -1.7036 -0.5435  0.3733
 3706TIP3    H211125   1.055   2.733   3.613 -0.8342  0.0830  0.8660
 3707TIP3   OH211126   0.084   4.572   2.302 -0.9602 -0.9721 -0.2815
 3707TIP3    H111127   0.118   4.613   2.382 -0.4135  0.4982 -1.2306
 3707TIP3    H211128   0.158   4.523   2.266 -0.2901  0.7992 -1.4220
 3708TIP3   OH211129   5.426   4.586   2.887 -0.5182 -0.1211 -0.7254
 3708TIP3    H111130   5.477   4.508   2.866  1.9711  1.1935  0.0590
 3708TIP3    H211131   5.335   4.556   2.885  0.2329 -2.6392 -1.9946
 3709TIP3   OH211132   4.169   0.775   2.733  0.3249 -0.0326 -0.4032
 3709TIP3    H111133   4.239   0.765   2.798 -0.1989  0.9061  0.3331
 3709TIP3    H211134   4.120   0.851   2.763 -0.2729  0.0724 -1.6054
 3710TIP3   OH211135   1.620   0.648   1.316  0.0043 -0.2870 -0.5478
 3710TIP3    H111136   1.586   0.562   1.342  1.5412 -0.9593 -0.6223
 3710TIP3    H211137   1.543   0.702   1.305 -0.9704 -1.4520  0.2550
 3711TIP3   OH211138   0.538   2.073   2.708  1.0357  0.2010  0.0618
 3711TIP3    H111139   0.569   2.160   2.734  0.2685  0.8387 -1.0715
 3711TIP3    H211140   0.607   2.040   2.651  0.9671  0.3881 -0.1288
 3712TIP3   OH211141   0.576   4.909   0.177  0.0093 -0.2061  0.8176
 3712TIP3    H111142   0.559   5.003   0.186 -0.3129 -0.1603 -0.0908
 3712TIP3    H211143   0.669   4.904   0.156  0.5812 -0.2698  3.1835
 3713TIP3   OH211144   6.130   4.059   1.004 -0.5852 -0.2596  0.1479
 3713TIP3    H111145   6.122   4.102   0.919 -0.2921  0.3775  0.4323
 3713TIP3    H211146   6.119   4.130   1.068  3.2593  0.0872  0.6279
 3714TIP3   OH211147   2.876   1.796   0.732 -0.5718  0.4703  0.0819
 3714TIP3    H111148   2.884   1.721   0.674 -0.9523  0.7356 -0.3226
 3714TIP3    H211149   2.832   1.863   0.679  0.0163  1.0770  0.3429
 3715TIP3   OH211150   0.025   1.739   2.947  0.0209 -0.5754 -0.2160
 3715TIP3    H111151  -0.028   1.707   3.019  1.2753  0.6414  1.3205
 3715TIP3    H211152   0.028   1.834   2.960  1.0997 -0.4402 -1.2927
 3716TIP3   OH211153   0.841   4.639   0.199  0.0504 -0.6775 -0.4584
 3716TIP3    H111154   0.787   4.591   0.262 -0.0379  0.1598  0.1194
 3716TIP3    H211155   0.782   4.658   0.126 -0.9525  1.6038  0.8391
 3717TIP3   OH211156   1.866   4.389   2.488  0.0277 -0.4542  0.3239
 3717TIP3    H111157   1.903   4.469   2.450 -0.4120 -0.5038 -0.2144
 3717TIP3    H211158   1.927   4.320   2.462  0.4176 -0.3004  0.8031
 3718TIP3   OH211159   4.234   2.704   1.776 -0.8428  0.4450  0.1256
 3718TIP3    H111160   4.247   2.721   1.869 -0.9583 -1.6242  0.5724
 3718TIP3    H211161   4.165   2.637   1.773 -0.1224 -0.2924 -1.3746
 3719TIP3   OH211162   3.344   4.167   1.300  0.0845 -0.0513  0.1463
 3719TIP3    H111163   3.359   4.082   1.258 -0.5949  0.2880 -0.8294
 3719TIP3    H211164   3.395   4.229   1.248  0.3497  0.1831  0.6792
 3720TIP3   OH211165   3.087   0.728   2.817 -0.3546 -0.1778 -0.1736
 3720TIP3    H111166   3.181   0.740   2.802 -0.3431 -0.3360 -0.2269
 3720TIP3    H211167   3.076   0.634   2.832 -0.3070  0.0112  1.2126
 3721TIP3   OH211168   2.603   1.074   4.171 -0.4489  0.2936  0.5497
 3721TIP3    H111169   2.635   1.012   4.104 -1.6812  1.4456 -1.1778
 3721TIP3    H211170   2.671   1.073   4.238  0.0199 -2.2305  0.1593
 3722TIP3   OH211171   4.750   0.756   2.630  0.4716 -0.3899 -0.4567
 3722TIP3    H111172   4.677   0.696   2.615 -0.9380  1.3960 -1.2122
 3722TIP3    H211173   4.710   0.843   2.626  2.4815  0.6273  0.2098
 3723TIP3   OH211174   4.478   0.402   4.640 -0.1867  0.1240 -0.0241
 3723TIP3    H111175   4.439   0.401   4.553 -0.5463 -1.1967  0.1328
 3723TIP3    H211176   4.464   0.314   4.674 -2.4675  1.2827  2.4168
 3724TIP3   OH211177   1.065   2.229   0.770 -0.1351 -0.3723  0.1249
 3724TIP3    H111178   1.069   2.298   0.837  0.7957  1.2992 -1.5419
 3724TIP3    H211179   1.052   2.148   0.820 -0.4934  0.8930  2.2344
 3725TIP3   OH211180   5.084   3.187   0.824  0.0039  0.6655 -0.4973
 3725TIP3    H111181   5.047   3.243   0.756 -0.2017  0.8646 -0.2197
 3725TIP3    H211182   5.158   3.238   0.858  0.1748  0.5186 -0.6436
 3726TIP3   OH211183   0.788   4.059   3.164  0.1243  0.0289 -0.2496
 3726TIP3    H111184   0.719   4.038   3.226 -0.3165 -0.8114 -1.0082
 3726TIP3    H211185   0.743   4.101   3.090  0.4183 -0.4303 -0.7025
 3727TIP3   OH211186   0.472   0.643   2.256  0.5501 -0.2230 -0.7983
 3727TIP3    H111187   0.515   0.643   2.170 -0.9390  1.4989 -1.6212
 3727TIP3    H211188   0.402   0.708   2.247 -0.5428 -1.0277  1.2903
 3728TIP3   OH211189   0.663   2.464   2.454  0.2491 -0.1520  0.1930
 3728TIP3    H111190   0.660   2.485   2.547 -1.9635 -0.2699  0.1855
 3728TIP3    H211191   0.693   2.373   2.451 -2.1763 -1.0371  0.9946
 3729TIP3   OH211192   3.544   1.772   4.937  0.4341 -0.1919  0.0158
 3729TIP3    H111193   3.570   1.690   4.896 -2.0315 -1.1372  0.2215
 3729TIP3    H211194   3.485   1.813   4.875 -0.5620  0.0628  1.0933
 3730TIP3   OH211195   1.594   3.245   5.044  0.1488 -0.2059 -0.2234
 3730TIP3    H111196   1.630   3.168   5.089  1.4539 -0.4222 -1.5434
 3730TIP3    H211197   1.669   3.281   4.997 -1.0734  0.1742 -1.9624
 3731TIP3   OH211198   3.085   5.532   0.770 -0.2295 -0.2441  0.1450
 3731TIP3    H111199   3.119   5.540   0.681  0.4164  1.2700  0.4865
 3731TIP3    H211200   3.164   5.538   0.825 -0.7617  0.3344  0.8573
 3732TIP3   OH211201   4.789   5.232   3.615 -0.2760  0.3362 -0.1887
 3732TIP3    H111202   4.811   5.146   3.579  1.2507  0.7570 -0.3539
 3732TIP3    H211203   4.693   5.235   3.614 -0.3788 -1.5882  0.4202
 3733TIP3   OH211204   2.695   4.461   3.606  0.1419  0.2609  0.3270
 3733TIP3    H111205   2.718   4.475   3.514  0.5957  1.6423  0.6324
 3733TIP3    H211206   2.738   4.379   3.630 -3.6511 -2.7602 -1.9099
 3734TIP3   OH211207   1.108   0.446   1.143 -0.1857  0.3328  0.0575
 3734TIP3    H111208   1.081   0.528   1.185  0.4366  0.8586 -0.5552
 3734TIP3    H211209   1.162   0.402   1.208  1.0219  1.2812 -0.2726
 3735TIP3   OH211210   4.756   4.083   2.506 -0.1416 -0.0445 -0.2500
 3735TIP3    H111211   4.825   4.035   2.553  0.5281 -0.7380 -1.8747
 3735TIP3    H211212   4.798   4.165   2.481  0.9430 -1.3575 -3.1852
 3736TIP3   OH211213   5.009   4.250   4.568 -0.0186 -0.5774 -0.0998
 3736TIP3    H111214   4.916   4.271   4.562  0.0631 -0.5216 -2.2629
 3736TIP3    H211215   5.018   4.171   4.514  1.1698 -0.6265  0.1560
 3737TIP3   OH211216   1.733   1.001   1.881  0.0931 -0.3394 -0.1347
 3737TIP3    H111217   1.702   0.977   1.969 -1.2257  2.1107  0.1403
 3737TIP3    H211218   1.678   0.950   1.822 -1.1746  0.3317  0.4365
 3738TIP3   OH211219   3.035   4.514   1.597 -0.1689  0.1761  1.1881
 3738TIP3    H111220   3.104   4.575   1.625 -0.0295 -0.6189  2.6939
 3738TIP3    H211221   2.963   4.530   1.658 -1.6506  1.4635 -0.7795
 3739TIP3   OH211222   1.099   2.726   0.203 -0.1059  0.1682 -0.6879
 3739TIP3    H111223   1.187   2.690   0.212 -1.1134 -2.5582 -0.7454
 3739TIP3    H211224   1.106   2.791   0.133  2.1632  1.3316  0.5222
 3740TIP3   OH211225   3.943   1.027   2.618  0.0109 -0.5081  0.8877
 3740TIP3    H111226   3.958   0.943   2.574  0.4512 -1.0318  2.0039
 3740TIP3    H211227   3.960   1.009   2.711 -2.5922  0.1101  1.5791
 3741TIP3   OH211228   0.510   5.894   3.085  0.4303 -0.0918  0.0636
 3741TIP3    H111229   0.494   5.979   3.127 -0.7594 -0.5655  0.6289
 3741TIP3    H211230   0.526   5.915   2.993  3.5092  1.0109  0.7638
 3742TIP3   OH211231   2.741   3.715   2.400 -0.8589 -0.1085  0.2952
 3742TIP3    H111232   2.797   3.778   2.444  1.0595 -2.6955  1.8125
 3742TIP3    H211233   2.680   3.685   2.467 -0.7567 -0.9312  0.0405
 3743TIP3   OH211234   2.487   2.580   3.557  0.1847 -0.2621  0.5027
 3743TIP3    H111235   2.495   2.487   3.580 -1.2184  0.0997  2.6947
 3743TIP3    H211236   2.577   2.609   3.542  0.6480 -1.9342 -0.1789
 3744TIP3   OH211237   3.127   3.832   4.958 -0.0171 -0.3271  0.3106
 3744TIP3    H111238   3.098   3.914   4.918  0.4441 -0.2635  0.0974
 3744TIP3    H211239   3.114   3.845   5.052  1.0661  0.4158  0.3801
 3745TIP3   OH211240   4.625   5.052   1.493  0.3946  0.0859 -0.1730
 3745TIP3    H111241   4.665   5.136   1.469 -0.2760  0.3759 -0.2970
 3745TIP3    H211242   4.589   5.019   1.411 -1.1563  0.6719  0.2353
 3746TIP3   OH211243   6.181   5.405   3.657 -0.2335 -0.3945  0.0421
 3746TIP3    H111244   6.113   5.370   3.715 -0.6815  1.9321  1.0326
 3746TIP3    H211245   6.135   5.469   3.603  0.8100 -0.2680 -0.7185
 3747TIP3   OH211246   5.651   1.985   0.847  0.7897 -0.0391  0.4339
 3747TIP3    H111247   5.716   2.052   0.825  0.0737  0.3010 -0.7540
 3747TIP3    H211248   5.680   1.907   0.801  0.2318  0.1931 -0.3446
 3748TIP3   OH211249   5.350   4.851   3.093  0.4954 -0.4375 -0.3112
 3748TIP3    H111250   5.434   4.860   3.048  0.9299  0.6786  0.6811
 3748TIP3    H211251   5.365   4.784   3.159  1.0277  0.7216  0.7707
 3749TIP3   OH211252   3.115   5.162   0.643 -0.3681  0.3737 -0.1098
 3749TIP3    H111253   3.156   5.220   0.579  0.9855 -0.8174 -0.3999
 3749TIP3    H211254   3.089   5.085   0.592 -2.5523  0.8546  0.1756
 3750TIP3   OH211255   4.389   3.753   3.680  0.1153 -0.0342  0.2910
 3750TIP3    H111256   4.313   3.726   3.732 -0.1206  0.5487  0.2471
 3750TIP3    H211257   4.390   3.848   3.685  0.4639 -0.0046 -0.2557
 3751TIP3   OH211258   2.482   5.242   4.843  0.0031 -0.4149  0.3967
 3751TIP3    H111259   2.491   5.179   4.915  1.8169 -1.5023 -0.7208
 3751TIP3    H211260   2.510   5.326   4.881  1.2579 -1.0365  0.8767
 3752TIP3   OH211261   4.349   0.206   5.106  0.6864 -0.0012  0.3826
 3752TIP3    H111262   4.396   0.290   5.104  1.7499 -0.5304  1.5114
 3752TIP3    H211263   4.375   0.167   5.189 -0.8146 -0.8933  0.4564
 3753TIP3   OH211264   3.150   0.546   1.379  0.3558 -0.5532  0.1938
 3753TIP3    H111265   3.237   0.584   1.390 -0.0153  0.1832  0.6989
 3753TIP3    H211266   3.092   0.604   1.428 -0.4489 -0.9305 -0.2789
 3754TIP3   OH211267   2.584   3.142   2.766  0.4334 -0.3578 -0.0183
 3754TIP3    H111268   2.549   3.186   2.844  0.7104 -1.2311  0.6142
 3754TIP3    H211269   2.518   3.077   2.745 -0.1022  0.5042 -1.1127
 3755TIP3   OH211270   0.965   4.961   4.743  0.3117  0.0128  0.0690
 3755TIP3    H111271   0.910   4.891   4.778  0.7988 -0.8889 -0.9077
 3755TIP3    H211272   1.054   4.926   4.748  0.3694 -0.4243 -2.5253
 3756TIP3   OH211273   4.432   3.926   1.343  0.3275  0.2648 -0.1912
 3756TIP3    H111274   4.387   3.958   1.265  1.6339  1.9174 -0.3205
 3756TIP3    H211275   4.507   3.877   1.309  1.7072  2.1716 -0.0466
 3757TIP3   OH211276   4.026   4.037   0.760  0.1169  0.3743 -0.2511
 3757TIP3    H111277   3.992   3.978   0.693 -0.0896 -0.5022  0.6008
 3757TIP3    H211278   4.100   4.081   0.718  0.2143 -0.4122 -0.9413
 3758TIP3   OH211279   2.079   1.693   2.912 -0.1535  0.4738  0.6366
 3758TIP3    H111280   1.984   1.692   2.900 -0.3718 -0.2051  2.2245
 3758TIP3    H211281   2.112   1.728   2.830 -1.5789 -1.9467 -1.1076
 3759TIP3   OH211282   5.318   5.968   3.738 -1.0201  0.1284  0.5146
 3759TIP3    H111283   5.318   5.908   3.663 -0.4551 -0.4900  0.9929
 3759TIP3    H211284   5.321   5.910   3.814 -2.5691  0.7122  1.0602
 3760TIP3   OH211285   4.156   0.145   0.282 -0.1289 -0.6074 -0.3301
 3760TIP3    H111286   4.240   0.103   0.263  0.4133 -1.0623  2.6014
 3760TIP3    H211287   4.155   0.155   0.377 -3.1452 -0.0189 -0.3241
 3761TIP3   OH211288   5.572   4.916   3.720  0.2418  0.3169  0.2784
 3761TIP3    H111289   5.566   4.977   3.646 -0.5402  0.3802  0.3868
 3761TIP3    H211290   5.629   4.961   3.782 -0.3382  0.9572  0.3615
 3762TIP3   OH211291   5.716   0.740   4.479 -0.0372  0.6180 -0.6489
 3762TIP3    H111292   5.642   0.785   4.519 -0.1694 -1.0134  1.1260
 3762TIP3    H211293   5.787   0.805   4.480 -0.5035  1.1526  0.8342
 3763TIP3   OH211294   1.607   1.717   3.891  0.7071 -0.2821  0.3432
 3763TIP3    H111295   1.697   1.747   3.878  1.1034 -1.6907 -0.4181
 3763TIP3    H211296   1.600   1.701   3.985  1.8350 -1.8083  0.2049
 3764TIP3   OH211297   4.440   3.656   0.835 -0.1078 -0.5883  0.2197
 3764TIP3    H111298   4.498   3.704   0.776  0.7972  1.5061  2.6412
 3764TIP3    H211299   4.382   3.723   0.871 -0.6975 -1.7876  1.6020
 3765TIP3   OH211300   2.972   5.097   3.426  0.4394 -0.1507  0.3644
 3765TIP3    H111301   2.906   5.031   3.403  0.4198 -0.6200  1.7101
 3765TIP3    H211302   2.924   5.180   3.425  0.5117 -0.0922 -1.5566
 3766TIP3   OH211303   4.891   3.196   3.369 -0.5221  0.5355  0.0200
 3766TIP3    H111304   4.929   3.182   3.456 -0.8476 -4.0742 -0.3199
 3766TIP3    H211305   4.802   3.227   3.386  0.5322  3.2594  1.0786
 3767TIP3   OH211306   0.534   4.841   1.526 -0.4333 -0.0106  0.0327
 3767TIP3    H111307   0.455   4.823   1.576 -0.5168 -0.8720 -0.3857
 3767TIP3    H211308   0.505   4.892   1.451 -0.2739  1.5051  0.9434
 3768TIP3   OH211309   5.183   3.307   3.960  0.1250 -0.0104  0.7767
 3768TIP3    H111310   5.184   3.313   4.055  1.0523 -2.7584  1.0374
 3768TIP3    H211311   5.100   3.264   3.939  0.2755 -0.1329  0.4168
 3769TIP3   OH211312   0.379   4.312   3.057 -0.1283  0.1908  0.9562
 3769TIP3    H111313   0.408   4.372   2.988 -0.6832 -0.8672 -0.2222
 3769TIP3    H211314   0.293   4.345   3.082 -0.0296  0.4326  0.9864
 3770TIP3   OH211315   2.467   0.345   3.144 -0.4694 -0.0406 -0.6056
 3770TIP3    H111316   2.484   0.426   3.097 -2.2482  0.2985 -0.7286
 3770TIP3    H211317   2.415   0.371   3.220  0.4044 -0.8696  0.3154
 3771TIP3   OH211318   4.652   3.976   3.613  0.4336 -0.2230 -0.0848
 3771TIP3    H111319   4.700   3.931   3.544  0.7478 -0.5172  0.3197
 3771TIP3    H211320   4.617   4.054   3.571  0.3898 -0.5406 -0.6445
 3772TIP3   OH211321   3.785   3.180   3.607 -0.8425 -0.2688  0.1625
 3772TIP3    H111322   3.817   3.091   3.625 -0.2133 -0.0594  0.0919
 3772TIP3    H211323   3.695   3.180   3.641 -1.1204 -1.1632 -0.5339
 3773TIP3   OH211324   3.111   0.418   4.903 -0.4475  0.2480 -0.1052
 3773TIP3    H111325   3.071   0.475   4.969  0.1390 -1.0952  1.5001
 3773TIP3    H211326   3.197   0.396   4.940  0.2174  0.0600 -1.6994
 3774TIP3   OH211327   5.738   3.037   5.159  0.1227  0.2194  0.4187
 3774TIP3    H111328   5.697   2.951   5.173 -1.7168  1.1077  0.7812
 3774TIP3    H211329   5.720   3.058   5.068 -0.2319  0.6173  0.5790
 3775TIP3   OH211330   5.841   4.791   3.103  0.1615 -0.0618  1.0009
 3775TIP3    H111331   5.829   4.790   3.198  0.6021  0.1743  1.0626
 3775TIP3    H211332   5.936   4.782   3.091  0.1994  0.7695  0.6036
 3776TIP3   OH211333   5.260   1.235   3.833  0.2017  0.1526  0.4284
 3776TIP3    H111334   5.257   1.172   3.761 -1.5178  2.9275 -2.1579
 3776TIP3    H211335   5.353   1.250   3.849  0.6111 -1.2324 -0.5109
 3777TIP3   OH211336   5.883   4.655   0.270 -0.1605  0.3549 -0.0682
 3777TIP3    H111337   5.845   4.573   0.302 -3.5758  2.1272  0.9490
 3777TIP3    H211338   5.945   4.681   0.338 -2.7615  0.9651  2.2869
 3778TIP3   OH211339   3.790   2.186   1.527 -0.2782  0.5109  0.2018
 3778TIP3    H111340   3.884   2.183   1.508 -0.2613 -0.7596  0.3641
 3778TIP3    H211341   3.770   2.098   1.560 -1.7865  0.3048 -1.1554
 3779TIP3   OH211342   5.058   3.490   3.540 -0.9876  0.1761 -0.0774
 3779TIP3    H111343   5.082   3.546   3.613 -1.4202 -1.3177  1.2500
 3779TIP3    H211344   5.138   3.441   3.520 -0.9489  0.3784 -0.4313
 3780TIP3   OH211345   3.916   1.838   0.562 -0.0438  0.9254  0.5921
 3780TIP3    H111346   3.876   1.762   0.520 -1.8105  1.7224  0.7569
 3780TIP3    H211347   4.005   1.839   0.528  0.3315 -1.7098  1.2302
 3781TIP3   OH211348   1.125   0.850   2.002 -0.4025  0.2758  0.3252
 3781TIP3    H111349   1.171   0.924   1.962  0.8681 -0.8325 -0.3381
 3781TIP3    H211350   1.032   0.874   1.998  0.0046  1.9837  0.4690
 3782TIP3   OH211351   3.998   1.592   5.065 -0.4079 -0.4926 -0.0119
 3782TIP3    H111352   3.908   1.567   5.047 -0.0116 -1.9421 -0.1266
 3782TIP3    H211353   4.014   1.564   5.155  0.3409 -1.6176 -0.4632
 3783TIP3   OH211354   5.192   4.140   2.784  0.0851  0.5976  0.1472
 3783TIP3    H111355   5.193   4.222   2.735  0.0517 -0.1825 -1.1846
 3783TIP3    H211356   5.113   4.145   2.838  1.0673  2.2481  1.5436
 3784TIP3   OH211357   2.728   4.337   4.684 -0.2979  0.7107  0.1275
 3784TIP3    H111358   2.717   4.242   4.677  1.0856  0.4950  0.6278
 3784TIP3    H211359   2.810   4.348   4.731 -0.6452  2.1674  0.4272
 3785TIP3   OH211360   1.311   3.290   2.652  0.1386 -0.6339  0.6977
 3785TIP3    H111361   1.264   3.264   2.572 -0.2466 -1.4433  1.1693
 3785TIP3    H211362   1.249   3.272   2.723 -0.1918  1.6890  1.0796
 3786TIP3   OH211363   0.578   0.187   2.849  0.2711  0.0280  0.0709
 3786TIP3    H111364   0.647   0.250   2.828  1.4101 -0.8978  0.9161
 3786TIP3    H211365   0.525   0.183   2.770  2.3582 -0.7370 -1.3740
 3787TIP3   OH211366   3.983   4.781   4.174 -0.2548  0.0683  0.3325
 3787TIP3    H111367   3.974   4.864   4.129 -0.6902 -0.0889  0.1290
 3787TIP3    H211368   3.894   4.747   4.181 -0.1611 -0.0650  1.0159
 3788TIP3   OH211369   2.007   3.000   2.078 -0.5378 -0.1263  0.1505
 3788TIP3    H111370   2.063   3.076   2.094 -0.5217  0.0382 -0.6550
 3788TIP3    H211371   2.036   2.935   2.143  2.1584 -0.8685 -1.6063
 3789TIP3   OH211372   2.877   1.049   1.383  0.2139  0.1050 -0.0945
 3789TIP3    H111373   2.797   1.100   1.374 -0.8861 -1.4861  0.2065
 3789TIP3    H211374   2.905   1.064   1.473  1.3037  2.0608 -0.6966
 3790TIP3   OH211375   0.504   0.345   1.011  0.0254 -0.3530 -0.0191
 3790TIP3    H111376   0.576   0.287   0.984 -1.4020 -1.5873 -1.3871
 3790TIP3    H211377   0.456   0.294   1.076  0.0446  0.2470  0.4765
 3791TIP3   OH211378   3.644   5.718   2.958  0.0641  0.6823  0.1724
 3791TIP3    H111379   3.631   5.796   2.904 -2.5027  0.6249  0.5714
 3791TIP3    H211380   3.700   5.747   3.030 -1.0739  2.2503  0.4543
 3792TIP3   OH211381   1.044   1.663   3.139 -0.3048 -0.4974 -0.4220
 3792TIP3    H111382   1.050   1.758   3.138 -0.3901 -0.4893 -0.1255
 3792TIP3    H211383   0.976   1.643   3.074 -2.4914 -0.1838  1.6077
 3793TIP3   OH211384   1.844   3.247   4.534  0.0381 -0.1550 -0.4789
 3793TIP3    H111385   1.936   3.259   4.556 -0.2462  0.0356  0.6482
 3793TIP3    H211386   1.839   3.156   4.503  0.6921  0.0041 -1.0875
 3794TIP3   OH211387   1.799   0.738   2.368 -0.1031 -0.0372 -0.3402
 3794TIP3    H111388   1.856   0.714   2.296 -1.3485 -0.4087 -1.2361
 3794TIP3    H211389   1.742   0.662   2.381 -0.1916  0.1870  0.7476
 3795TIP3   OH211390   4.441   4.044   1.614 -0.0072 -0.1485 -0.1106
 3795TIP3    H111391   4.487   4.018   1.535 -1.4572 -0.3824 -0.9005
 3795TIP3    H211392   4.355   4.002   1.609 -0.2786  0.1289  1.4008
 3796TIP3   OH211393   6.106   5.530   2.249 -0.1279  0.3123 -0.0330
 3796TIP3    H111394   6.181   5.510   2.192 -0.0492 -0.1555  0.2315
 3796TIP3    H211395   6.137   5.511   2.337  0.4488  3.0223  0.4324
 3797TIP3   OH211396   2.616   5.122   4.057 -0.0993 -0.1324 -1.0534
 3797TIP3    H111397   2.647   5.169   3.980  2.3755  0.3308  0.1319
 3797TIP3    H211398   2.686   5.059   4.076 -1.4398 -1.4144 -0.1708
 3798TIP3   OH211399   4.101   4.167   1.442  0.0110 -0.4016 -0.1337
 3798TIP3    H111400   4.065   4.203   1.524 -1.5597 -0.5898 -0.6958
 3798TIP3    H211401   4.147   4.087   1.469  0.2339 -0.0191  0.6570
 3799TIP3   OH211402   2.664   1.688   3.152  0.1225 -0.5919 -0.0208
 3799TIP3    H111403   2.691   1.694   3.243  1.1208  1.1660 -0.3844
 3799TIP3    H211404   2.746   1.690   3.102 -0.4684  2.4138 -1.0696
 3800TIP3   OH211405   0.316   3.303   3.700 -0.2029 -0.4423  0.5820
 3800TIP3    H111406   0.344   3.296   3.791  0.1867 -0.7347  0.4422
 3800TIP3    H211407   0.396   3.296   3.649 -0.3255  0.5015  0.2367
 3801TIP3   OH211408   2.490   1.678   1.173 -0.3640  0.1365 -0.0803
 3801TIP3    H111409   2.582   1.689   1.197 -0.1432 -1.0876 -0.3041
 3801TIP3    H211410   2.450   1.764   1.188  0.9962  0.9216 -0.7908
 3802TIP3   OH211411   2.085   1.155   4.671 -0.4069  0.3297  0.3804
 3802TIP3    H111412   2.166   1.131   4.717 -0.0524  1.4311  0.3602
 3802TIP3    H211413   2.023   1.174   4.741 -0.3730  0.3673  0.4004
 3803TIP3   OH211414   1.022   4.485   3.176  0.4767  0.2558  0.3807
 3803TIP3    H111415   1.109   4.487   3.137  0.7202 -0.0383  0.9063
 3803TIP3    H211416   0.963   4.471   3.102  1.0827 -2.5927  0.3321
 3804TIP3   OH211417   1.711   6.011   1.483 -0.4883 -0.2065 -0.7291
 3804TIP3    H111418   1.749   6.004   1.396  0.1661  0.6080 -0.5169
 3804TIP3    H211419   1.727   5.926   1.523  0.4985 -0.1126 -0.8960
 3805TIP3   OH211420   3.951   1.099   4.660  0.4106  0.0717  0.2084
 3805TIP3    H111421   3.873   1.049   4.637  1.3641 -1.6208  0.4264
 3805TIP3    H211422   4.020   1.062   4.605  1.3301  0.5794  0.9833
 3806TIP3   OH211423   6.061   2.611   1.687 -0.0903 -0.4980  0.2623
 3806TIP3    H111424   5.995   2.542   1.681 -0.4821 -0.0609 -0.5560
 3806TIP3    H211425   6.077   2.637   1.596  1.7691 -1.1159  0.3594
 3807TIP3   OH211426   0.230   1.048   4.008  0.2064 -0.3746  0.2421
 3807TIP3    H111427   0.228   1.140   4.035  2.3172 -0.5844  1.3650
 3807TIP3    H211428   0.177   1.045   3.929 -1.2371  1.4831  1.0442
 3808TIP3   OH211429   5.617   5.152   2.853 -0.6760 -0.1673 -0.7110
 3808TIP3    H111430   5.572   5.120   2.776 -1.8957 -0.7470  0.2212
 3808TIP3    H211431   5.623   5.247   2.839 -1.0737 -0.2372 -1.4049
 3809TIP3   OH211432   3.613   5.804   2.140 -0.5271 -0.6829  0.1894
 3809TIP3    H111433   3.689   5.831   2.192 -0.7367  0.0173  0.1471
 3809TIP3    H211434   3.645   5.731   2.088 -0.0249 -0.7287  0.5503
 3810TIP3   OH211435   1.300   1.969   0.644 -0.1731 -0.7669  0.2033
 3810TIP3    H111436   1.295   1.900   0.578  0.9015 -0.2008 -0.4977
 3810TIP3    H211437   1.340   1.926   0.720  0.0553 -1.0269 -0.0638
 3811TIP3   OH211438   2.077   3.497   3.686 -0.0067  0.5748 -0.5436
 3811TIP3    H111439   2.086   3.551   3.607 -2.5398  0.9703 -0.6522
 3811TIP3    H211440   2.049   3.411   3.653  0.9305  0.1147 -0.1709
 3812TIP3   OH211441   4.414   0.042   3.777 -0.4483  0.5878  0.5290
 3812TIP3    H111442   4.434   0.134   3.794 -1.9370  0.6143  2.5810
 3812TIP3    H211443   4.495  -0.005   3.802  1.0749  1.3598 -2.4676
 3813TIP3   OH211444   5.792   5.336   4.042 -0.0428  0.3178  0.0402
 3813TIP3    H111445   5.755   5.352   3.955 -0.7038 -0.6620  0.1251
 3813TIP3    H211446   5.825   5.246   4.038  0.0635  0.3181  0.7477
 3814TIP3   OH211447   5.105   5.482   3.856 -0.3774 -0.0544  0.2524
 3814TIP3    H111448   5.199   5.483   3.876 -0.2049 -0.5714 -0.4920
 3814TIP3    H211449   5.090   5.564   3.808 -0.2910 -0.0117  0.2969
 3815TIP3   OH211450   2.086   5.221   0.168  0.1166  0.1018 -0.3957
 3815TIP3    H111451   2.010   5.271   0.199  0.2283  0.9523 -1.4522
 3815TIP3    H211452   2.121   5.180   0.247  0.4685  2.2807  0.6348
 3816TIP3   OH211453   2.794   1.550   3.346 -0.2105 -0.2312 -0.1086
 3816TIP3    H111454   2.816   1.638   3.375  0.5470  0.1325 -1.7136
 3816TIP3    H211455   2.721   1.524   3.402  0.1420  1.0535  0.9887
 3817TIP3   OH211456   4.146   4.851   1.519  0.1496  0.1520 -0.0378
 3817TIP3    H111457   4.126   4.920   1.581  1.3976 -1.2564  2.0653
 3817TIP3    H211458   4.065   4.839   1.469 -0.3361  2.5233  0.0691
 3818TIP3   OH211459   3.783   4.670   0.753  0.6003  0.1602 -0.1001
 3818TIP3    H111460   3.727   4.621   0.813 -2.3565  1.1815 -1.7784
 3818TIP3    H211461   3.782   4.760   0.788 -1.1595  0.7659 -1.5469
 3819TIP3   OH211462   1.490   5.437   1.900  0.2215 -0.1621 -0.0337
 3819TIP3    H111463   1.460   5.418   1.811  0.7404  0.6415 -0.3890
 3819TIP3    H211464   1.569   5.385   1.910  0.9800  0.8544 -0.5811
 3820TIP3   OH211465   1.345   1.897   2.076  0.2078  0.4484 -0.1375
 3820TIP3    H111466   1.354   1.822   2.136 -1.1828  0.4483  0.1008
 3820TIP3    H211467   1.376   1.864   1.992 -2.0844 -1.0246 -0.4916
 3821TIP3   OH211468   0.267   0.972   2.543 -0.1417  0.3185 -0.4435
 3821TIP3    H111469   0.197   1.037   2.537 -1.2963 -0.9430 -1.2897
 3821TIP3    H211470   0.269   0.948   2.636  0.4029  1.6219 -0.0904
 3822TIP3   OH211471   1.237   5.066   1.928  0.1627  0.3278 -0.3190
 3822TIP3    H111472   1.203   5.155   1.937  1.6252  1.0678 -1.6165
 3822TIP3    H211473   1.324   5.069   1.967  0.5581 -0.3035 -1.1213
 3823TIP3   OH211474   4.253   4.814   4.122 -0.0882  0.0066  0.0558
 3823TIP3    H111475   4.292   4.727   4.129  0.1609  0.0929 -0.2605
 3823TIP3    H211476   4.164   4.802   4.155 -0.5472 -0.7129 -1.3406
 3824TIP3   OH211477   5.286   5.942   4.247 -0.1106  0.1508  0.0002
 3824TIP3    H111478   5.220   5.872   4.251 -0.3461  0.3661 -0.0678
 3824TIP3    H211479   5.237   6.019   4.218 -0.0152  0.5417  0.8473
 3825TIP3   OH211480   4.041   5.053   1.754  0.1754 -0.8699  0.7905
 3825TIP3    H111481   4.065   5.000   1.830  0.3992 -0.9631  0.6563
 3825TIP3    H211482   4.074   5.140   1.775  2.1391 -1.3373 -0.0847
 3826TIP3   OH211483   3.633   0.188   3.893  0.3705 -0.2809 -0.8349
 3826TIP3    H111484   3.709   0.241   3.915 -0.6546  0.9709 -0.1861
 3826TIP3    H211485   3.636   0.116   3.957 -0.4886  1.2853  1.0989
 3827TIP3   OH211486   4.550   0.850   1.185 -0.2830 -0.5483  0.4816
 3827TIP3    H111487   4.488   0.782   1.157 -1.1393 -0.8452  2.8532
 3827TIP3    H211488   4.511   0.932   1.154  0.2223 -1.0162 -1.4945
 3828TIP3   OH211489   0.655   0.470   2.690  0.2493 -0.4968 -0.0223
 3828TIP3    H111490   0.677   0.516   2.609 -0.5203 -1.7455 -0.9705
 3828TIP3    H211491   0.731   0.413   2.706  1.0595  0.8067  0.9774
 3829TIP3   OH211492   3.628   5.620   4.954  0.2874 -0.3061 -0.1220
 3829TIP3    H111493   3.540   5.588   4.973  0.2527  0.0664  0.3683
 3829TIP3    H211494   3.643   5.597   4.863  0.0401 -1.2046  0.0516
 3830TIP3   OH211495   2.388   0.781   2.601  0.0103  0.0126  0.0858
 3830TIP3    H111496   2.380   0.865   2.647 -0.2486  0.1815 -0.2601
 3830TIP3    H211497   2.372   0.715   2.668 -2.3936  0.2914 -0.1303
 3831TIP3   OH211498   2.713   5.709   3.054 -0.2776 -0.1564  0.2910
 3831TIP3    H111499   2.636   5.675   3.099 -0.8830  1.1281  0.2582
 3831TIP3    H211500   2.734   5.642   2.989 -2.0413 -0.0397 -0.4564
 3832TIP3   OH211501   4.709   1.344   0.443 -0.3506  0.1718  0.0923
 3832TIP3    H111502   4.632   1.388   0.406 -0.2350  1.1688  0.9926
 3832TIP3    H211503   4.674   1.286   0.510 -0.2938  1.0248  0.8759
 3833TIP3   OH211504   1.139   2.131   4.594 -0.5913  0.2495  0.5517
 3833TIP3    H111505   1.068   2.068   4.583  1.8075 -2.8344  1.4800
 3833TIP3    H211506   1.152   2.137   4.688 -1.6321  3.3684  0.6172
 3834TIP3   OH211507   4.795   4.145   3.165 -0.0495 -0.2136 -0.1646
 3834TIP3    H111508   4.744   4.221   3.136  2.5019  0.9001 -2.0826
 3834TIP3    H211509   4.753   4.070   3.122  1.2897  0.9757 -3.9233
 3835TIP3   OH211510   1.728   5.432   4.564 -0.0190 -0.3045 -0.1728
 3835TIP3    H111511   1.660   5.499   4.580 -0.9313 -0.9793 -1.0809
 3835TIP3    H211512   1.732   5.383   4.646 -1.4171 -0.9144 -0.4268
 3836TIP3   OH211513   2.834   0.181   0.936  0.3731 -0.0786  0.1128
 3836TIP3    H111514   2.786   0.146   1.011  0.4957 -1.2271 -0.3105
 3836TIP3    H211515   2.877   0.104   0.898 -1.3005  0.0529 -2.3131
 3837TIP3   OH211516   1.089   3.175   3.183 -0.0922  0.0631  0.0744
 3837TIP3    H111517   1.137   3.250   3.148  1.7130 -0.6497  0.8904
 3837TIP3    H211518   1.154   3.126   3.234 -2.1536  0.1973  3.1421
 3838TIP3   OH211519   3.195   5.743   2.054  0.2752 -0.2159 -0.5688
 3838TIP3    H111520   3.101   5.747   2.071  0.1091 -1.7967 -0.9357
 3838TIP3    H211521   3.202   5.707   1.965  1.2241  0.8208 -0.9358
 3839TIP3   OH211522   2.955   2.814   4.517 -0.3429  0.7905 -0.4527
 3839TIP3    H111523   3.017   2.796   4.588 -1.6729 -0.7830  0.3653
 3839TIP3    H211524   2.999   2.781   4.438  0.3107  0.6956 -0.0552
 3840TIP3   OH211525   2.305   0.481   4.803 -0.4513  0.0601 -0.5441
 3840TIP3    H111526   2.297   0.451   4.893  0.2395 -0.7386 -0.7348
 3840TIP3    H211527   2.389   0.526   4.800 -0.3153 -0.2024 -0.8539
 3841TIP3   OH211528   6.184   0.639   3.876  0.4286  0.0039  0.2930
 3841TIP3    H111529   6.182   0.656   3.970 -0.7505  1.6440  0.0001
 3841TIP3    H211530   6.241   0.706   3.840 -0.0864  0.1357 -0.2970
 3842TIP3   OH211531   2.424   2.309   0.397 -0.0598 -0.0208 -0.6895
 3842TIP3    H111532   2.453   2.315   0.488 -1.8683  1.7057 -0.1496
 3842TIP3    H211533   2.495   2.349   0.347  0.4004  0.1736  0.0968
 3843TIP3   OH211534   0.193   5.813   0.980  0.7507  0.0482  0.0611
 3843TIP3    H111535   0.278   5.850   0.958  1.5785 -1.3726  0.7053
 3843TIP3    H211536   0.185   5.736   0.923  0.0054  0.0365  0.1658
 3844TIP3   OH211537   0.487   2.521   1.121 -1.2842  0.0862 -0.1154
 3844TIP3    H111538   0.543   2.446   1.103 -2.3146 -0.2932 -2.1084
 3844TIP3    H211539   0.461   2.552   1.034 -2.5890  1.4357  0.7082
 3845TIP3   OH211540   2.063   5.347   1.645 -0.4131  0.3232 -0.1115
 3845TIP3    H111541   2.078   5.440   1.628  0.0997  0.3255  0.3424
 3845TIP3    H211542   2.107   5.303   1.573  2.3560  0.3075  1.4596
 3846TIP3   OH211543   0.669   1.558   4.710  0.0996 -0.0920 -0.2079
 3846TIP3    H111544   0.762   1.538   4.716  0.4428  1.6220  1.3326
 3846TIP3    H211545   0.628   1.495   4.770  0.4541  0.0642  0.2092
 3847TIP3   OH211546   0.456   1.665   5.165  0.3467  0.1694  0.0337
 3847TIP3    H111547   0.490   1.738   5.216 -1.7536  0.6286  0.8799
 3847TIP3    H211548   0.499   1.588   5.202 -0.0057  0.6469  1.5072
 3848TIP3   OH211549   3.458   5.883   0.938  0.3616  0.4154  0.1486
 3848TIP3    H111550   3.520   5.835   0.882  0.4515  0.0142  0.5883
 3848TIP3    H211551   3.384   5.823   0.949 -0.8968  1.5135 -1.7456
 3849TIP3   OH211552   4.664   5.347   4.447 -0.1613 -0.2744 -0.4683
 3849TIP3    H111553   4.654   5.442   4.439 -3.0163 -0.3472  1.0996
 3849TIP3    H211554   4.722   5.336   4.522  0.5073  0.1806 -0.8973
 3850TIP3   OH211555   5.202   3.058   2.409 -0.4288 -0.8245 -0.2580
 3850TIP3    H111556   5.175   3.136   2.457 -0.2312 -0.3283 -0.9345
 3850TIP3    H211557   5.139   3.050   2.337  0.3443 -0.4840 -0.9939
 3851TIP3   OH211558   3.968   2.357   2.051 -0.0173 -0.1677 -0.0356
 3851TIP3    H111559   3.933   2.395   2.131 -3.0369 -0.3977 -1.0939
 3851TIP3    H211560   3.909   2.389   1.982  1.4704 -1.2876 -1.9255
 3852TIP3   OH211561   5.455   5.686   0.877 -0.5958 -0.1450  0.4037
 3852TIP3    H111562   5.538   5.639   0.889 -0.0741  0.7724  0.4706
 3852TIP3    H211563   5.411   5.638   0.808 -1.3689 -2.4544  2.3502
 3853TIP3   OH211564   4.495   1.120   1.474  0.2633 -0.3344 -0.1860
 3853TIP3    H111565   4.512   1.165   1.557  0.1686 -0.4576 -0.0988
 3853TIP3    H211566   4.516   1.029   1.492 -2.4336 -0.9198  0.5735
 3854TIP3   OH211567   3.038   2.462   3.064  0.5272 -0.5962 -0.2502
 3854TIP3    H111568   3.078   2.532   3.014 -0.2096 -0.6289 -0.8953
 3854TIP3    H211569   2.968   2.428   3.008 -0.1041 -0.8505  0.6575
 3855TIP3   OH211570   3.866   2.982   3.067  0.4722  1.0456 -0.8395
 3855TIP3    H111571   3.844   3.075   3.058 -0.7384  0.8440 -0.2245
 3855TIP3    H211572   3.912   2.961   2.986 -1.0156  1.7191 -1.9209
 3856TIP3   OH211573   5.380   0.430   4.169  0.3048 -0.4260  0.4636
 3856TIP3    H111574   5.394   0.519   4.202  2.0561  0.3848 -2.1607
 3856TIP3    H211575   5.285   0.421   4.164  0.0181  0.4444  2.7455
 3857TIP3   OH211576   6.297   3.298   2.334 -0.1548 -0.2497 -0.3710
 3857TIP3    H111577   6.248   3.344   2.402 -0.6251 -1.8509  0.4195
 3857TIP3    H211578   6.233   3.285   2.264  0.1342  0.7611 -0.8428
 3858TIP3   OH211579   1.073   3.310   2.171  0.8612  0.4141 -0.3904
 3858TIP3    H111580   1.023   3.230   2.183  2.6902 -0.6507  0.4776
 3858TIP3    H211581   1.009   3.380   2.182 -0.3938 -0.8830  0.9358
 3859TIP3   OH211582   5.459   1.279   2.474 -0.2743 -0.2964 -0.4541
 3859TIP3    H111583   5.425   1.325   2.550  1.6433  1.6089 -0.6402
 3859TIP3    H211584   5.498   1.199   2.509  0.5035  0.5093  0.5976
 3860TIP3   OH211585   4.439   0.804   0.488  0.3434 -0.2706  0.1831
 3860TIP3    H111586   4.371   0.823   0.553  0.8907 -0.3759  0.8027
 3860TIP3    H211587   4.431   0.710   0.473 -0.0655 -0.1739 -0.2371
 3861TIP3   OH211588   5.940   0.099   5.164  0.5341 -0.5450 -0.3378
 3861TIP3    H111589   6.016   0.137   5.210  2.0969 -0.0205 -3.1391
 3861TIP3    H211590   5.906   0.170   5.111 -0.2332 -1.5096 -1.1783
 3862TIP3   OH211591   1.435   1.453   1.486  0.0853 -0.1575 -0.1318
 3862TIP3    H111592   1.372   1.383   1.469  0.5556 -0.5418 -0.3404
 3862TIP3    H211593   1.518   1.407   1.502  0.7551  0.3664 -1.7915
 3863TIP3   OH211594   0.272   2.959   0.429 -0.0792  0.1251 -0.3865
 3863TIP3    H111595   0.338   2.953   0.498 -0.7263  1.0391  0.3361
 3863TIP3    H211596   0.257   3.053   0.419 -2.3271 -0.0778  0.4995
 3864TIP3   OH211597   6.018   1.902   0.852  0.0716  0.4703  0.2763
 3864TIP3    H111598   6.011   1.897   0.948 -0.5652  2.0272  0.3337
 3864TIP3    H211599   5.959   1.833   0.821  1.9619 -1.5760  0.9735
 3865TIP3   OH211600   4.633   3.770   0.250  0.4326  0.0558  0.0932
 3865TIP3    H111601   4.708   3.814   0.290  0.1312  1.1581 -0.5139
 3865TIP3    H211602   4.671   3.690   0.212  1.2632  0.4661  0.0241
 3866TIP3   OH211603   0.550   2.261   3.542  0.3964  0.2081  0.0963
 3866TIP3    H111604   0.645   2.250   3.531  0.4213 -0.6514  0.9873
 3866TIP3    H211605   0.518   2.281   3.455  1.2533 -0.7751 -0.4720
 3867TIP3   OH211606   2.915   4.354   2.880 -0.7264  0.1355 -0.1829
 3867TIP3    H111607   2.860   4.316   2.811  0.3816  1.0980 -1.6452
 3867TIP3    H211608   3.004   4.352   2.844 -0.0979  0.5697  1.2738
 3868TIP3   OH211609   4.230   2.800   4.511 -0.2847 -0.1647  0.1115
 3868TIP3    H111610   4.292   2.814   4.583 -0.9326 -1.5910  0.9983
 3868TIP3    H211611   4.235   2.705   4.494 -0.3353  0.1037 -1.5718
 3869TIP3   OH211612   5.178   2.194   4.925 -0.3948  0.5700 -0.3254
 3869TIP3    H111613   5.268   2.228   4.918 -0.5195  0.6926 -1.5952
 3869TIP3    H211614   5.175   2.121   4.864 -0.6189 -0.7071  1.1623
 3870TIP3   OH211615   3.009   3.303   1.384 -0.8627 -0.0806 -0.4272
 3870TIP3    H111616   3.065   3.225   1.379 -2.1896 -1.0260 -0.8684
 3870TIP3    H211617   3.071   3.375   1.399  0.3897 -1.2089  0.0748
 3871TIP3   OH211618   0.172   5.844   2.985  0.4603 -0.0037 -0.7440
 3871TIP3    H111619   0.125   5.894   2.918  0.3233  0.1156 -0.5583
 3871TIP3    H211620   0.202   5.910   3.048 -3.3080 -0.4244  1.8162
 3872TIP3   OH211621   3.177   2.781   3.905 -0.0954  0.0467 -0.1158
 3872TIP3    H111622   3.244   2.793   3.972  0.6743 -0.2434 -0.8076
 3872TIP3    H211623   3.171   2.866   3.861 -0.7799  0.3087  0.4767
 3873TIP3   OH211624   2.674   3.761   2.117 -0.0672  0.0304 -0.2125
 3873TIP3    H111625   2.579   3.768   2.105 -0.1892 -1.7366 -0.6193
 3873TIP3    H211626   2.684   3.732   2.208 -0.0039 -0.8253 -0.4796
 3874TIP3   OH211627   1.443   1.438   0.097 -0.4121 -0.4044 -0.2987
 3874TIP3    H111628   1.489   1.424   0.180 -0.8891  1.2990  0.2850
 3874TIP3    H211629   1.497   1.502   0.051 -0.8921 -0.2791 -0.6928
 3875TIP3   OH211630   2.953   1.875   1.030 -0.0798 -0.2928 -0.1492
 3875TIP3    H111631   2.924   1.860   0.939  1.6438 -1.0812 -0.6143
 3875TIP3    H211632   2.984   1.965   1.031  0.9901 -0.6278 -0.7046
 3876TIP3   OH211633   2.205   4.595   0.735  0.1027 -0.1397 -0.1852
 3876TIP3    H111634   2.186   4.562   0.823 -0.1936 -0.5855 -0.4118
 3876TIP3    H211635   2.120   4.626   0.702  0.0196 -0.8260 -0.6581
 3877TIP3   OH211636   0.702   2.947   2.107 -0.5463  0.2435  0.6488
 3877TIP3    H111637   0.632   2.968   2.045  0.7712  0.5218 -0.7968
 3877TIP3    H211638   0.704   2.852   2.109  0.1725  0.2101 -0.6838
 3878TIP3   OH211639   3.741   4.340   1.516 -0.0243  0.3163 -0.2056
 3878TIP3    H111640   3.659   4.355   1.469  0.5250  0.9309 -1.0211
 3878TIP3    H211641   3.808   4.346   1.447  0.5546 -2.6947 -0.0443
 3879TIP3   OH211642   3.903   1.504   0.706  0.9711 -0.2981 -0.0184
 3879TIP3    H111643   3.944   1.533   0.788 -1.2647 -1.7580  1.7603
 3879TIP3    H211644   3.904   1.581   0.650 -0.4162  1.8494  2.6600
 3880TIP3   OH211645   4.479   0.309   3.838 -0.0777 -0.0784  0.0430
 3880TIP3    H111646   4.440   0.360   3.767  0.3025  1.4073  0.8559
 3880TIP3    H211647   4.564   0.349   3.852  0.0111 -0.6039  1.0728
 3881TIP3   OH211648   3.342   0.323   0.507  0.9948  0.5390  0.2369
 3881TIP3    H111649   3.323   0.414   0.486  0.0601  0.0617 -1.1725
 3881TIP3    H211650   3.270   0.297   0.565  1.0157  0.5905  0.2854
 3882TIP3   OH211651   5.769   5.982   1.559 -0.4965  0.3781 -0.5593
 3882TIP3    H111652   5.788   5.917   1.627  0.8701  3.0648  1.8721
 3882TIP3    H211653   5.817   5.953   1.482  0.6247 -1.1143  0.6570
 3883TIP3   OH211654   4.573   1.791   3.021  0.4325 -0.0884 -0.4282
 3883TIP3    H111655   4.599   1.723   2.959 -1.2760 -0.8527 -0.3685
 3883TIP3    H211656   4.487   1.819   2.991 -0.0996  0.0581  1.1419
 3884TIP3   OH211657   0.722   4.189   3.784 -0.2466  0.3710 -0.0969
 3884TIP3    H111658   0.676   4.265   3.820  4.1484  2.3268  2.2563
 3884TIP3    H211659   0.795   4.227   3.735  0.8871 -2.3827 -0.7146
 3885TIP3   OH211660   2.754   3.770   4.193  0.0292  0.1964  0.2090
 3885TIP3    H111661   2.731   3.685   4.231  0.2386  0.7345  1.6082
 3885TIP3    H211662   2.832   3.753   4.141  0.7776 -0.2716  1.4390
 3886TIP3   OH211663   4.384   1.781   4.362 -0.0822  0.4989 -0.0385
 3886TIP3    H111664   4.407   1.843   4.431  0.9625  1.0529 -0.8544
 3886TIP3    H211665   4.441   1.804   4.289  0.4886 -1.5511 -0.3068
 3887TIP3   OH211666   0.374   5.042   5.034  0.7205  0.3207 -0.3695
 3887TIP3    H111667   0.450   5.101   5.028  1.8128 -0.9258  0.5894
 3887TIP3    H211668   0.402   4.974   5.095 -0.7173 -0.8734 -0.9941
 3888TIP3   OH211669   2.705   2.749   2.584 -0.5584  0.5379  0.6380
 3888TIP3    H111670   2.734   2.722   2.671  0.3856 -0.7847 -0.0576
 3888TIP3    H211671   2.647   2.678   2.556  1.5522 -0.6206 -1.0177
 3889TIP3   OH211672   1.185   6.011   0.735 -0.5340  0.2137  0.0580
 3889TIP3    H111673   1.257   6.047   0.683 -0.5475  1.1904  0.6877
 3889TIP3    H211674   1.171   5.924   0.699  0.1609  0.4665 -0.8705
 3890TIP3   OH211675   4.991   5.174   1.395 -0.1797  0.3847 -0.1726
 3890TIP3    H111676   4.906   5.218   1.400 -1.0054 -1.2895  1.2926
 3890TIP3    H211677   5.042   5.214   1.466 -1.1515 -1.3344  1.5972
 3891TIP3   OH211678   3.843   3.097   0.867 -0.2813 -0.3358 -0.1268
 3891TIP3    H111679   3.879   3.008   0.863  0.8939  0.0337  1.3703
 3891TIP3    H211680   3.890   3.139   0.939 -1.4532  1.2293 -0.2192
 3892TIP3   OH211681   6.066   2.096   0.659  0.4566 -0.4647  0.2155
 3892TIP3    H111682   6.051   2.046   0.739  2.5469  0.3015  1.1344
 3892TIP3    H211683   6.159   2.119   0.661 -0.2311  3.0788 -0.3200
 3893TIP3   OH211684   1.858   3.659   1.737 -0.1908 -0.3415  0.5737
 3893TIP3    H111685   1.793   3.657   1.667 -1.2523 -2.4080  1.5136
 3893TIP3    H211686   1.941   3.675   1.693 -1.0068 -0.3123 -0.9969
 3894TIP3   OH211687   4.319   5.835   4.603 -0.3626 -0.0557  0.5313
 3894TIP3    H111688   4.396   5.862   4.651 -0.7985  0.1038  1.1494
 3894TIP3    H211689   4.321   5.739   4.607 -1.0531 -0.0348  1.9509
 3895TIP3   OH211690   2.728   2.333   2.028 -0.4191  0.1824  0.0401
 3895TIP3    H111691   2.779   2.387   2.089 -1.7238 -1.4880  2.8016
 3895TIP3    H211692   2.650   2.385   2.009 -0.0612  0.6635 -0.1315
 3896TIP3   OH211693   2.637   4.030   4.127 -0.9852  0.2210  0.2110
 3896TIP3    H111694   2.542   4.018   4.120 -1.1791  1.0269  1.1853
 3896TIP3    H211695   2.650   4.125   4.119 -0.1826  0.0631 -0.6028
 3897TIP3   OH211696   0.576   2.439   4.633 -0.3012  0.2260 -0.0482
 3897TIP3    H111697   0.608   2.352   4.608  0.5227  0.3495  0.5377
 3897TIP3    H211698   0.653   2.495   4.631 -0.1441  0.2418  2.7476
 3898TIP3   OH211699   5.132   0.132   0.848  0.3188 -0.1080  0.4857
 3898TIP3    H111700   5.179   0.052   0.823  1.2496  0.8858 -1.1496
 3898TIP3    H211701   5.202   0.195   0.866 -0.2881  1.3935 -1.9589
 3899TIP3   OH211702   1.545   2.667   2.767 -0.3209 -0.1082 -0.1775
 3899TIP3    H111703   1.605   2.742   2.774 -0.1661 -0.3285  1.0799
 3899TIP3    H211704   1.588   2.607   2.706  0.0528  0.3585 -0.3774
 3900TIP3   OH211705   4.633   4.842   4.042  0.6892  0.4145 -0.2944
 3900TIP3    H111706   4.673   4.920   4.004 -0.1585  1.2749  0.5266
 3900TIP3    H211707   4.562   4.820   3.982 -1.3062  2.3680  1.1441
 3901TIP3   OH211708   3.291   0.256   0.082  0.9027 -0.0390 -1.0637
 3901TIP3    H111709   3.367   0.309   0.105  0.1710  1.3115 -1.6376
 3901TIP3    H211710   3.304   0.173   0.130  1.8346  0.8218  0.2537
 3902TIP3   OH211711   4.588   5.811   3.530 -0.1072  0.3847  0.0146
 3902TIP3    H111712   4.598   5.905   3.513 -0.6634  0.3336 -0.6182
 3902TIP3    H211713   4.639   5.796   3.609  1.4966  0.8862 -0.8707
 3903TIP3   OH211714   4.629   0.901   0.852  0.4274 -0.7571 -0.2824
 3903TIP3    H111715   4.677   0.984   0.852  0.5189 -0.8019 -1.3965
 3903TIP3    H211716   4.537   0.926   0.851  0.4571 -0.6571 -1.0081
 3904TIP3   OH211717   4.067   2.529   4.161 -0.2702 -0.2922  0.1425
 3904TIP3    H111718   4.053   2.444   4.120  1.3086 -0.1205 -0.8792
 3904TIP3    H211719   4.112   2.510   4.243  1.1552 -0.4498 -0.6268
 3905TIP3   OH211720   3.806   2.447   1.457  0.1224  0.1037  0.2197
 3905TIP3    H111721   3.902   2.446   1.454  0.1197 -1.0458 -2.3917
 3905TIP3    H211722   3.782   2.355   1.465 -0.7661  0.2982 -0.1734
 3906TIP3   OH211723   1.360   1.947   3.027 -0.3222 -0.1275 -0.0103
 3906TIP3    H111724   1.382   2.028   3.072 -0.2230  0.3390 -0.8837
 3906TIP3    H211725   1.444   1.915   2.993 -0.6248  0.4741 -1.4000
 3907TIP3   OH211726   3.541   2.495   3.802 -0.2974  0.1063 -0.3628
 3907TIP3    H111727   3.614   2.526   3.748 -1.5911  2.2355 -0.9906
 3907TIP3    H211728   3.529   2.565   3.867 -0.2100 -1.3762  1.3230
 3908TIP3   OH211729   5.907   1.168   4.720 -0.0934 -0.2542 -0.5714
 3908TIP3    H111730   5.924   1.258   4.691 -0.6191 -0.3500 -1.2003
 3908TIP3    H211731   5.974   1.151   4.786  0.8599  0.1180 -1.4338
 3909TIP3   OH211732   5.590   2.494   3.001 -0.6155 -0.2983  0.1683
 3909TIP3    H111733   5.565   2.454   2.917 -1.2689  1.7058 -0.6469
 3909TIP3    H211734   5.624   2.580   2.977 -0.7517  0.2921  1.9794
 3910TIP3   OH211735   4.282   3.822   4.099 -0.4092 -0.7024  0.3054
 3910TIP3    H111736   4.227   3.821   4.177 -0.6100 -0.9697  0.1601
 3910TIP3    H211737   4.224   3.793   4.028  0.0284 -1.4083  0.2253
 3911TIP3   OH211738   4.235   4.330   4.871 -0.5282  0.3285 -0.3559
 3911TIP3    H111739   4.255   4.423   4.862 -0.1068  0.4291  1.2597
 3911TIP3    H211740   4.141   4.327   4.890 -0.5281  0.4275 -0.3409
 3912TIP3   OH211741   3.392   0.615   2.044  0.4044 -0.1729  0.5115
 3912TIP3    H111742   3.408   0.574   2.129 -0.2461  2.5717  2.0443
 3912TIP3    H211743   3.479   0.646   2.016  0.3229  0.7046  1.1869
 3913TIP3   OH211744   4.458   2.648   0.360 -0.0863 -0.2097 -0.6092
 3913TIP3    H111745   4.466   2.567   0.409 -3.1761  1.2967  2.8830
 3913TIP3    H211746   4.365   2.653   0.337 -0.0489  2.3265 -0.5373
 3914TIP3   OH211747   5.977   3.982   4.892 -0.1999 -0.1895  0.1034
 3914TIP3    H111748   5.898   3.937   4.923 -1.1066  0.8564 -0.6351
 3914TIP3    H211749   5.991   3.948   4.804 -0.5631  0.5395 -0.2416
 3915TIP3   OH211750   0.631   4.334   4.936 -0.2794  0.0567 -0.2667
 3915TIP3    H111751   0.636   4.289   5.020 -1.9131  0.8595  0.2994
 3915TIP3    H211752   0.612   4.264   4.873  0.5864 -0.5004  0.0724
 3916TIP3   OH211753   0.063   3.451   3.997  0.1162 -0.0785  0.0751
 3916TIP3    H111754   0.094   3.466   3.908  0.2373  3.5509  0.6043
 3916TIP3    H211755  -0.006   3.386   3.987  1.6071 -1.4583 -2.3100
 3917TIP3   OH211756   0.578   5.172   5.160  0.3786 -0.2927 -0.1264
 3917TIP3    H111757   0.554   5.116   5.234  0.7638  0.6248  0.7105
 3917TIP3    H211758   0.540   5.257   5.181  3.1364  0.8780  0.6161
 3918TIP3   OH211759   4.043   4.042   0.307  0.0460  0.6320  0.4900
 3918TIP3    H111760   4.081   3.988   0.237  1.0647  1.7045  0.1623
 3918TIP3    H211761   3.974   4.092   0.263 -1.3142 -0.8102  0.9294
 3919TIP3   OH211762   5.191   0.947   3.978 -0.0200 -0.0284 -0.3215
 3919TIP3    H111763   5.190   0.851   3.988 -0.6422  0.0369  0.3420
 3919TIP3    H211764   5.284   0.970   3.982  0.1441 -0.6179 -0.6176
 3920TIP3   OH211765   5.963   0.748   4.684 -0.2278  0.5795 -0.0763
 3920TIP3    H111766   6.026   0.797   4.738 -1.7420  1.4882  0.9481
 3920TIP3    H211767   5.914   0.816   4.638  1.1827 -0.1718 -2.9339
 3921TIP3   OH211768   2.853   0.548   0.832  0.1301 -0.6070 -0.0821
 3921TIP3    H111769   2.932   0.598   0.809  0.2879 -1.0641 -0.5521
 3921TIP3    H211770   2.871   0.460   0.800 -0.3544 -0.8421  0.2991
 3922TIP3   OH211771   3.615   0.479   0.472  0.1817 -0.0508  0.3481
 3922TIP3    H111772   3.533   0.430   0.480 -1.2557  2.3610  1.4176
 3922TIP3    H211773   3.601   0.538   0.398  0.3053  1.4586  1.4826
 3923TIP3   OH211774   0.048   4.838   2.803 -0.2887 -0.4692 -0.2942
 3923TIP3    H111775   0.090   4.757   2.831 -0.4044 -0.0850  1.0545
 3923TIP3    H211776   0.020   4.880   2.885 -1.0379  0.4923 -1.0240
 3924TIP3   OH211777   5.870   5.367   2.963 -0.8535  0.5339 -0.3377
 3924TIP3    H111778   5.807   5.295   2.966 -0.0034 -0.2153  0.2021
 3924TIP3    H211779   5.870   5.396   2.872 -0.9187 -0.4170 -0.6473
 3925TIP3   OH211780   4.723   2.261   4.682 -0.6877  0.2548  0.7812
 3925TIP3    H111781   4.674   2.326   4.733 -0.0640  1.6035 -0.3020
 3925TIP3    H211782   4.656   2.199   4.652 -1.3912  0.7780  1.2433
 3926TIP3   OH211783   0.260   4.504   1.922 -0.2135  0.4449 -0.2584
 3926TIP3    H111784   0.309   4.586   1.929 -0.7406  0.7350  0.0465
 3926TIP3    H211785   0.278   4.474   1.833 -1.4619  1.8288 -1.0328
 3927TIP3   OH211786   5.216   1.405   4.518  0.4240  0.0609 -0.1712
 3927TIP3    H111787   5.165   1.333   4.481  1.4969 -0.9541  0.2522
 3927TIP3    H211788   5.248   1.370   4.602  1.7076  0.6943 -0.3744
 3928TIP3   OH211789   3.173   3.083   1.312 -0.1765  0.7615  0.1174
 3928TIP3    H111790   3.242   3.041   1.363 -1.6206 -0.9652  0.7434
 3928TIP3    H211791   3.218   3.120   1.236  1.3794 -0.5927  0.3351
 3929TIP3   OH211792   5.573   2.129   1.881  0.2743  0.2747  0.3745
 3929TIP3    H111793   5.564   2.165   1.793 -0.3594 -0.6281  0.0514
 3929TIP3    H211794   5.561   2.035   1.869 -0.4935  0.2145  1.5149
 3930TIP3   OH211795   4.477   5.389   3.154 -0.1787  0.1479 -0.2003
 3930TIP3    H111796   4.541   5.452   3.187 -1.1763  1.4261 -0.6291
 3930TIP3    H211797   4.441   5.348   3.232  0.6722 -0.0997  0.0707
 3931TIP3   OH211798   1.557   2.611   5.045 -0.4362 -0.3519  0.0299
 3931TIP3    H111799   1.579   2.522   5.074 -0.6230 -1.1149 -1.9820
 3931TIP3    H211800   1.488   2.598   4.980 -0.4087  1.2779 -0.3656
 3932TIP3   OH211801   1.226   0.005   4.932 -0.6613  0.0691  0.7895
 3932TIP3    H111802   1.218   0.091   4.973 -1.7427  0.7581 -0.7507
 3932TIP3    H211803   1.303   0.013   4.876 -1.5080  0.5083 -0.3499
 3933TIP3   OH211804   4.889   3.392   2.055  0.5637 -0.0096 -0.1097
 3933TIP3    H111805   4.840   3.455   2.108  0.0022 -0.5134 -0.0175
 3933TIP3    H211806   4.906   3.318   2.114  0.7933 -0.1552 -0.3524
 3934TIP3   OH211807   5.762   1.250   0.100  0.1647 -0.6529 -0.4347
 3934TIP3    H111808   5.674   1.228   0.129  0.4409  0.1342  1.1068
 3934TIP3    H211809   5.794   1.312   0.165  2.2531 -1.7607 -0.3170
 3935TIP3   OH211810   2.441   0.168   2.918 -0.0438 -0.0814  0.0564
 3935TIP3    H111811   2.396   0.221   2.852 -0.0862  1.6583  1.4032
 3935TIP3    H211812   2.452   0.227   2.993  2.3953 -1.1689  0.6466
 3936TIP3   OH211813   3.757   4.327   2.509  0.2624  0.3863  0.0607
 3936TIP3    H111814   3.714   4.273   2.576 -0.0093  0.9182  0.3277
 3936TIP3    H211815   3.736   4.284   2.426 -2.2590  1.5167  0.0030
 3937TIP3   OH211816   5.901   2.910   2.922 -0.2974 -0.4993  0.1112
 3937TIP3    H111817   5.927   2.860   3.000  1.4560  1.4218  0.8517
 3937TIP3    H211818   5.933   2.858   2.848  0.2181 -1.1617  0.7874
 3938TIP3   OH211819   0.521  -0.022   5.128  0.6636 -0.6308  0.5333
 3938TIP3    H111820   0.566  -0.009   5.045 -3.0144  1.0873 -1.4060
 3938TIP3    H211821   0.520   0.065   5.168  0.1167 -0.9052  1.1332
 3939TIP3   OH211822   1.378   2.693   2.100 -0.0364  0.4929  0.7839
 3939TIP3    H111823   1.335   2.776   2.080 -1.4220  0.0704  1.9129
 3939TIP3    H211824   1.311   2.640   2.143  0.7214 -1.3308 -0.1303
 3940TIP3   OH211825   2.947   0.856   3.516  0.1979 -0.0275 -0.5758
 3940TIP3    H111826   2.957   0.906   3.435 -1.2936  0.2027 -0.6479
 3940TIP3    H211827   2.918   0.920   3.580 -0.9248 -0.6395 -0.4576
 3941TIP3   OH211828   1.884   4.446   4.532  0.2561  0.1423  0.1980
 3941TIP3    H111829   1.882   4.464   4.626 -0.0838 -0.4737  0.3093
 3941TIP3    H211830   1.867   4.352   4.524  2.2479 -0.2185 -0.3692
 3942TIP3   OH211831   2.162   2.279   0.316 -0.3533  0.3788  0.3036
 3942TIP3    H111832   2.110   2.293   0.395 -0.9904 -1.1078  0.1804
 3942TIP3    H211833   2.252   2.298   0.344 -0.5427 -0.2854  1.4409
 3943TIP3   OH211834   4.245   0.612   1.418 -0.2912 -0.4498  0.6170
 3943TIP3    H111835   4.329   0.580   1.384 -0.7621 -1.6539  0.5345
 3943TIP3    H211836   4.236   0.570   1.503 -0.7852 -0.2634  0.6583
 3944TIP3   OH211837   1.605   1.387   4.732 -0.1277 -0.2805 -0.4336
 3944TIP3    H111838   1.662   1.346   4.667  0.4060 -1.1443  0.5398
 3944TIP3    H211839   1.653   1.463   4.763  0.3629 -0.7921  0.1070
 3945TIP3   OH211840   3.367   2.968   2.249 -0.4534  0.9284  0.3150
 3945TIP3    H111841   3.400   3.058   2.260 -2.0603  1.4968  0.8435
 3945TIP3    H211842   3.341   2.964   2.157 -0.1869  0.9252  0.2375
 3946TIP3   OH211843   1.575   0.304   0.527 -0.0874  0.0250  0.6276
 3946TIP3    H111844   1.503   0.241   0.527 -0.6396  0.6420 -0.2411
 3946TIP3    H211845   1.597   0.316   0.435 -1.4442  2.7099  0.5565
 3947TIP3   OH211846   2.672   0.351   4.604 -0.2699 -0.0968 -0.6067
 3947TIP3    H111847   2.702   0.414   4.539  0.7675  0.4985  0.4070
 3947TIP3    H211848   2.699   0.266   4.570 -0.0299  0.1764 -1.0997
 3948TIP3   OH211849   1.318   4.600   1.341  0.0828  0.0480  0.2822
 3948TIP3    H111850   1.322   4.646   1.425  0.2445 -1.5993  1.2201
 3948TIP3    H211851   1.376   4.525   1.352  0.0062 -0.2745 -1.2732
 3949TIP3   OH211852   3.950   4.250   2.738  0.0542  0.0007  0.0038
 3949TIP3    H111853   4.045   4.259   2.751  0.0980 -0.3386 -0.0655
 3949TIP3    H211854   3.939   4.163   2.700 -0.3723 -0.4008  1.0005
 3950TIP3   OH211855   5.569   1.080   3.320  0.2311 -0.1696  0.1237
 3950TIP3    H111856   5.573   1.133   3.240  1.3143 -0.0277  0.2600
 3950TIP3    H211857   5.660   1.073   3.349 -0.1179 -0.4141  1.2166
 3951TIP3   OH211858   1.977   4.873   0.397 -0.1083  0.5597 -0.0406
 3951TIP3    H111859   1.974   4.968   0.380 -0.4633  0.5445 -0.0646
 3951TIP3    H211860   1.889   4.843   0.377 -0.1273  0.3011  0.4411
 3952TIP3   OH211861   2.149   4.274   1.232 -0.0756  0.2819  0.5561
 3952TIP3    H111862   2.238   4.248   1.206  0.0497  1.0044  0.2211
 3952TIP3    H211863   2.148   4.369   1.220 -0.5857  0.4122  1.5096
 3953TIP3   OH211864   0.389   0.466   2.617  0.1609 -0.3106 -0.1249
 3953TIP3    H111865   0.475   0.503   2.637 -0.4017  0.7745  0.3841
 3953TIP3    H211866   0.399   0.427   2.530  0.8145  1.0281 -0.6782
 3954TIP3   OH211867   4.245   2.683   3.959  0.5568 -0.1365  0.1947
 3954TIP3    H111868   4.178   2.686   4.028 -0.3399 -0.5899 -0.6241
 3954TIP3    H211869   4.328   2.693   4.005  0.0892 -1.8564  1.5198
 3955TIP3   OH211870   4.074   2.804   0.460  0.1739  0.0084 -0.2222
 3955TIP3    H111871   3.988   2.829   0.426  0.2856  0.2607 -0.3228
 3955TIP3    H211872   4.055   2.753   0.539 -0.1806 -2.5913 -1.8562
 3956TIP3   OH211873   0.278   0.510   2.882  0.0343 -0.1582 -0.5651
 3956TIP3    H111874   0.290   0.493   2.788 -0.9783 -0.4392 -0.6508
 3956TIP3    H211875   0.322   0.593   2.897 -0.1268  0.0807 -1.3673
 3957TIP3   OH211876   1.496   3.743   2.431 -0.3146 -0.2873  0.0999
 3957TIP3    H111877   1.517   3.819   2.485  4.1234 -0.9448 -0.3467
 3957TIP3    H211878   1.501   3.775   2.341 -0.3435 -0.7404 -0.0654
 3958TIP3   OH211879   1.398   4.666   1.623 -0.0610 -0.3519  0.7778
 3958TIP3    H111880   1.473   4.657   1.682 -0.4619 -0.4575  1.2857
 3958TIP3    H211881   1.342   4.731   1.667  0.5496  1.0801 -0.4673
 3959TIP3   OH211882   4.628   5.453   1.960 -0.2092 -0.6508  0.1020
 3959TIP3    H111883   4.635   5.406   1.876 -0.0923 -2.8718  1.2781
 3959TIP3    H211884   4.562   5.404   2.009  0.7770 -0.2865  1.8689
 3960TIP3   OH211885   2.958   1.351   3.719 -0.2355 -0.3523  0.3199
 3960TIP3    H111886   2.988   1.432   3.678 -1.4695  0.5694  1.1320
 3960TIP3    H211887   3.020   1.335   3.789 -0.1381  0.0576  0.3311
 3961TIP3   OH211888   0.898   5.909   1.483  0.5985 -0.3863  0.2714
 3961TIP3    H111889   0.985   5.928   1.516  1.5200 -2.3568 -0.8654
 3961TIP3    H211890   0.851   5.872   1.558  1.4573 -1.3818  0.3255
 3962TIP3   OH211891   4.426   2.580   2.165 -0.4183  0.3700  0.0116
 3962TIP3    H111892   4.354   2.542   2.215 -0.9677 -0.8986 -1.6470
 3962TIP3    H211893   4.385   2.650   2.114 -0.1721  0.6141  0.1454
 3963TIP3   OH211894   1.587   0.952   1.055 -0.4838  0.2822  0.3304
 3963TIP3    H111895   1.653   0.882   1.065 -0.6750  0.1321  0.5453
 3963TIP3    H211896   1.583   0.967   0.961 -0.8055 -0.3484  0.2408
 3964TIP3   OH211897   0.954   0.185   1.593  0.1857  0.2429  0.2213
 3964TIP3    H111898   0.941   0.271   1.632 -0.8572  0.1694  0.0480
 3964TIP3    H211899   1.049   0.170   1.598  0.1284  0.3779  2.3657
 3965TIP3   OH211900   1.347   2.138   0.945 -0.8161 -0.1389  0.5613
 3965TIP3    H111901   1.360   2.050   0.910  2.7479  0.2930  0.3493
 3965TIP3    H211902   1.304   2.186   0.874 -1.2306 -1.2886  0.0171
 3966TIP3   OH211903   1.432   4.265   0.543 -0.1501  0.4168  0.3963
 3966TIP3    H111904   1.393   4.345   0.580  0.7314  0.5047  1.1620
 3966TIP3    H211905   1.465   4.292   0.457  0.7931  1.0699  0.9529
 3967TIP3   OH211906   0.565   2.591   3.508 -0.0843 -0.2073 -0.1230
 3967TIP3    H111907   0.488   2.577   3.563 -0.7777  2.2269 -0.3616
 3967TIP3    H211908   0.637   2.603   3.570 -0.4949  0.5290  0.2297
 3968TIP3   OH211909   2.403   4.141   1.207  0.4442 -0.6577  0.5033
 3968TIP3    H111910   2.473   4.123   1.144 -0.8965 -2.1559 -0.6557
 3968TIP3    H211911   2.354   4.059   1.211 -1.1542  0.3022  1.3972
 3969TIP3   OH211912   0.628   3.602   2.490 -0.0733 -0.1882 -0.5636
 3969TIP3    H111913   0.607   3.609   2.584 -0.1414  2.1519 -0.6876
 3969TIP3    H211914   0.555   3.553   2.453 -0.9688  0.3865  0.3678
 3970TIP3   OH211915   6.295   2.771   0.531  0.0908  0.2731 -0.0317
 3970TIP3    H111916   6.267   2.862   0.516  0.5705  0.4290  0.0160
 3970TIP3    H211917   6.379   2.779   0.576  0.0970 -0.1972  0.0398
 3971TIP3   OH211918   3.266   2.173   2.401 -0.4567 -0.1449 -0.7807
 3971TIP3    H111919   3.309   2.241   2.453 -0.8638 -0.0899 -0.5064
 3971TIP3    H211920   3.335   2.136   2.347 -0.2535  0.5808 -1.0286
 3972TIP3   OH211921   1.638   0.833   2.108 -0.1267 -0.1906 -0.3730
 3972TIP3    H111922   1.645   0.769   2.038 -0.3467 -1.4992  0.7633
 3972TIP3    H211923   1.550   0.822   2.143 -0.3750  1.1422 -0.5119
 3973TIP3   OH211924   0.475   0.321   3.500 -0.3211 -0.1473 -0.1408
 3973TIP3    H111925   0.411   0.390   3.483 -0.9967 -0.8950 -0.6785
 3973TIP3    H211926   0.489   0.280   3.415  0.3239 -0.4764  0.1159
 3974TIP3   OH211927   5.515   3.560   0.715 -0.2069  0.1513 -0.6494
 3974TIP3    H111928   5.566   3.616   0.657 -0.9324  1.1046 -0.3940
 3974TIP3    H211929   5.538   3.591   0.803 -0.4117 -0.1190 -0.5005
 3975TIP3   OH211930   3.958   2.682   5.164  0.1865  0.5538  0.1069
 3975TIP3    H111931   4.021   2.653   5.229  0.4036  0.3067 -0.2089
 3975TIP3    H211932   3.943   2.774   5.184  1.0979  0.7716 -0.1742
 3976TIP3   OH211933   5.971   1.220   0.417 -0.2239  0.2283 -0.4432
 3976TIP3    H111934   5.932   1.134   0.438 -1.3788  1.1240  1.3752
 3976TIP3    H211935   6.007   1.250   0.501  2.4830  0.4480 -1.5915
 3977TIP3   OH211936   1.586   1.526   2.401  0.2293  0.2694 -0.1698
 3977TIP3    H111937   1.648   1.496   2.335 -0.0194 -0.7171  0.0251
 3977TIP3    H211938   1.641   1.549   2.476  0.3009 -3.0803  0.9652
 3978TIP3   OH211939   6.014   5.932   2.107  0.8012 -0.0232 -0.1026
 3978TIP3    H111940   6.103   5.903   2.086  0.8628  1.2495 -1.8882
 3978TIP3    H211941   6.025   6.023   2.135  0.1091 -0.0694  0.3472
 3979TIP3   OH211942   5.397   1.072   2.986 -0.2023  0.1852  0.0942
 3979TIP3    H111943   5.338   1.128   2.934  0.4214  0.7829  0.0142
 3979TIP3    H211944   5.338   1.018   3.038 -0.8456 -0.4979 -1.2949
 3980TIP3   OH211945   4.213   1.427   2.079 -0.0602 -0.2665  0.0922
 3980TIP3    H111946   4.124   1.396   2.097 -0.4110 -0.2584 -1.5234
 3980TIP3    H211947   4.201   1.512   2.038  0.7465  0.1228  0.6362
 3981TIP3   OH211948   1.270   1.181   5.102 -0.0693 -0.2217 -0.7995
 3981TIP3    H111949   1.354   1.204   5.063  1.0740 -0.7490  1.2224
 3981TIP3    H211950   1.249   1.095   5.065  1.7132 -1.3879  0.7078
 3982TIP3   OH211951   3.427   4.506   2.764  0.1920 -0.8738 -0.1193
 3982TIP3    H111952   3.422   4.546   2.851 -0.2940 -1.2413  0.0272
 3982TIP3    H211953   3.395   4.573   2.704 -2.6006 -1.6593  0.3303
 3983TIP3   OH211954   5.854   0.465   1.255  0.3277  0.6208 -0.2208
 3983TIP3    H111955   5.825   0.432   1.341 -0.0126  0.7070 -0.3038
 3983TIP3    H211956   5.831   0.395   1.194 -0.1882  0.9161 -0.3645
 3984TIP3   OH211957   2.101   1.486   1.093 -0.1721  0.1387  0.2189
 3984TIP3    H111958   2.026   1.457   1.042 -0.4189  0.5743  0.3369
 3984TIP3    H211959   2.172   1.493   1.028 -0.2495 -0.1896  0.0945
 3985TIP3   OH211960   2.506   0.668   4.137 -0.4771 -0.1816 -0.2994
 3985TIP3    H111961   2.460   0.605   4.081 -3.0795  1.2602  0.0582
 3985TIP3    H211962   2.463   0.661   4.222  0.3121  0.8647  0.2119
 3986TIP3   OH211963   2.485   1.633   1.631 -0.4659  0.0232 -0.1976
 3986TIP3    H111964   2.521   1.721   1.639 -0.4602  0.0362 -0.3518
 3986TIP3    H211965   2.452   1.612   1.718  0.8440 -0.3947  0.2264
 3987TIP3   OH211966   1.300   3.196   4.017  0.1991 -0.1073 -0.8245
 3987TIP3    H111967   1.332   3.109   3.992 -0.8395 -0.7247 -0.1050
 3987TIP3    H211968   1.314   3.250   3.939  2.2755 -0.5067 -0.7802
 3988TIP3   OH211969   1.065   2.560   1.795 -0.2288  0.2647  0.0242
 3988TIP3    H111970   1.079   2.653   1.778  0.8439 -0.1061 -1.3221
 3988TIP3    H211971   1.145   2.531   1.839 -0.1467 -0.2120 -0.4311
 3989TIP3   OH211972   4.085   5.429   1.333  0.1654 -0.0829  0.1938
 3989TIP3    H111973   4.177   5.416   1.358  0.1255  0.3920  0.5900
 3989TIP3    H211974   4.047   5.341   1.338  0.6892 -0.3552 -0.3653
 3990TIP3   OH211975   5.160   4.928   2.908 -0.1470  0.7056  0.5045
 3990TIP3    H111976   5.174   4.861   2.841  1.5742  2.0270 -0.5763
 3990TIP3    H211977   5.232   4.916   2.969 -0.3899  0.9511  0.8430
 3991TIP3   OH211978   3.675   0.731   1.523  0.6889  0.2276  0.4371
 3991TIP3    H111979   3.730   0.666   1.479 -0.4996  0.0344 -0.8120
 3991TIP3    H211980   3.676   0.704   1.615  1.7566 -0.4256  0.2542
 3992TIP3   OH211981   5.673   2.350   4.365 -0.2522  0.5369 -0.1642
 3992TIP3    H111982   5.586   2.336   4.327 -0.1275  0.7230 -0.5201
 3992TIP3    H211983   5.734   2.325   4.296 -0.0116  3.1569 -1.0268
 3993TIP3   OH211984   5.873   0.681   2.480 -0.2014 -0.1232 -0.1135
 3993TIP3    H111985   5.854   0.628   2.403  0.1211  1.6064 -1.4386
 3993TIP3    H211986   5.854   0.623   2.554 -1.5954 -1.4805 -1.4550
 3994TIP3   OH211987   0.150   0.465   1.957 -0.0198  0.1669 -0.2725
 3994TIP3    H111988   0.190   0.547   1.986  0.7544 -0.2643 -0.0784
 3994TIP3    H211989   0.071   0.492   1.910 -0.0268  0.9948  0.1893
 3995TIP3   OH211990   2.032   2.406   2.580 -0.3949  0.6333  0.1616
 3995TIP3    H111991   2.073   2.481   2.623  1.0826 -0.4387  0.7069
 3995TIP3    H211992   2.097   2.377   2.517 -1.2026  0.1603 -0.4702
 3996TIP3   OH211993   4.701   0.153   4.045  0.2030 -0.1695 -0.0836
 3996TIP3    H111994   4.654   0.236   4.050  1.5660  0.5662  1.9874
 3996TIP3    H211995   4.714   0.127   4.136 -1.5323 -3.5463 -0.6429
 3997TIP3   OH211996   1.396   1.958   3.540 -0.2537  0.4132 -0.4002
 3997TIP3    H111997   1.316   1.914   3.513 -0.6805  1.0437 -0.1865
 3997TIP3    H211998   1.425   2.006   3.462  0.7394 -0.9757 -0.9282
 3998TIP3   OH211999   0.138   2.306   4.149  0.6450  0.2670 -0.5930
 3998TIP3    H112000   0.149   2.287   4.056  0.5695  2.1987 -1.0387
 3998TIP3    H212001   0.187   2.237   4.193  2.0788  0.2556 -2.1036
 3999TIP3   OH212002   5.786   1.560   1.718  0.5319 -0.1860  0.5203
 3999TIP3    H112003   5.820   1.618   1.786  0.1989 -1.1010  1.4823
 3999TIP3    H212004   5.777   1.475   1.760 -0.9081 -0.4767 -0.3035
 4000TIP3   OH212005   1.923   3.233   0.030  0.0793  1.0384 -0.2914
 4000TIP3    H112006   1.984   3.217   0.102 -0.5447  0.8617  0.2061
 4000TIP3    H212007   1.958   3.310  -0.014  1.5701 -0.0066 -1.0164
 4001TIP3   OH212008   1.851   1.008   4.949  0.4143  0.7709  0.2429
 4001TIP3    H112009   1.783   1.015   5.017 -0.4177 -0.1804 -0.4519
 4001TIP3    H212010   1.869   1.099   4.924  0.1779  1.0939  1.1947
 4002TIP3   OH212011   4.710   4.673   0.984  0.5561  0.2576 -0.4633
 4002TIP3    H112012   4.721   4.618   1.062  0.3416  1.8825  0.7836
 4002TIP3    H212013   4.639   4.632   0.935  0.7633 -0.8638  0.1360
 4003TIP3   OH212014   5.494   0.514   5.005  0.6410  0.3187  0.0916
 4003TIP3    H112015   5.556   0.453   4.964  1.2912  1.1499 -0.1981
 4003TIP3    H212016   5.427   0.528   4.938  1.9293  2.0142 -0.9411
 4004TIP3   OH212017   1.585   4.278   2.541  0.5530 -0.3036 -0.3090
 4004TIP3    H112018   1.645   4.252   2.471  0.8231  1.5080 -0.8160
 4004TIP3    H212019   1.502   4.238   2.519  0.8371 -0.3930 -1.2455
 4005TIP3   OH212020   1.422   1.640   4.475  0.2442 -0.4445 -0.2926
 4005TIP3    H112021   1.409   1.710   4.538 -1.8516 -2.5097  1.8081
 4005TIP3    H212022   1.390   1.675   4.392  1.6201  1.8460  0.0865
 4006TIP3   OH212023   0.508   3.794   4.691  0.0055 -0.1113  0.4645
 4006TIP3    H112024   0.593   3.837   4.685  0.2392 -0.5436  0.6226
 4006TIP3    H212025   0.527   3.708   4.729 -0.4175 -0.4591 -0.0867
 4007TIP3   OH212026   0.633   3.578   0.364 -0.1618  0.3171 -0.4518
 4007TIP3    H112027   0.572   3.649   0.383  0.7260  1.1937 -0.8128
 4007TIP3    H212028   0.717   3.607   0.401  0.1064 -0.7497 -0.1910
 4008TIP3   OH212029   5.340   2.661   0.745 -0.0197  0.4863 -0.3489
 4008TIP3    H112030   5.279   2.608   0.693 -0.2157 -0.1761  0.5290
 4008TIP3    H212031   5.337   2.748   0.705 -1.4035  0.4174 -0.4472
 4009TIP3   OH212032   5.572   2.629   2.610 -0.1904 -0.2869 -0.1579
 4009TIP3    H112033   5.495   2.581   2.641 -0.4866 -0.4480 -1.1146
 4009TIP3    H212034   5.588   2.695   2.678 -0.1457 -1.3226  0.8792
 4010TIP3   OH212035   4.439   1.593   1.303 -0.0183  0.1205  0.0369
 4010TIP3    H112036   4.404   1.668   1.351  0.8329  1.1859 -0.9548
 4010TIP3    H212037   4.378   1.522   1.323  0.1568  0.5559  2.4729
 4011TIP3   OH212038   5.871   5.603   3.160  0.5550  0.1875 -0.1050
 4011TIP3    H112039   5.878   5.528   3.102  1.0716 -0.7795  1.1630
 4011TIP3    H212040   5.883   5.679   3.103  0.3918 -0.6986 -1.3452
 4012TIP3   OH212041   2.905   5.883   1.023 -0.0564  0.4660 -0.3905
 4012TIP3    H112042   2.933   5.926   0.942 -0.4835 -0.4854 -1.0593
 4012TIP3    H212043   2.813   5.862   1.009  0.1472 -0.6664 -0.0880
 4013TIP3   OH212044   5.337   3.705   3.432  0.1010  0.4957 -0.4506
 4013TIP3    H112045   5.409   3.745   3.384  0.8316  2.6732  2.2550
 4013TIP3    H212046   5.379   3.649   3.498 -0.7456  0.1981 -0.1394
 4014TIP3   OH212047   0.683   1.149   0.717 -0.5766  0.0359 -0.9252
 4014TIP3    H112048   0.731   1.085   0.771 -0.0468  1.1121 -0.0662
 4014TIP3    H212049   0.749   1.185   0.658 -0.7701  0.0900 -1.1075
 4015TIP3   OH212050   1.246   3.067   0.593 -0.7168 -0.0956  0.4807
 4015TIP3    H112051   1.151   3.051   0.588 -0.3938 -2.3434  0.5159
 4015TIP3    H212052   1.277   3.057   0.503 -0.3443 -0.7537  0.6743
 4016TIP3   OH212053   0.294   4.511   0.425  0.0193  0.5926  0.3848
 4016TIP3    H112054   0.318   4.447   0.492 -0.9115  0.0361  0.1922
 4016TIP3    H212055   0.199   4.510   0.422  0.0145  1.3297 -0.2669
 4017TIP3   OH212056   0.635   0.437   0.680  0.1230 -0.0642  0.5007
 4017TIP3    H112057   0.684   0.376   0.735 -0.5960 -3.3213 -2.1499
 4017TIP3    H212058   0.544   0.417   0.698 -0.1185 -0.4811 -1.0568
 4018TIP3   OH212059   3.733   1.122   3.598 -0.1733  0.5030 -0.2262
 4018TIP3    H112060   3.759   1.108   3.507 -0.8251 -0.8794 -0.2294
 4018TIP3    H212061   3.649   1.167   3.593 -1.2945 -1.4621 -0.4183
 4019TIP3   OH212062   4.719   3.229   3.000 -0.4189 -0.7984 -0.3234
 4019TIP3    H112063   4.744   3.153   2.947 -3.4290 -1.0677 -1.5362
 4019TIP3    H212064   4.628   3.246   2.976 -0.2482  2.4104  0.9097
 4020TIP3   OH212065   3.722   3.922   2.799  0.0812  0.3107 -0.0808
 4020TIP3    H112066   3.710   4.011   2.765 -1.6868  0.2198  0.2042
 4020TIP3    H212067   3.695   3.865   2.728  0.2227  0.0260  0.0915
 4021TIP3   OH212068   3.528   2.256   0.261 -0.6053 -0.4158 -0.5090
 4021TIP3    H112069   3.497   2.315   0.192  0.6673  0.6171 -0.2452
 4021TIP3    H212070   3.624   2.256   0.250 -0.0386  1.9701  2.8902
 4022TIP3   OH212071   4.626   5.165   1.094  0.1946 -0.3526  0.5478
 4022TIP3    H112072   4.720   5.168   1.077  0.1166  0.5925  0.2305
 4022TIP3    H212073   4.601   5.256   1.109 -0.3439 -0.7882  2.5892
 4023TIP3   OH212074   2.973   4.544   1.332  0.4968 -0.3920  0.2237
 4023TIP3    H112075   2.906   4.612   1.341 -1.1696 -1.7879 -0.9308
 4023TIP3    H212076   2.997   4.521   1.421  0.1022  0.7653  0.6416
 4024TIP3   OH212077   0.758   3.514   4.624  0.0030  0.0666  0.1731
 4024TIP3    H112078   0.681   3.461   4.645  0.1987 -0.5068 -0.5151
 4024TIP3    H212079   0.815   3.455   4.575  1.2560  0.2322  1.3757
 4025TIP3   OH212080   4.651   0.758   3.146 -0.7963 -0.2548 -0.5874
 4025TIP3    H112081   4.573   0.705   3.158 -0.1985 -1.2421 -0.8968
 4025TIP3    H212082   4.710   0.730   3.216  0.2227 -1.3565 -1.8220
 4026TIP3   OH212083   2.218   1.404   4.186  0.6094  0.4682 -0.6005
 4026TIP3    H112084   2.299   1.363   4.214 -0.5551 -0.6096  1.4084
 4026TIP3    H212085   2.216   1.488   4.233 -0.5797 -0.6361  1.4765
 4027TIP3   OH212086   5.046   0.168   4.708 -0.3820  0.3072  0.0106
 4027TIP3    H112087   5.037   0.207   4.621 -1.1100  2.9461  1.1861
 4027TIP3    H212088   5.065   0.241   4.766  1.7698 -1.5972  1.8916
 4028TIP3   OH212089   5.748   1.663   1.358  0.1380  0.1425 -0.0326
 4028TIP3    H112090   5.720   1.694   1.272 -0.8125 -1.2071 -0.2380
 4028TIP3    H212091   5.790   1.579   1.340 -1.2398 -0.7924  0.9264
 4029TIP3   OH212092   5.298   3.664   0.478 -0.7318 -0.1728 -0.2384
 4029TIP3    H112093   5.353   3.597   0.436 -0.4642 -0.5797  0.7323
 4029TIP3    H212094   5.360   3.725   0.518 -0.9631 -0.6400  0.8702
 4030TIP3   OH212095   5.443   2.251   4.886  0.9055  0.0159  0.3128
 4030TIP3    H112096   5.526   2.292   4.909  1.2075  1.2117 -2.5703
 4030TIP3    H212097   5.442   2.249   4.790 -2.8473  1.0659  0.1781
 4031TIP3   OH212098   5.882   4.984   4.458  0.3357 -0.2628 -0.1741
 4031TIP3    H112099   5.950   5.028   4.407  1.0348 -1.8109 -0.6468
 4031TIP3    H212100   5.907   4.999   4.550  1.3394 -0.8083 -0.3401
 4032TIP3   OH212101   1.948   5.989   3.346 -0.4135 -0.0431 -0.0932
 4032TIP3    H112102   1.911   5.986   3.434  2.1112  1.3889  1.1295
 4032TIP3    H212103   1.994   5.906   3.337  0.0595  0.1578  0.3486
 4033TIP3   OH212104  -0.024   5.108   1.614  0.1498 -0.4162  0.0950
 4033TIP3    H112105   0.070   5.090   1.619 -0.1158 -1.6433  1.1840
 4033TIP3    H212106  -0.037   5.142   1.525  1.8276  1.1849  0.3979
 4034TIP3   OH212107   5.568   0.276   2.353  0.4637  0.7220 -0.0845
 4034TIP3    H112108   5.475   0.255   2.346  0.2534  1.2315  0.9778
 4034TIP3    H212109   5.611   0.191   2.361  0.3307  0.3339 -2.6063
 4035TIP3   OH212110   3.112   5.663   3.167 -0.1274  0.5739 -0.0340
 4035TIP3    H112111   3.199   5.703   3.174  0.9673 -1.2313 -2.2090
 4035TIP3    H212112   3.085   5.681   3.077 -1.0729 -0.6771 -0.0205
 4036TIP3   OH212113   0.323   4.438   1.647  0.0523  0.7856  0.7263
 4036TIP3    H112114   0.281   4.455   1.562 -0.1937  1.3764  0.9581
 4036TIP3    H212115   0.387   4.369   1.629 -1.8506 -1.0477  0.6014
 4037TIP3   OH212116   0.376   1.350   5.085  0.8568  0.0978 -0.0603
 4037TIP3    H112117   0.401   1.260   5.063  0.3937  0.4363 -2.2241
 4037TIP3    H212118   0.389   1.356   5.180  1.0741 -2.1788  0.1187
 4038TIP3   OH212119   1.633   0.240   4.436  0.2253 -0.5886  0.9559
 4038TIP3    H112120   1.697   0.270   4.501 -0.7894 -0.2685  1.8287
 4038TIP3    H212121   1.619   0.148   4.456  2.8337 -1.6296 -1.3073
 4039TIP3   OH212122   2.498   4.112   5.102  0.4435 -0.0676  0.4398
 4039TIP3    H112123   2.572   4.148   5.151  1.6767 -2.0787  0.1598
 4039TIP3    H212124   2.454   4.054   5.164  0.3650 -0.4984 -0.0092
 4040TIP3   OH212125   6.118   4.225   1.203 -0.0026  0.1535  0.1973
 4040TIP3    H112126   6.184   4.250   1.268 -0.0894 -1.6447  1.0539
 4040TIP3    H212127   6.053   4.176   1.253 -0.8049 -0.0591 -1.0194
 4041TIP3   OH212128   4.506   1.424   0.281  0.1800 -0.6939  0.4131
 4041TIP3    H112129   4.481   1.391   0.195  1.5198  0.4771 -0.4748
 4041TIP3    H212130   4.424   1.460   0.318  0.1227  1.7680 -1.7991
 4042TIP3   OH212131   4.154   4.536   3.896  0.1812  0.4246 -0.2187
 4042TIP3    H112132   4.172   4.580   3.813  1.4448  0.8571  0.2610
 4042TIP3    H212133   4.228   4.476   3.908  1.2461  1.9611  1.6365
 4043TIP3   OH212134   2.486   5.636   3.737  0.3683  0.0915  0.8572
 4043TIP3    H112135   2.462   5.570   3.672  0.5297  0.8160  0.0463
 4043TIP3    H212136   2.563   5.679   3.701 -0.6497  1.7830  0.5931
 4044TIP3   OH212137   0.621   3.005   4.256  0.1042  0.2444  0.1278
 4044TIP3    H112138   0.595   3.041   4.172 -0.8842  1.4808  0.9272
 4044TIP3    H212139   0.670   2.926   4.234  0.7551  1.0861 -1.6187
 4045TIP3   OH212140   0.059   2.425   2.648 -0.2887 -0.6291 -0.0166
 4045TIP3    H112141  -0.011   2.486   2.624  0.1949 -0.4553 -1.0325
 4045TIP3    H212142   0.033   2.392   2.734  0.0277  1.8739  1.1248
 4046TIP3   OH212143   3.634   4.126   2.641  0.5636  0.1109  0.3164
 4046TIP3    H112144   3.555   4.084   2.607  1.2687 -0.6159 -0.4364
 4046TIP3    H212145   3.601   4.189   2.705 -0.7451  0.8944 -1.0626
 4047TIP3   OH212146   5.349   5.661   5.124 -0.3383 -0.1381 -0.6130
 4047TIP3    H112147   5.346   5.699   5.036  0.3213 -1.0050 -1.0312
 4047TIP3    H212148   5.376   5.570   5.109  2.2642  0.3405  0.6711
 4048TIP3   OH212149   1.493   2.949   3.633 -0.3346  0.6962 -0.0825
 4048TIP3    H112150   1.474   2.868   3.586  1.2505 -0.5227  1.2679
 4048TIP3    H212151   1.415   3.004   3.619 -1.7853 -1.3353 -0.4103
 4049TIP3   OH212152   4.705  -0.012   3.377  0.0158 -0.2698 -0.1983
 4049TIP3    H112153   4.623   0.023   3.413 -0.7420 -0.5445 -1.5877
 4049TIP3    H212154   4.747   0.063   3.336  1.1707  0.1763  1.6470
 4050TIP3   OH212155   5.657   5.822   3.693  0.4140 -0.0564  0.3079
 4050TIP3    H112156   5.705   5.826   3.610  1.3002 -1.0653  0.7464
 4050TIP3    H212157   5.566   5.808   3.667  0.4497  1.1148 -0.5239
 4051TIP3   OH212158   0.182   2.212   3.893  0.5341 -0.3985 -0.9457
 4051TIP3    H112159   0.273   2.225   3.865  0.0767 -1.9917 -3.5645
 4051TIP3    H212160   0.131   2.218   3.812 -1.1977 -3.4659 -0.2562
 4052TIP3   OH212161   4.191   5.156   4.185 -0.3169 -0.0758  0.0526
 4052TIP3    H112162   4.185   5.154   4.280 -0.4545 -0.3897  0.0402
 4052TIP3    H212163   4.261   5.094   4.164 -1.1162 -0.9582 -0.1061
 4053TIP3   OH212164   4.349   4.237   3.470  0.0657  0.2440  0.8362
 4053TIP3    H112165   4.393   4.217   3.387 -1.2406 -1.5786  0.4989
 4053TIP3    H212166   4.406   4.300   3.513  2.4414 -1.1659 -0.0310
 4054TIP3   OH212167   6.199   1.466   2.483  0.4232 -0.3003  0.3819
 4054TIP3    H112168   6.269   1.403   2.498  2.1036  0.6618 -2.5795
 4054TIP3    H212169   6.240   1.537   2.434 -2.1606  1.4102  0.4869
 4055TIP3   OH212170   0.799   1.649   5.141 -0.4441 -0.4381  0.0688
 4055TIP3    H112171   0.749   1.568   5.142 -2.4935  0.7616  1.6336
 4055TIP3    H212172   0.843   1.650   5.226 -1.8679  0.8772  0.8320
 4056TIP3   OH212173   1.297   1.969   2.505  0.0761 -0.0785 -0.0621
 4056TIP3    H112174   1.392   1.969   2.500  0.0375  0.7416 -1.4153
 4056TIP3    H212175   1.270   1.904   2.440 -0.2775 -2.5698  2.4205
 4057TIP3   OH212176   1.743   2.344   0.587 -0.4038 -0.6165 -0.3364
 4057TIP3    H112177   1.701   2.314   0.667  0.4910 -0.8594  0.0652
 4057TIP3    H212178   1.689   2.416   0.556  0.3262  0.8479  1.6218
 4058TIP3   OH212179   4.996   2.028   2.668  0.4384 -0.1725 -0.0791
 4058TIP3    H112180   4.935   1.957   2.645  0.6270 -0.8864  1.5007
 4058TIP3    H212181   4.993   2.087   2.593 -1.7535 -0.4772 -0.2912
 4059TIP3   OH212182   3.040   2.173   3.862  0.0563 -0.5887 -0.3259
 4059TIP3    H112183   3.075   2.196   3.776  1.0293 -1.8296 -0.2897
 4059TIP3    H212184   3.018   2.257   3.903 -0.6968  0.0096 -1.8747
 4060TIP3   OH212185   6.011   2.246   3.414  0.1574  0.1667 -0.1614
 4060TIP3    H112186   6.006   2.252   3.510 -0.4671  0.6248 -0.2178
 4060TIP3    H212187   5.929   2.205   3.388  0.0298  0.6569 -0.5474
 4061TIP3   OH212188   0.069   4.711   4.044 -0.1954  0.1573 -0.1711
 4061TIP3    H112189   0.098   4.675   3.960  0.0801 -0.7170  0.2880
 4061TIP3    H212190   0.036   4.635   4.093  0.2638  0.5489  0.7671
 4062TIP3   OH212191   1.333   5.502   2.953  0.4882 -0.0069 -0.3028
 4062TIP3    H112192   1.405   5.439   2.959  0.8501  0.3715 -0.6472
 4062TIP3    H212193   1.260   5.458   2.997  0.6154 -0.8459 -0.8887
 4063TIP3   OH212194   1.859   5.926   4.628 -0.2888  0.6866 -0.2006
 4063TIP3    H112195   1.846   5.858   4.562 -1.3353 -0.9904  1.6231
 4063TIP3    H212196   1.772   5.944   4.662  0.2581  1.2653  0.9486
 4064TIP3   OH212197   1.879   3.016   3.904 -0.4570 -0.8085 -0.3388
 4064TIP3    H112198   1.820   3.006   3.829 -2.8939 -0.5291  1.4100
 4064TIP3    H212199   1.855   3.100   3.943  0.4116 -1.1470  1.0154
 4065TIP3   OH212200   4.447   4.728   3.193 -0.7662  0.3311  0.2197
 4065TIP3    H112201   4.428   4.687   3.108  0.3488  1.3026 -0.5490
 4065TIP3    H212202   4.500   4.663   3.239  0.9649  0.8070 -0.9745
 4066TIP3   OH212203   0.356   1.750   0.910  0.0727  0.0060 -0.8723
 4066TIP3    H112204   0.298   1.826   0.905  0.5617  0.4577  0.0597
 4066TIP3    H212205   0.353   1.723   1.002  1.6670  0.3219 -0.6953
 4067TIP3   OH212206   3.502   5.238   2.970  0.2354  0.2387 -0.2718
 4067TIP3    H112207   3.548   5.189   2.902 -0.5068 -0.9080  0.0267
 4067TIP3    H212208   3.571   5.288   3.014  1.0531 -0.6584 -0.4918
 4068TIP3   OH212209   2.645   3.616   1.621 -0.0179 -0.5297 -0.1297
 4068TIP3    H112210   2.622   3.703   1.591 -2.3791 -1.5993 -1.7745
 4068TIP3    H212211   2.728   3.596   1.577 -0.8025 -0.0722 -1.9014
 4069TIP3   OH212212   1.973   2.830   4.470 -0.6503 -0.3713 -0.3763
 4069TIP3    H112213   1.883   2.857   4.450 -1.1267  0.1651  2.0608
 4069TIP3    H212214   2.028   2.882   4.411 -1.8290  1.7745  0.3116
 4070TIP3   OH212215   4.788   0.849   1.369 -0.1471 -0.0013 -0.1011
 4070TIP3    H112216   4.736   0.842   1.288 -1.0232  1.1726  0.3438
 4070TIP3    H212217   4.876   0.869   1.338 -0.5816  0.9645 -0.7654
 4071TIP3   OH212218   4.818   5.504   0.290  0.1121  0.0228 -0.1541
 4071TIP3    H112219   4.732   5.471   0.316  0.0138  1.6343  1.7780
 4071TIP3    H212220   4.799   5.590   0.251  0.8953  1.0113  1.5360
 4072TIP3   OH212221   3.508   4.816   0.894 -0.6306 -0.2110 -0.1337
 4072TIP3    H112222   3.434   4.761   0.870 -1.0771 -0.2871  1.3365
 4072TIP3    H212223   3.578   4.754   0.916 -0.9116 -0.2146  0.8253
 4073TIP3   OH212224   1.944   1.685   3.436  0.1831  1.1251 -0.0615
 4073TIP3    H112225   1.938   1.605   3.488 -0.0389  1.3562  0.2650
 4073TIP3    H212226   1.920   1.756   3.496  0.3575  1.4376 -0.3533
 4074TIP3   OH212227   0.082   2.233   3.103 -0.3424  0.0973  0.4430
 4074TIP3    H112228   0.095   2.328   3.096 -0.0758  0.0707  0.5608
 4074TIP3    H212229   0.093   2.214   3.196  0.7754 -0.2143  0.2580
 4075TIP3   OH212230   2.308   0.976   2.775  0.3867 -0.2742  0.3141
 4075TIP3    H112231   2.218   0.972   2.805  0.9204  1.9893  2.5650
 4075TIP3    H212232   2.360   0.968   2.855  2.1924 -1.1903 -0.8856
 4076TIP3   OH212233   3.317   0.931   4.341  0.2949 -0.1571 -0.1584
 4076TIP3    H112234   3.389   0.990   4.361  0.1041 -0.2848  0.9302
 4076TIP3    H212235   3.316   0.927   4.245 -0.8189  3.0512 -0.3949
 4077TIP3   OH212236   1.203   2.491   3.427  0.3903  0.4539  0.2915
 4077TIP3    H112237   1.282   2.464   3.379 -0.3480  0.3728 -0.9196
 4077TIP3    H212238   1.175   2.572   3.384  0.1427  0.8125  1.1035
 4078TIP3   OH212239   3.174   3.413   2.482 -0.7686 -0.1565 -0.1962
 4078TIP3    H112240   3.202   3.504   2.487 -1.0717 -0.0271 -0.7457
 4078TIP3    H212241   3.255   3.363   2.477 -0.6058  0.0977 -0.1187
 4079TIP3   OH212242   6.306   0.517   1.475 -0.1054  0.2788  0.1329
 4079TIP3    H112243   6.396   0.519   1.507 -0.2907  0.4193  0.6413
 4079TIP3    H212244   6.281   0.609   1.467 -0.0008  0.2502 -0.5862
 4080TIP3   OH212245   6.279   3.221   3.844  0.1481  0.0703  0.7041
 4080TIP3    H112246   6.202   3.213   3.901  0.2326 -1.7493  0.5902
 4080TIP3    H212247   6.293   3.134   3.809  1.6717  0.5969 -0.0890
 4081TIP3   OH212248   0.353   4.018   2.928  0.6270  0.6599  0.2138
 4081TIP3    H112249   0.262   4.040   2.947  0.4391  0.8442 -0.8517
 4081TIP3    H212250   0.353   3.988   2.837  1.7454  1.3076 -0.0227
 4082TIP3   OH212251   5.445   4.694   3.578  0.3523  0.0918 -0.1572
 4082TIP3    H112252   5.373   4.753   3.557  1.5445  1.7989  0.3776
 4082TIP3    H212253   5.513   4.750   3.616  2.1482 -1.3868 -1.0065
 4083TIP3   OH212254   2.876   3.057   4.580 -0.4868 -0.1900 -0.6860
 4083TIP3    H112255   2.903   2.968   4.558 -0.4666 -0.0234 -1.3456
 4083TIP3    H212256   2.919   3.113   4.516 -0.9807  0.2423 -0.6564
 4084TIP3   OH212257   5.288   4.337   0.908 -0.5151  0.0527 -0.4654
 4084TIP3    H112258   5.286   4.326   0.813  0.8238 -2.5086 -0.2763
 4084TIP3    H212259   5.380   4.325   0.932 -0.9210  0.0590  1.1926
 4085TIP3   OH212260   3.152   5.400   2.201 -0.1390  0.0363  0.1745
 4085TIP3    H112261   3.237   5.415   2.159  0.5538  2.5220  2.1561
 4085TIP3    H212262   3.174   5.365   2.287 -1.3345 -1.8310 -0.2278
 4086TIP3   OH212263   4.195   1.466   4.100 -0.0551  0.1740  0.2961
 4086TIP3    H112264   4.290   1.463   4.114 -0.3864 -1.3335  2.6809
 4086TIP3    H212265   4.176   1.387   4.050  0.1043  1.4666 -1.9546
 4087TIP3   OH212266   5.309   5.000   3.445 -0.4699  0.1067  0.2781
 4087TIP3    H112267   5.389   5.049   3.463  0.2678  0.0806 -2.5669
 4087TIP3    H212268   5.244   5.037   3.505  1.4167  0.7341  2.0383
 4088TIP3   OH212269   1.542   3.995   0.483  0.1484 -0.4834 -0.1229
 4088TIP3    H112270   1.523   4.043   0.564 -1.2989 -1.7438  0.3236
 4088TIP3    H212271   1.544   4.062   0.415  1.1321  0.5676  0.9039
 4089TIP3   OH212272   1.375   2.612   2.966  0.0119  0.1817  0.0956
 4089TIP3    H112273   1.306   2.566   2.918 -1.1048  0.9720  0.8720
 4089TIP3    H212274   1.443   2.628   2.901 -1.1697  0.6299 -1.0785
 4090TIP3   OH212275   3.078   2.669   4.293 -0.1255  0.0374 -0.1567
 4090TIP3    H112276   3.122   2.586   4.312 -0.3946 -0.7731 -2.6707
 4090TIP3    H212277   3.026   2.650   4.214  1.1335  3.0195 -1.8700
 4091TIP3   OH212278   5.784   0.891   2.912 -0.4732 -0.0637  0.8017
 4091TIP3    H112279   5.863   0.911   2.862 -2.6313  0.8767 -2.6216
 4091TIP3    H212280   5.754   0.807   2.876 -1.9425  0.4749  0.6965
 4092TIP3   OH212281   4.708   0.274   2.429  0.0851 -0.0198 -0.7108
 4092TIP3    H112282   4.772   0.343   2.448 -0.5916  1.3082 -2.9172
 4092TIP3    H212283   4.693   0.280   2.335 -1.1378 -2.2217 -0.7226
 4093TIP3   OH212284   5.629   2.181   3.555  0.0690  0.1706 -0.3576
 4093TIP3    H112285   5.641   2.233   3.635 -0.4616  0.5960 -0.5521
 4093TIP3    H212286   5.702   2.207   3.499 -0.7206  1.4502 -0.8387
 4094TIP3   OH212287   3.454   4.797   2.107 -0.0836 -0.9597 -0.0437
 4094TIP3    H112288   3.515   4.735   2.067  0.5137 -1.9810  2.2691
 4094TIP3    H212289   3.457   4.776   2.201 -2.8750 -0.0385  0.3348
 4095TIP3   OH212290   2.105   5.590   1.556 -0.1982 -0.1553 -0.5329
 4095TIP3    H112291   2.191   5.615   1.590 -0.2043  0.9127 -1.2383
 4095TIP3    H212292   2.044   5.644   1.605 -0.4552 -0.7350 -0.2051
 4096TIP3   OH212293   0.868   0.494   4.972 -0.5499  0.8297  0.5052
 4096TIP3    H112294   0.897   0.419   5.023 -2.4429 -0.0023  0.4335
 4096TIP3    H212295   0.807   0.458   4.908  1.0065  1.9686 -1.7807
 4097TIP3   OH212296   5.202   2.564   0.971  0.5740  0.4118  0.1482
 4097TIP3    H112297   5.271   2.519   1.020  1.1126  0.2801 -0.6974
 4097TIP3    H212298   5.250   2.611   0.902 -0.1476  0.7269 -0.1454
 4098TIP3   OH212299   3.826   3.305   3.886  0.0407  0.5231 -0.3591
 4098TIP3    H112300   3.775   3.226   3.866 -0.3936  0.7280 -0.0912
 4098TIP3    H212301   3.765   3.361   3.934  0.4098  0.9358 -0.3631
 4099TIP3   OH212302   5.859   1.657   2.684  0.2956  0.2284 -0.0371
 4099TIP3    H112303   5.902   1.733   2.645 -1.5590  1.4415  0.1661
 4099TIP3    H212304   5.930   1.611   2.730  1.7700  0.9027 -1.5070
 4100TIP3   OH212305   5.191   1.095   3.194  0.2922 -0.3773 -0.1854
 4100TIP3    H112306   5.164   1.183   3.167  2.2356 -0.0235 -1.1983
 4100TIP3    H212307   5.126   1.037   3.155 -0.9076  0.5726  0.3181
 4101TIP3   OH212308   1.940   2.915   0.233  0.2809  0.2581 -0.2350
 4101TIP3    H112309   1.998   2.898   0.307 -0.6464  0.1013  0.4690
 4101TIP3    H212310   1.992   2.892   0.156  0.7183 -1.1196  0.4443
 4102TIP3   OH212311   5.577   5.259   0.971 -0.0067  0.5463  0.3687
 4102TIP3    H112312   5.630   5.185   0.941 -1.2981 -0.2338 -0.0756
 4102TIP3    H212313   5.588   5.259   1.066  0.9622  0.5510  0.2696
 4103TIP3   OH212314   3.591   0.541   0.818 -0.2298  0.0962 -0.3111
 4103TIP3    H112315   3.632   0.546   0.905  1.8279 -0.0738 -1.2155
 4103TIP3    H212316   3.548   0.456   0.817 -0.7864  0.3448  0.7345
 4104TIP3   OH212317   0.964   3.085   0.531 -0.2100  0.4383 -0.8027
 4104TIP3    H112318   1.012   3.010   0.497 -1.8370 -0.9844 -0.1077
 4104TIP3    H212319   0.906   3.111   0.459 -1.5014 -0.6734 -0.2181
 4105TIP3   OH212320   2.789   3.436   5.059 -0.4402 -0.0532 -0.0624
 4105TIP3    H112321   2.857   3.491   5.099  1.2333 -0.2695 -2.3966
 4105TIP3    H212322   2.733   3.498   5.012 -0.4171 -0.0599 -0.0993
 4106TIP3   OH212323   4.564   5.950   0.265 -0.2222  0.4099  0.7385
 4106TIP3    H112324   4.491   6.008   0.286  0.6735  1.3365  1.3254
 4106TIP3    H212325   4.601   5.986   0.184 -0.4177 -0.0772  0.4245
 4107TIP3   OH212326   1.703   4.521   1.599  0.4300 -0.0736  0.1365
 4107TIP3    H112327   1.687   4.464   1.673 -0.7142  1.2372  0.9485
 4107TIP3    H212328   1.707   4.609   1.637 -1.8178  0.8298 -1.4892
 4108TIP3   OH212329   3.576   5.484   1.346 -0.1673  0.3065 -0.1364
 4108TIP3    H112330   3.573   5.419   1.276 -0.8520  0.7543 -0.5313
 4108TIP3    H212331   3.656   5.533   1.330  1.1320 -1.3122  0.9810
 4109TIP3   OH212332   5.093   1.101   2.540 -0.1957  0.2018  0.8434
 4109TIP3    H112333   5.041   1.061   2.609 -0.4460  0.6476  0.9172
 4109TIP3    H212334   5.028   1.132   2.476 -0.0148  0.6225  0.8610
 4110TIP3   OH212335   2.154   1.721   0.570  0.3074  0.8625  0.5089
 4110TIP3    H112336   2.125   1.808   0.539  1.8372 -0.0915 -4.5089
 4110TIP3    H212337   2.233   1.739   0.620 -0.4794  2.4369  1.2830
 4111TIP3   OH212338   3.111   0.781   4.427 -0.3393  0.1989 -0.0476
 4111TIP3    H112339   3.186   0.839   4.414 -1.0026  0.7795 -1.5178
 4111TIP3    H212340   3.136   0.699   4.385 -0.1538  0.0632  0.3251
 4112TIP3   OH212341   3.707   1.009   4.546 -0.0217  0.7269 -0.4514
 4112TIP3    H112342   3.701   1.104   4.551  2.4543  0.9855 -1.1757
 4112TIP3    H212343   3.741   0.991   4.459 -1.9593 -0.9870 -0.9449
 4113TIP3   OH212344   5.172   4.333   4.186  0.3016 -0.1142 -0.7168
 4113TIP3    H112345   5.227   4.358   4.260 -0.8036  2.2018 -0.5813
 4113TIP3    H212346   5.136   4.248   4.210  1.8321 -0.4942  0.3092
 4114TIP3   OH212347   6.247   4.285   3.858 -0.3960 -0.1392  0.4212
 4114TIP3    H112348   6.178   4.324   3.803 -0.4018 -0.2602  0.3421
 4114TIP3    H212349   6.199   4.237   3.925 -0.4086 -1.2049 -0.3170
 4115TIP3   OH212350   0.612   3.384   1.914 -0.6479  0.0289  0.0655
 4115TIP3    H112351   0.575   3.427   1.990 -1.9333 -0.5079 -0.2270
 4115TIP3    H212352   0.573   3.429   1.839  0.1040  0.1380 -0.2641
 4116TIP3   OH212353   3.327   3.789   2.110  0.9958  0.0869  0.5278
 4116TIP3    H112354   3.395   3.728   2.081 -0.0075 -0.9153  0.2151
 4116TIP3    H212355   3.254   3.773   2.051  0.4016  0.9878  0.9990
 4117TIP3   OH212356   6.117   0.840   2.458  0.0701  0.4657 -0.4309
 4117TIP3    H112357   6.040   0.792   2.428  0.2815  1.1641 -2.1870
 4117TIP3    H212358   6.190   0.802   2.409  0.7677  0.2828  0.6983
 4118TIP3   OH212359   2.662   4.902   5.014 -0.0197  0.1419 -0.3590
 4118TIP3    H112360   2.608   4.972   5.049 -0.8665 -0.8666  0.4139
 4118TIP3    H212361   2.670   4.839   5.086 -0.8503 -1.4352 -1.5890
 4119TIP3   OH212362   4.681   1.682   3.748  0.1448 -0.3389  0.1763
 4119TIP3    H112363   4.661   1.742   3.676  0.7716 -0.1982  0.1171
 4119TIP3    H212364   4.718   1.604   3.706  0.1316 -0.4202  0.3149
 4120TIP3   OH212365   4.237   0.841   4.892 -0.6763 -0.3217  0.1090
 4120TIP3    H112366   4.194   0.799   4.967 -1.1638 -0.7776 -0.4167
 4120TIP3    H212367   4.168   0.846   4.825 -0.3410  0.3873 -0.1931
 4121TIP3   OH212368   0.598   4.341   3.283  0.3991  0.5523  0.3336
 4121TIP3    H112369   0.633   4.269   3.230  0.4391  0.1061  0.9589
 4121TIP3    H212370   0.509   4.354   3.250 -0.1358 -0.7660  1.1649
 4122TIP3   OH212371   2.413   3.679   4.345 -0.8767 -0.2116 -0.2454
 4122TIP3    H112372   2.366   3.674   4.262  0.2579 -3.4334 -0.8759
 4122TIP3    H212373   2.483   3.613   4.336  0.4884  0.6985  2.5476
 4123TIP3   OH212374   0.203   2.841   4.105 -0.3082 -0.1775 -0.9611
 4123TIP3    H112375   0.267   2.832   4.034  1.9594 -0.3785  0.9980
 4123TIP3    H212376   0.255   2.837   4.185 -2.7511  0.1853  0.7491
 4124TIP3   OH212377   2.271   4.875   4.168  0.1392 -0.3629 -0.1958
 4124TIP3    H112378   2.306   4.879   4.079  0.7063 -1.8584 -0.0660
 4124TIP3    H212379   2.332   4.929   4.219 -1.2766  2.1382 -0.9785
 4125TIP3   OH212380   1.932   2.924   1.356 -0.0726  0.6313  0.5563
 4125TIP3    H112381   1.963   2.896   1.271 -0.5081  1.4759  0.1011
 4125TIP3    H212382   1.938   2.846   1.411  0.0812  0.0412 -0.2789
 4126TIP3   OH212383   5.013   4.857   0.062 -0.2235 -0.2821  0.2122
 4126TIP3    H112384   5.046   4.943   0.037 -0.3853 -0.7302 -1.7248
 4126TIP3    H212385   5.043   4.845   0.152  3.2560  0.1526 -0.7369
 4127TIP3   OH212386   5.483   0.829   4.589  0.5485 -0.2125 -0.1933
 4127TIP3    H112387   5.425   0.837   4.514 -1.8889 -2.4379  1.2574
 4127TIP3    H212388   5.442   0.882   4.657  1.0967 -0.5359  0.4013
 4128TIP3   OH212389   6.145   1.193   3.992 -0.7667  0.4594 -0.2693
 4128TIP3    H112390   6.097   1.111   4.000  0.9747 -0.7968 -1.8800
 4128TIP3    H212391   6.234   1.173   4.022 -0.7495  2.2822  1.0907
 4129TIP3   OH212392   2.790   5.105   1.793  0.5240 -0.9240 -0.4688
 4129TIP3    H112393   2.829   5.018   1.796  0.5661 -0.9105 -0.6123
 4129TIP3    H212394   2.721   5.103   1.860 -1.5057 -2.0392 -2.4626
 4130TIP3   OH212395   0.114   0.060   4.097  0.2520 -0.3307 -0.6706
 4130TIP3    H112396   0.132  -0.018   4.045  0.0932 -0.8923  0.1028
 4130TIP3    H212397   0.142   0.037   4.186  0.7379  0.6966 -0.5499
 4131TIP3   OH212398   6.089   4.922   4.881  0.0382 -0.0802  0.5391
 4131TIP3    H112399   6.027   4.868   4.929 -0.9891  0.8766  0.3118
 4131TIP3    H212400   6.172   4.873   4.887 -0.6791 -1.3019  0.9612
 4132TIP3   OH212401   5.823   4.779   0.038 -0.0906  0.3976  0.1525
 4132TIP3    H112402   5.816   4.709  -0.027 -1.4063  0.6979 -0.0610
 4132TIP3    H212403   5.826   4.734   0.122 -0.5458  0.0613 -0.0066
 4133TIP3   OH212404   3.968   4.094   2.329 -0.1983  0.0521  0.1009
 4133TIP3    H112405   3.915   4.079   2.251 -0.5494 -0.0792  0.3636
 4133TIP3    H212406   4.005   4.181   2.317 -0.9538  0.3962  0.1929
 4134TIP3   OH212407   1.537   2.618   2.442 -0.4222  0.2773  0.0599
 4134TIP3    H112408   1.494   2.542   2.403 -0.2089  1.0044 -1.6911
 4134TIP3    H212409   1.630   2.593   2.446 -0.5283 -0.0283  0.6964
 4135TIP3   OH212410   4.561   3.347   0.676  0.1966  0.5345 -0.3214
 4135TIP3    H112411   4.583   3.259   0.708  0.7438 -0.1299 -2.3388
 4135TIP3    H212412   4.614   3.406   0.729  0.5661 -0.4315  0.4118
 4136TIP3   OH212413   0.776   2.034   1.256  0.1609  0.1084  0.5603
 4136TIP3    H112414   0.864   2.001   1.238 -0.4078 -1.1042 -0.1053
 4136TIP3    H212415   0.746   2.069   1.171 -0.4000 -0.4575  0.5215
 4137TIP3   OH212416   0.278   3.841   4.075  0.2407 -0.1953  0.0931
 4137TIP3    H112417   0.314   3.754   4.091  1.0510  0.1907  0.4241
 4137TIP3    H212418   0.319   3.897   4.141  0.3711  0.5949 -0.6352
 4138TIP3   OH212419   3.576   4.305   2.851 -0.1431  0.5671 -0.3426
 4138TIP3    H112420   3.540   4.262   2.928  0.5904 -1.6033 -1.1380
 4138TIP3    H212421   3.512   4.373   2.829  0.1541  2.0046  2.7479
 4139TIP3   OH212422   2.552   0.244   0.910 -0.4868  0.3508  0.2704
 4139TIP3    H112423   2.512   0.202   0.986  0.0229 -2.2434 -0.7683
 4139TIP3    H212424   2.646   0.229   0.920 -0.3455  0.7014 -0.4352
 4140TIP3   OH212425   4.865   2.543   3.410 -0.2064  0.1481  0.6009
 4140TIP3    H112426   4.857   2.638   3.416  1.0876  0.2894  0.3679
 4140TIP3    H212427   4.852   2.522   3.318 -0.5511  0.0847  0.6614
 4141TIP3   OH212428   5.340   1.578   5.119  0.5820  0.2063 -0.5691
 4141TIP3    H112429   5.390   1.507   5.159  0.7490  1.2382  1.1820
 4141TIP3    H212430   5.256   1.539   5.096 -0.0328 -0.2202  2.0413
 4142TIP3   OH212431   4.332   4.864   1.106  0.5813  0.0986  0.2909
 4142TIP3    H112432   4.304   4.787   1.156  0.9208 -1.0689 -1.2690
 4142TIP3    H212433   4.412   4.893   1.151 -0.6978  0.8813  2.1824
 4143TIP3   OH212434   5.703   4.919   1.492  0.8323  0.1537  0.4343
 4143TIP3    H112435   5.610   4.921   1.468  0.7727  1.9711  0.6216
 4143TIP3    H212436   5.741   4.850   1.438 -0.3433  0.4324 -0.7948
 4144TIP3   OH212437   6.234   5.452   0.858  0.0073  0.4298 -0.1121
 4144TIP3    H112438   6.296   5.426   0.790  0.3368 -0.1977  0.4139
 4144TIP3    H212439   6.249   5.390   0.929  0.8065  2.0436  1.1908
 4145TIP3   OH212440   2.908   0.416   1.081  0.4583  0.9103 -0.4885
 4145TIP3    H112441   2.911   0.504   1.042  0.7794  1.3312  0.4441
 4145TIP3    H212442   2.922   0.357   1.007  0.5922  1.6581 -1.0847
 4146TIP3   OH212443   4.186   1.292   4.605 -0.1796  0.0194  0.4713
 4146TIP3    H112444   4.197   1.387   4.604 -1.5232  0.1939 -0.1971
 4146TIP3    H212445   4.092   1.279   4.593  0.2392 -1.4222 -1.9384
 4147TIP3   OH212446   4.208   1.108   2.689 -0.2249 -0.0400  0.3817
 4147TIP3    H112447   4.271   1.092   2.619  0.2720  0.8530  0.6063
 4147TIP3    H212448   4.124   1.085   2.651  0.3827 -3.6806  0.8226
 4148TIP3   OH212449   3.183   1.273   1.247 -0.2491 -0.0742 -0.0972
 4148TIP3    H112450   3.253   1.230   1.198 -0.5115 -0.5360 -0.0749
 4148TIP3    H212451   3.178   1.224   1.329 -0.4570  0.0869 -0.0118
 4149TIP3   OH212452   2.581   5.414   5.056  0.3091  0.0547 -0.3630
 4149TIP3    H112453   2.624   5.474   5.117 -1.3318  0.2939  0.6292
 4149TIP3    H212454   2.499   5.458   5.032 -0.6816 -1.5141 -0.0306
 4150TIP3   OH212455  -0.003   4.852   3.664 -0.5693 -0.2742 -0.1731
 4150TIP3    H112456   0.079   4.901   3.671 -0.0525 -1.1912  0.4393
 4150TIP3    H212457  -0.071   4.916   3.688  0.2465 -0.3427  2.7292
 4151TIP3   OH212458   1.991   5.784   2.640  0.3664  0.1105  0.7239
 4151TIP3    H112459   1.924   5.748   2.582 -1.4306  3.1140  0.6893
 4151TIP3    H212460   2.072   5.775   2.591 -0.6417 -0.1173 -0.9959
 4152TIP3   OH212461   6.218   2.215   1.665 -0.2825 -0.8652 -0.4321
 4152TIP3    H112462   6.248   2.295   1.623  1.6176 -1.2223  0.1655
 4152TIP3    H212463   6.297   2.163   1.679 -1.1211 -1.7442  1.5225
 4153TIP3   OH212464   4.618   1.162   2.830  0.1259  0.1505 -0.3008
 4153TIP3    H112465   4.562   1.126   2.899  0.5371 -0.6049 -0.3519
 4153TIP3    H212466   4.629   1.090   2.768 -2.5861  1.5814 -2.7006
 4154TIP3   OH212467   5.991   3.612   1.593 -0.1388  0.8243  0.0771
 4154TIP3    H112468   5.925   3.601   1.661  0.5753 -1.2499  0.5099
 4154TIP3    H212469   6.073   3.624   1.640  0.5673 -1.8749 -0.2797
 4155TIP3   OH212470   3.792   2.003   2.276  0.5273 -0.3481 -0.0131
 4155TIP3    H112471   3.831   2.052   2.348 -0.2743 -0.8951  0.8104
 4155TIP3    H212472   3.736   2.066   2.232  0.9175 -0.0468 -0.0828
 4156TIP3   OH212473   4.303   3.401   0.644  0.1285 -0.1254 -0.0935
 4156TIP3    H112474   4.397   3.389   0.635  0.3892  0.7707  1.1546
 4156TIP3    H212475   4.269   3.314   0.666  0.7011 -0.3879 -0.2457
 4157TIP3   OH212476   2.584   0.732   1.101  0.2333 -0.1880  0.6236
 4157TIP3    H112477   2.622   0.644   1.101  1.6098  0.3380  2.3923
 4157TIP3    H212478   2.564   0.749   1.193 -0.4233  1.1827  0.2429
 4158TIP3   OH212479   1.960   4.661   3.900 -0.2214 -0.4103  0.1358
 4158TIP3    H112480   1.910   4.686   3.978  0.4229 -1.2870  0.8530
 4158TIP3    H212481   1.894   4.648   3.832 -0.6970  1.7267  0.1182
 4159TIP3   OH212482   4.420   2.126   2.970 -0.1463 -0.0474  0.1389
 4159TIP3    H112483   4.452   2.117   2.880 -1.1334  0.1202 -0.2362
 4159TIP3    H212484   4.352   2.059   2.979 -4.4490  3.6274 -1.2595
 4160TIP3   OH212485   4.171   5.343   3.624  0.1596  0.3057 -0.5378
 4160TIP3    H112486   4.136   5.304   3.704  1.0293  1.6408  0.5318
 4160TIP3    H212487   4.116   5.308   3.554 -1.6246  0.3305  0.7952
 4161TIP3   OH212488   5.183   0.658   4.012  0.2774 -0.0086 -0.0340
 4161TIP3    H112489   5.161   0.589   4.074  3.2643 -0.8842  0.2013
 4161TIP3    H212490   5.188   0.614   3.927  0.9389  0.1590 -0.0890
 4162TIP3   OH212491   5.265   3.188   3.563  0.2030  0.1763  0.1525
 4162TIP3    H112492   5.286   3.111   3.616  0.5111  1.5299  2.0755
 4162TIP3    H212493   5.203   3.155   3.498 -1.1972 -1.3191  2.1136
 4163TIP3   OH212494   5.604   2.030   0.430 -0.1546  0.4973  0.4477
 4163TIP3    H112495   5.582   2.116   0.393  2.3081  0.4581 -1.3399
 4163TIP3    H212496   5.628   1.977   0.354  0.9557 -0.9482  1.7660
 4164TIP3   OH212497   2.261   0.844   3.530  0.2405  0.2446  0.0474
 4164TIP3    H112498   2.227   0.884   3.609 -1.1424 -1.5490  0.4084
 4164TIP3    H212499   2.201   0.872   3.461  0.6389  0.6662 -0.1375
 4165TIP3   OH212500   5.159   2.395   4.653 -0.2435  0.0350  0.1725
 4165TIP3    H112501   5.211   2.331   4.606 -0.8435 -0.3076 -0.0426
 4165TIP3    H212502   5.186   2.479   4.618 -1.0360 -0.2430 -1.1598
 4166TIP3   OH212503   5.347   2.377   2.189  0.4016 -0.3381  0.0236
 4166TIP3    H112504   5.320   2.298   2.142  1.2498 -0.8133  0.3210
 4166TIP3    H212505   5.300   2.448   2.145  2.7296 -0.4549 -2.9703
 4167TIP3   OH212506   3.202   2.897   2.470  0.0567  0.3022  0.5138
 4167TIP3    H112507   3.181   2.989   2.484  3.3859  1.1023  1.0575
 4167TIP3    H212508   3.251   2.896   2.388  2.3120 -0.5237  1.8003
 4168TIP3   OH212509   5.193   1.224   0.731  0.2122  0.0448 -0.1871
 4168TIP3    H112510   5.178   1.303   0.784 -0.4285  0.4241 -0.9072
 4168TIP3    H212511   5.251   1.253   0.661 -0.5757  0.0681 -0.8519
 4169TIP3   OH212512   3.485   4.970   4.943  0.1547 -0.0763  0.1139
 4169TIP3    H112513   3.508   5.037   5.008 -0.5352  0.6704 -0.4005
 4169TIP3    H212514   3.495   4.888   4.990  0.7942  0.3953  0.8285
 4170TIP3   OH212515   4.266   3.289   4.492 -0.1543 -0.5517  0.0096
 4170TIP3    H112516   4.187   3.269   4.542  0.9856 -0.7585  1.8306
 4170TIP3    H212517   4.284   3.209   4.443 -0.8395 -0.6480 -0.0946
 4171TIP3   OH212518   4.884   1.497   0.562  0.0417 -0.3865  0.6698
 4171TIP3    H112519   4.831   1.550   0.502 -0.0608 -0.0278  1.0756
 4171TIP3    H212520   4.851   1.408   0.550  1.7070 -0.7702 -1.6730
 4172TIP3   OH212521   1.126   5.910   2.418 -0.2538 -0.3389 -0.6839
 4172TIP3    H112522   1.172   5.986   2.453  2.7267 -1.5137 -1.6746
 4172TIP3    H212523   1.103   5.935   2.328  0.4561 -0.4656 -0.9092
 4173TIP3   OH212524   4.160   3.691   3.864  0.0094  0.0635  0.0354
 4173TIP3    H112525   4.084   3.708   3.808 -0.2301 -0.5329  0.1687
 4173TIP3    H212526   4.157   3.597   3.881 -0.2625  0.3231  1.5445
 4174TIP3   OH212527   2.616   1.531   4.303 -0.6228  0.7103  0.4234
 4174TIP3    H112528   2.650   1.547   4.214  0.9483 -0.2406  0.8180
 4174TIP3    H212529   2.570   1.448   4.296  0.6581 -0.0546  0.7605
 4175TIP3   OH212530   2.024   0.543   0.358 -0.7704  0.5365  0.1951
 4175TIP3    H112531   2.069   0.476   0.307 -0.4124  0.0506  1.1309
 4175TIP3    H212532   2.048   0.625   0.316  1.0041  0.2925  0.6707
 4176TIP3   OH212533   2.158   3.064   4.861  0.0369 -0.2943  0.0934
 4176TIP3    H112534   2.218   3.139   4.858  0.3893 -0.5712 -3.3182
 4176TIP3    H212535   2.083   3.095   4.912  0.6959  1.9617 -0.2040
 4177TIP3   OH212536   6.321   2.779   4.930 -0.2877  0.5055 -0.0421
 4177TIP3    H112537   6.255   2.848   4.938  0.7352  1.3581  1.8179
 4177TIP3    H212538   6.277   2.700   4.962 -0.5973  0.9360  0.6216
 4178TIP3   OH212539   2.229   2.606   4.472  0.2230 -0.0446  0.3089
 4178TIP3    H112540   2.168   2.540   4.505 -1.3581  1.7716  1.2141
 4178TIP3    H212541   2.182   2.689   4.483  0.0593  0.9858 -5.1810
 4179TIP3   OH212542   1.419   1.681   2.242  0.1227  0.0292 -0.1418
 4179TIP3    H112543   1.464   1.622   2.303  0.5377 -0.2093 -0.6675
 4179TIP3    H212544   1.457   1.660   2.156 -0.7877  0.0196 -0.5586
 4180TIP3   OH212545   5.810   1.986   1.617 -0.0100 -0.4318  0.1190
 4180TIP3    H112546   5.793   1.897   1.648 -0.2527  0.0250  1.3599
 4180TIP3    H212547   5.849   2.031   1.692 -0.9308  0.8194 -0.1123
 4181TIP3   OH212548   3.704   3.958   0.662  0.3523  0.1330  0.3712
 4181TIP3    H112549   3.777   3.955   0.600  1.5556  0.9650  1.6742
 4181TIP3    H212550   3.702   3.870   0.699  2.5355  0.7657  2.2558
 4182TIP3   OH212551   2.362   5.504   2.825  0.2004  0.0126  0.3522
 4182TIP3    H112552   2.376   5.433   2.889 -1.9565  0.6359  1.6110
 4182TIP3    H212553   2.342   5.581   2.879 -1.4989  0.6134 -1.0437
 4183TIP3   OH212554   0.133   5.060   2.516  0.2768  0.2172 -0.3237
 4183TIP3    H112555   0.149   4.967   2.534  2.0358  0.8650  1.9954
 4183TIP3    H212556   0.039   5.065   2.500 -0.6100 -1.5343  3.1220
 4184TIP3   OH212557   4.296   5.266   1.788  0.0198  0.0984  0.0449
 4184TIP3    H112558   4.333   5.204   1.724 -1.4134 -0.6991 -0.0371
 4184TIP3    H212559   4.308   5.351   1.747 -2.5626 -0.5154 -2.2644
 4185TIP3   OH212560   0.724   5.702   2.291 -0.1210  0.2113  0.0697
 4185TIP3    H112561   0.772   5.706   2.208 -0.3687 -2.0078 -0.2419
 4185TIP3    H212562   0.632   5.695   2.265 -0.1586 -1.0448  0.4779
 4186TIP3   OH212563   0.562   3.973   0.119  0.3458 -0.4636  0.1563
 4186TIP3    H112564   0.550   4.015   0.034 -2.0119 -2.3942 -0.5580
 4186TIP3    H212565   0.533   4.038   0.183  1.0128  0.5703 -0.5686
 4187TIP3   OH212566   2.833   2.140   4.797  0.4299  0.1386  0.4261
 4187TIP3    H112567   2.843   2.200   4.870  0.6837  1.1522 -0.4177
 4187TIP3    H212568   2.762   2.177   4.744 -1.2267 -1.7182  1.2222
 4188TIP3   OH212569   0.949   1.364   0.828  0.3095  0.2603  0.1748
 4188TIP3    H112570   0.904   1.432   0.778 -1.7269 -0.8158  0.4333
 4188TIP3    H212571   0.915   1.282   0.794  0.2133 -0.5604  2.0772
 4189TIP3   OH212572   2.885   5.369   4.903  0.7279 -0.2854  0.1115
 4189TIP3    H112573   2.928   5.422   4.971 -0.6002  2.3069 -0.9150
 4189TIP3    H212574   2.804   5.340   4.944 -0.2461  1.5792 -0.3593
 4190TIP3   OH212575   0.720   3.924   0.549  0.0913  0.4077 -0.3342
 4190TIP3    H112576   0.637   3.970   0.565 -1.2371 -1.9418 -0.0515
 4190TIP3    H212577   0.766   3.928   0.633 -0.2613  0.6989 -0.1498
 4191TIP3   OH212578   1.779   0.476   4.836 -0.5359 -0.1633  0.4268
 4191TIP3    H112579   1.858   0.449   4.789 -0.1358  0.4211  0.7633
 4191TIP3    H212580   1.763   0.405   4.898  0.8111  0.5665  1.6658
 4192TIP3   OH212581   3.719   3.238   0.424 -0.4105  0.0403 -0.2420
 4192TIP3    H112582   3.723   3.227   0.519  2.0113 -0.3998 -0.3213
 4192TIP3    H212583   3.730   3.333   0.410 -0.1740  0.0389 -0.0792
 4193TIP3   OH212584   5.648   4.393   3.575 -0.1070  0.2393  0.5136
 4193TIP3    H112585   5.607   4.372   3.491 -0.8780  2.9135  0.1593
 4193TIP3    H212586   5.576   4.423   3.630  0.8068  1.3676  1.1342
 4194TIP3   OH212587   2.962   5.230   2.124 -0.2172  0.6482  0.2568
 4194TIP3    H112588   3.007   5.311   2.146  0.2822  0.8125 -1.2437
 4194TIP3    H212589   3.031   5.172   2.091 -0.6616 -0.1755  0.7158
 4195TIP3   OH212590   2.652   0.858   4.506  0.2099  0.0025 -0.5156
 4195TIP3    H112591   2.605   0.926   4.554  1.5685  0.9503 -0.4579
 4195TIP3    H212592   2.587   0.820   4.447 -0.5882  1.3447 -0.5311
 4196TIP3   OH212593   3.956   2.584   3.879  0.0039  0.3894  0.4743
 4196TIP3    H112594   3.946   2.655   3.942  0.8906  0.4438  0.5693
 4196TIP3    H212595   4.003   2.516   3.926  2.5004  1.2145 -0.6593
 4197TIP3   OH212596   5.902   5.846   1.308 -0.3167  0.2495 -0.0538
 4197TIP3    H112597   5.865   5.867   1.222 -0.1055 -0.8266 -0.4245
 4197TIP3    H212598   5.887   5.752   1.318 -1.3741  0.5594  1.5945
 4198TIP3   OH212599   1.957   4.897   3.304 -0.1869  0.0119 -0.0805
 4198TIP3    H112600   1.960   4.897   3.400 -1.1398  0.7459 -0.0335
 4198TIP3    H212601   1.953   4.990   3.281 -1.2929 -0.1966 -0.7739
 4199TIP3   OH212602   0.831   0.284   2.760 -0.2566 -0.3050  0.1493
 4199TIP3    H112603   0.916   0.289   2.716  0.2901  0.2653  1.2284
 4199TIP3    H212604   0.822   0.193   2.786  0.1279 -0.3228  0.2184
 4200TIP3   OH212605   3.121   0.334   0.664  0.3230  1.0528 -0.1683
 4200TIP3    H112606   3.037   0.379   0.650 -2.0025 -2.2627  1.6197
 4200TIP3    H212607   3.130   0.328   0.759  2.6447  1.2880 -0.3184
 4201TIP3   OH212608   2.366   3.646   2.798  0.1010 -0.4447  0.0425
 4201TIP3    H112609   2.270   3.639   2.796  0.1853 -2.3217 -1.8410
 4201TIP3    H212610   2.392   3.592   2.872 -0.2955 -0.0125  0.5011
 4202TIP3   OH212611   0.729   5.531   5.115  0.4869  0.5940  0.3063
 4202TIP3    H112612   0.747   5.590   5.042  1.4998  0.2088  0.2259
 4202TIP3    H212613   0.785   5.563   5.186  1.3009 -0.4629  0.1518
 4203TIP3   OH212614   1.808   1.026   3.549 -0.5009 -0.2102  0.2114
 4203TIP3    H112615   1.748   1.100   3.539 -1.1710 -0.7738 -0.0738
 4203TIP3    H212616   1.792   0.973   3.471 -2.0196 -2.0509  1.6983
 4204TIP3   OH212617   5.387   5.136   0.611  0.1215 -0.3177 -0.4603
 4204TIP3    H112618   5.409   5.119   0.702  0.8534  0.3882 -0.5000
 4204TIP3    H212619   5.425   5.222   0.592 -2.1825  0.7114 -0.7072
 4205TIP3   OH212620   3.578   1.824   1.137  0.2692 -0.0677  0.5925
 4205TIP3    H112621   3.622   1.813   1.053 -1.6695 -2.4580 -0.1962
 4205TIP3    H212622   3.507   1.885   1.119 -2.0431 -2.8475 -0.4117
 4206TIP3   OH212623   4.452   4.441   3.016 -0.1085  0.5123  0.4713
 4206TIP3    H112624   4.445   4.473   2.926 -1.3886 -0.2209  0.2775
 4206TIP3    H212625   4.544   4.422   3.028 -0.1350 -0.9935 -1.2710
 4207TIP3   OH212626   5.947   0.079   3.778  0.1486 -0.1210  0.1820
 4207TIP3    H112627   6.020   0.048   3.724  1.0600  0.9435  0.7431
 4207TIP3    H212628   5.915   0.001   3.823 -0.2642 -0.9245 -1.4514
 4208TIP3   OH212629   5.642   4.609   3.073  0.6096  0.0392  0.2342
 4208TIP3    H112630   5.567   4.624   3.015 -0.9157  0.8169  2.2794
 4208TIP3    H212631   5.696   4.687   3.064  0.8803 -0.2529 -0.7934
 4209TIP3   OH212632   1.105   3.667   0.702  0.1608 -0.2911  0.2391
 4209TIP3    H112633   1.044   3.619   0.646  1.1970 -2.9923  1.2725
 4209TIP3    H212634   1.109   3.755   0.663 -0.7752 -1.3967 -2.6244
 4210TIP3   OH212635   2.881   1.724   3.699  0.2160 -0.2345  0.1353
 4210TIP3    H112636   2.918   1.738   3.612  1.4181 -1.6771  0.3783
 4210TIP3    H212637   2.789   1.749   3.690  1.0168  2.8694 -0.6468
 4211TIP3   OH212638   4.791   3.585   0.099  0.1502 -0.3475 -0.2794
 4211TIP3    H112639   4.808   3.515   0.036 -0.2015 -0.0380 -0.7283
 4211TIP3    H212640   4.852   3.569   0.170  0.2202 -0.9860 -0.4788
 4212TIP3   OH212641   3.578   5.892   0.507 -0.6252  0.0002  0.1618
 4212TIP3    H112642   3.668   5.925   0.517 -1.1070  2.6089 -2.6499
 4212TIP3    H212643   3.588   5.810   0.459  0.2585 -0.5481  1.2181
 4213TIP3   OH212644   0.602   3.984   3.344 -0.5076 -0.0606  0.0546
 4213TIP3    H112645   0.514   4.021   3.344 -0.3420  0.3584  1.2446
 4213TIP3    H212646   0.619   3.960   3.435 -0.1553 -2.0320 -0.4934
 4214TIP3   OH212647   6.224   3.454   2.585 -0.5245 -0.0687 -0.2485
 4214TIP3    H112648   6.132   3.463   2.608 -0.6886  0.3091 -1.0067
 4214TIP3    H212649   6.258   3.390   2.646 -1.1958  0.0910  0.3032
 4215TIP3   OH212650   4.932   2.601   1.031 -0.1062  0.3455 -0.2507
 4215TIP3    H112651   5.023   2.575   1.017  0.4896  1.7513  0.8224
 4215TIP3    H212652   4.897   2.611   0.943  0.5377 -0.9073 -0.6908
 4216TIP3   OH212653  -0.026   4.241   0.086  0.4810 -0.2933  0.1304
 4216TIP3    H112654   0.009   4.198   0.008  0.1950  0.2357 -0.3008
 4216TIP3    H212655   0.040   4.305   0.110  0.9206 -0.9765  0.7900
 4217TIP3   OH212656   0.658   3.226   0.016 -0.1022 -0.0228 -0.7455
 4217TIP3    H112657   0.676   3.307   0.064  1.0030 -1.4959  1.5299
 4217TIP3    H212658   0.743   3.198  -0.016  0.1962 -1.9767  1.4976
 4218TIP3   OH212659   6.131   2.335   0.080  0.5014 -0.5592  0.0963
 4218TIP3    H112660   6.145   2.419   0.124  1.3565 -1.7264  2.2091
 4218TIP3    H212661   6.063   2.292   0.132 -0.8890 -0.7305 -1.7260
 4219TIP3   OH212662   3.887   3.031   2.582 -0.2479  0.1719  0.0324
 4219TIP3    H112663   3.799   3.047   2.617 -0.3710  1.8782 -0.9315
 4219TIP3    H212664   3.892   3.088   2.505  0.7025 -2.0099 -1.6123
 4220TIP3   OH212665   0.874   4.683   3.800 -0.0800  0.0560  0.3599
 4220TIP3    H112666   0.858   4.635   3.882 -1.0718 -0.5476 -0.1743
 4220TIP3    H212667   0.818   4.760   3.807 -2.8760 -1.6927 -1.1905
 4221TIP3   OH212668   0.170   4.505   4.236  0.1094  0.3195 -0.6705
 4221TIP3    H112669   0.135   4.417   4.226 -0.3097  0.6334 -2.4367
 4221TIP3    H212670   0.215   4.523   4.153 -1.0992  2.2853 -0.9857
 4222TIP3   OH212671   4.669   3.896   4.551 -0.2403 -0.0772  0.0026
 4222TIP3    H112672   4.711   3.843   4.483 -0.1522 -0.5784  0.4412
 4222TIP3    H212673   4.578   3.865   4.553  0.4493 -2.2964  2.2161
 4223TIP3   OH212674   0.605   1.400   2.476  0.1833  0.0367  0.1463
 4223TIP3    H112675   0.590   1.474   2.418 -1.2974 -0.5038 -0.2229
 4223TIP3    H212676   0.540   1.411   2.546 -1.7890 -2.1234 -1.1812
 4224TIP3   OH212677   5.936   3.204   4.655  0.0413 -0.0278 -0.2448
 4224TIP3    H112678   5.901   3.291   4.635  0.7161  0.3073  0.0145
 4224TIP3    H212679   5.953   3.206   4.749 -0.4903 -0.6483 -0.1233
 4225TIP3   OH212680   0.140   4.784   2.528 -0.0999 -0.4139 -0.8106
 4225TIP3    H112681   0.230   4.753   2.514  0.8289  2.1931 -1.0724
 4225TIP3    H212682   0.137   4.807   2.620  0.2878  1.6684 -1.2746
 4226TIP3   OH212683   6.154   0.440   0.440 -0.0087 -0.1232  0.0649
 4226TIP3    H112684   6.155   0.484   0.526 -0.4206  0.5195 -0.2502
 4226TIP3    H212685   6.131   0.509   0.378  2.5665 -0.0029 -0.9070
 4227TIP3   OH212686   2.013   5.305   3.520 -0.1643  0.4330 -0.4532
 4227TIP3    H112687   1.953   5.354   3.465  0.4215 -1.5139 -3.0226
 4227TIP3    H212688   2.084   5.365   3.539 -0.9431  1.4940 -0.8256
 4228TIP3   OH212689   4.833   1.131   5.098  0.0694  0.6016  0.0444
 4228TIP3    H112690   4.896   1.114   5.028 -0.1624 -2.2969  0.4055
 4228TIP3    H212691   4.829   1.226   5.105 -0.3937  1.0629 -4.2852
 4229TIP3   OH212692   1.858   4.323   3.916  0.8346  0.0528 -0.1687
 4229TIP3    H112693   1.794   4.389   3.943 -1.4292 -2.6084  1.4876
 4229TIP3    H212694   1.873   4.270   3.994  2.7287 -1.3151 -1.3565
 4230TIP3   OH212695   2.102   3.084   4.323 -0.2149  0.4976 -0.3113
 4230TIP3    H112696   2.084   3.167   4.368 -1.9232 -0.6238  1.2187
 4230TIP3    H212697   2.034   3.076   4.257 -1.0946 -0.4109  0.6618
 4231TIP3   OH212698   1.614   3.694   0.386  0.6285 -0.2779  0.5459
 4231TIP3    H112699   1.604   3.677   0.292 -0.0037 -2.0336  0.8936
 4231TIP3    H212700   1.584   3.784   0.397 -0.0162 -0.2937 -0.8361
 4232TIP3   OH212701   6.016   5.802   2.354 -0.0787 -0.1617 -0.4698
 4232TIP3    H112702   6.041   5.718   2.318  0.3073 -0.0671 -0.4245
 4232TIP3    H212703   5.972   5.848   2.282 -0.8087 -0.6216 -0.3283
 4233TIP3   OH212704   2.327   1.114   4.860 -0.3969 -0.5415  0.4875
 4233TIP3    H112705   2.356   1.205   4.868  1.1416 -1.0001  0.4996
 4233TIP3    H212706   2.328   1.081   4.950  2.7103 -1.5781  0.1869
 4234TIP3   OH212707   1.088   5.419   3.040 -0.6261  0.0141 -0.2626
 4234TIP3    H112708   1.036   5.480   2.988  0.5824  0.6542 -0.7525
 4234TIP3    H212709   1.028   5.391   3.109 -1.4035  1.3095 -0.3579
 4235TIP3   OH212710   5.888   1.802   4.664  0.2323 -0.3954  0.2036
 4235TIP3    H112711   5.887   1.867   4.594 -0.8555 -0.0876  0.4754
 4235TIP3    H212712   5.907   1.853   4.743 -1.7640 -0.1450  0.6019
 4236TIP3   OH212713   0.620   2.681   1.289 -0.2207  0.3127  0.8638
 4236TIP3    H112714   0.588   2.665   1.378  1.4759 -1.3849  1.2356
 4236TIP3    H212715   0.573   2.618   1.235 -0.7980  0.9271  0.6318
 4237TIP3   OH212716   2.080   4.044   0.344  0.1024  0.2159 -0.0421
 4237TIP3    H112717   2.123   3.960   0.329 -0.6754 -0.1715 -0.1578
 4237TIP3    H212718   2.004   4.023   0.397 -0.3942  0.7667 -0.5223
 4238TIP3   OH212719   1.497   3.745   1.811  0.3374  0.0379  0.4177
 4238TIP3    H112720   1.446   3.728   1.732 -1.6860  0.3102  1.6037
 4238TIP3    H212721   1.447   3.704   1.882  2.5497 -0.9992  1.4986
 4239TIP3   OH212722   6.319   3.107   4.935  0.1989 -0.7235  0.2211
 4239TIP3    H112723   6.301   3.104   4.841  1.3199 -1.6552  0.0067
 4239TIP3    H212724   6.288   3.193   4.963  0.8645  0.0344 -1.2336
 4240TIP3   OH212725   5.512   0.436   1.188  0.2677 -0.0845 -0.8136
 4240TIP3    H112726   5.451   0.443   1.114 -1.7089 -0.1361  0.7406
 4240TIP3    H212727   5.554   0.351   1.176 -3.0937 -2.0811  0.2448
 4241TIP3   OH212728   5.596   3.764   3.212 -0.2818  0.7784 -0.4287
 4241TIP3    H112729   5.585   3.683   3.162  2.1837 -0.4823  0.9339
 4241TIP3    H212730   5.652   3.819   3.157 -1.4499  1.3955 -1.0703
 4242TIP3   OH212731   0.041   1.708   1.168  0.4829 -0.2387 -0.1392
 4242TIP3    H112732   0.032   1.783   1.108 -0.1516  1.0037  1.4275
 4242TIP3    H212733  -0.044   1.664   1.164  0.9721 -1.1267 -1.3295
 4243TIP3   OH212734   4.228   0.897   1.632 -0.0918 -0.3376  0.4675
 4243TIP3    H112735   4.324   0.903   1.627 -0.1532  0.3251  0.0269
 4243TIP3    H212736   4.207   0.814   1.588  0.3647 -1.1515  1.7158
 4244TIP3   OH212737   2.696   2.704   0.379 -0.0038  0.1118 -0.5017
 4244TIP3    H112738   2.662   2.750   0.301  3.8159  1.0859 -1.8022
 4244TIP3    H212739   2.720   2.618   0.347  1.0499  0.3168 -0.2855
 4245TIP3   OH212740   5.248   2.524   1.950  0.1174 -0.2700  0.4917
 4245TIP3    H112741   5.252   2.599   1.890 -0.2046  0.6323  1.5475
 4245TIP3    H212742   5.286   2.451   1.901 -1.4371  0.0576 -1.3470
 4246TIP3   OH212743   4.836   5.669   3.458 -0.3994  0.4877 -0.1214
 4246TIP3    H112744   4.901   5.738   3.446 -0.8538  0.7900 -0.9100
 4246TIP3    H212745   4.886   5.589   3.467  0.0678  0.6730 -1.0370
 4247TIP3   OH212746   5.866   1.997   3.255  0.2622  0.0859 -0.3958
 4247TIP3    H112747   5.961   1.988   3.244  0.1124 -0.4300 -1.3611
 4247TIP3    H212748   5.829   1.952   3.179 -0.8001 -1.2807  0.8770
 4248TIP3   OH212749   0.450   1.678   4.889  0.4223 -0.6444  0.5184
 4248TIP3    H112750   0.447   1.649   4.980  1.5495  2.3812  1.6767
 4248TIP3    H212751   0.543   1.685   4.869  0.1975  0.2497 -0.3078
 4249TIP3   OH212752   2.757   0.422   5.093  0.2512  0.2600  0.4372
 4249TIP3    H112753   2.772   0.509   5.054  0.0727 -0.0113 -0.2614
 4249TIP3    H212754   2.820   0.366   5.048 -0.3619 -0.1766  0.1129
 4250TIP3   OH212755   5.351   1.850   5.157 -0.3133  0.1013 -0.3961
 4250TIP3    H112756   5.331   1.756   5.151 -2.3646  0.5893 -2.6451
 4250TIP3    H212757   5.380   1.874   5.069  1.0511  1.4665  0.3750
 4251TIP3   OH212758   1.946   0.474   2.993 -0.1397  0.8760  0.1136
 4251TIP3    H112759   1.895   0.416   3.049  0.2616  0.5061  0.1077
 4251TIP3    H212760   1.903   0.559   3.000  0.2793  1.0005  1.5050
 4252TIP3   OH212761   5.021   5.859   0.591 -0.2109  0.2281 -0.1242
 4252TIP3    H112762   4.941   5.899   0.626  1.0457  0.9976  2.0349
 4252TIP3    H212763   5.005   5.853   0.496 -1.6512  3.1664 -0.1979
 4253TIP3   OH212764   3.056   4.521   1.060 -0.3666  0.0858  0.0384
 4253TIP3    H112765   3.007   4.506   1.141 -0.7160  0.1286 -0.1664
 4253TIP3    H212766   3.090   4.610   1.069 -0.4649  0.1167  0.1063
 4254TIP3   OH212767   3.240   1.524   4.539  0.0255  0.0255  0.0680
 4254TIP3    H112768   3.231   1.436   4.574  1.3691 -0.1936 -0.0830
 4254TIP3    H212769   3.152   1.548   4.511 -0.3449 -1.2925  0.0510
 4255TIP3   OH212770   5.989   0.299   3.946  0.2456  0.3978 -0.0433
 4255TIP3    H112771   5.950   0.258   4.023  0.5926  0.2148  0.0348
 4255TIP3    H212772   6.005   0.227   3.886 -2.3971  0.8080 -1.3601
 4256TIP3   OH212773   3.476   3.665   1.657 -0.4403  0.2363  0.5574
 4256TIP3    H112774   3.541   3.715   1.607 -0.6064 -0.1231 -0.0220
 4256TIP3    H212775   3.428   3.732   1.706  0.5383  0.4901  1.2250
 4257TIP3   OH212776   2.106   4.074   4.552 -0.0654  0.1884 -0.5846
 4257TIP3    H112777   2.093   4.015   4.626 -0.0162 -1.0501 -1.5507
 4257TIP3    H212778   2.020   4.112   4.536 -0.1402  0.2311 -0.1039
 4258TIP3   OH212779   0.036   5.270   2.248 -0.6033 -0.0039  0.2374
 4258TIP3    H112780  -0.022   5.223   2.308  0.7172 -0.3503  1.3023
 4258TIP3    H212781   0.060   5.205   2.182  1.2717 -0.9572  1.7424
 4259TIP3   OH212782   1.854   2.634   2.698 -0.1677 -0.7902  0.0260
 4259TIP3    H112783   1.871   2.714   2.748  2.5736 -2.1009  1.4359
 4259TIP3    H212784   1.925   2.630   2.634  0.8383 -2.8620  1.1426
 4260TIP3   OH212785   2.794   2.901   4.204 -0.6154  0.4159  0.0367
 4260TIP3    H112786   2.768   2.975   4.258  0.5705 -1.0456  2.8409
 4260TIP3    H212787   2.887   2.914   4.187 -0.3028 -0.5735  0.8814
 4261TIP3   OH212788   6.380   2.102   1.374 -0.2620  0.3196  0.0658
 4261TIP3    H112789   6.388   2.095   1.279  0.4399 -0.5676  0.1771
 4261TIP3    H212790   6.299   2.055   1.395 -0.2364  0.2144 -0.0667
 4262TIP3   OH212791   1.948   1.680   4.303 -0.6510  0.5349 -0.1062
 4262TIP3    H112792   1.965   1.749   4.238  0.4422 -1.4823 -2.0988
 4262TIP3    H212793   1.895   1.616   4.256 -0.6323 -0.5547  1.3092
 4263TIP3   OH212794   3.976   1.709   3.894 -0.0554  0.1792  0.3310
 4263TIP3    H112795   3.902   1.740   3.841 -0.7151  0.6343  1.4642
 4263TIP3    H212796   4.048   1.700   3.832 -0.7242  0.9327 -0.5958
 4264TIP3   OH212797   3.336   1.523   5.046  0.0241  0.2091 -0.3090
 4264TIP3    H112798   3.336   1.471   4.966 -1.8618 -1.2523  0.5601
 4264TIP3    H212799   3.411   1.582   5.037  0.5968 -0.7807 -2.5597
 4265TIP3   OH212800   0.761   1.212   1.049  0.3939  0.4944 -0.4031
 4265TIP3    H112801   0.704   1.288   1.062 -0.8635 -0.5028  0.1952
 4265TIP3    H212802   0.825   1.240   0.984  0.2945  2.2275  0.1997
 4266TIP3   OH212803   3.425   0.713   1.427  0.3017 -0.0886  0.3096
 4266TIP3    H112804   3.404   0.733   1.518  1.0111  0.1043  0.4433
 4266TIP3    H212805   3.521   0.702   1.427  0.3054 -0.0930 -0.4067
 4267TIP3   OH212806   4.406   2.853   1.105  0.3003 -0.5777  0.2891
 4267TIP3    H112807   4.481   2.909   1.086  0.0460  0.3340  1.8002
 4267TIP3    H212808   4.407   2.788   1.035  0.1844  1.7147 -2.0249
 4268TIP3   OH212809   3.778   3.240   1.353 -1.2684 -0.0377 -0.5458
 4268TIP3    H112810   3.705   3.180   1.338 -1.2819 -0.2777  0.4462
 4268TIP3    H212811   3.854   3.183   1.364 -1.5822 -0.0568  2.3502
 4269TIP3   OH212812   4.965   3.804   3.210 -0.2188 -0.4442 -0.0395
 4269TIP3    H112813   4.925   3.828   3.127  1.9964 -1.4705 -1.5092
 4269TIP3    H212814   4.934   3.715   3.227  0.0215 -0.5657 -0.2355
 4270TIP3   OH212815   1.165   2.629   4.962 -0.7025 -0.2104 -0.1818
 4270TIP3    H112816   1.177   2.595   5.051 -1.4480  0.4938  0.1980
 4270TIP3    H212817   1.206   2.715   4.964 -0.9421 -0.0899 -0.4508
 4271TIP3   OH212818   1.748   5.486   4.140 -0.0671 -0.3467  0.6177
 4271TIP3    H112819   1.843   5.475   4.130  0.5099  1.9747  2.6991
 4271TIP3    H212820   1.722   5.415   4.199  0.4118 -0.7845  0.3151
 4272TIP3   OH212821   0.628   0.864   0.512  0.0285 -0.1426  0.4237
 4272TIP3    H112822   0.604   0.856   0.420  1.8403  0.5376 -0.1683
 4272TIP3    H212823   0.559   0.916   0.551  0.2472  1.3375 -1.0562
 4273TIP3   OH212824   3.444   0.487   4.206  0.4578  0.2441  0.5648
 4273TIP3    H112825   3.467   0.513   4.117  0.3298 -0.9255  0.1665
 4273TIP3    H212826   3.463   0.393   4.209 -0.7270  0.0005  1.3679
 4274TIP3   OH212827   1.931   5.484   1.984  0.4735 -0.3106 -0.1144
 4274TIP3    H112828   1.951   5.577   1.986 -0.8197 -0.0214  1.2787
 4274TIP3    H212829   1.883   5.471   1.903  0.3045  0.3139 -0.1184
 4275TIP3   OH212830   3.217   1.931   4.268  0.6252  0.4444  0.1307
 4275TIP3    H112831   3.191   1.930   4.175  0.0200  0.4004  0.2944
 4275TIP3    H212832   3.155   1.872   4.310  0.3117  1.1652  0.7113
 4276TIP3   OH212833   4.313   5.816   3.534  0.0207  0.3625 -0.2827
 4276TIP3    H112834   4.405   5.793   3.545  0.0726  0.6080 -0.1987
 4276TIP3    H212835   4.300   5.817   3.439 -0.7431 -3.0027 -0.3459
 4277TIP3   OH212836   0.772   0.975   1.362 -0.1318 -0.2528  0.3297
 4277TIP3    H112837   0.747   1.066   1.378 -1.7988 -0.4523 -0.8850
 4277TIP3    H212838   0.809   0.975   1.274  0.4052 -0.6597  0.5500
 4278TIP3   OH212839   5.043   1.929   3.652 -0.8398  0.6812  0.0314
 4278TIP3    H112840   5.068   1.996   3.715  0.2357  0.5953 -0.2781
 4278TIP3    H212841   5.062   1.846   3.696  0.1085  0.6241 -0.4711
 4279TIP3   OH212842   3.738   0.317   1.626 -0.1616  0.8222 -0.0918
 4279TIP3    H112843   3.720   0.300   1.719 -2.1216  0.2039 -0.5301
 4279TIP3    H212844   3.753   0.230   1.589  0.3645  1.0471 -0.4054
 4280TIP3   OH212845   4.152   0.314   2.332 -0.1705 -0.2160  0.1434
 4280TIP3    H112846   4.171   0.300   2.425  1.7844  1.2423  0.0136
 4280TIP3    H212847   4.093   0.390   2.331 -0.3851 -0.3793  0.1849
 4281TIP3   OH212848   1.185   3.955   3.915  0.7345 -0.2028  0.9354
 4281TIP3    H112849   1.234   4.017   3.860  1.1163  0.6684  2.2124
 4281TIP3    H212850   1.093   3.977   3.900  0.8664  0.9634  1.6314
 4282TIP3   OH212851   4.095   4.478   0.877  0.1146 -0.1581 -0.3839
 4282TIP3    H112852   4.039   4.406   0.904 -0.1219  0.2246  0.1727
 4282TIP3    H212853   4.152   4.441   0.809 -0.8565 -0.5289 -1.0057
 4283TIP3   OH212854   1.828   1.925   2.658  0.0120 -0.1346  0.1482
 4283TIP3    H112855   1.802   2.000   2.711 -0.7569 -1.7101  2.1143
 4283TIP3    H212856   1.918   1.945   2.632  1.1490 -0.0266  3.6484
 4284TIP3   OH212857   2.306   1.211   3.875 -0.4124 -0.2616 -0.9763
 4284TIP3    H112858   2.294   1.290   3.928  2.6137 -0.9874  1.0325
 4284TIP3    H212859   2.379   1.232   3.817 -0.5807 -1.1058 -1.5092
 4285TIP3   OH212860   4.069   0.504   0.347 -0.0537 -0.1391 -0.3010
 4285TIP3    H112861   3.995   0.562   0.367  2.1209  2.4604  0.9457
 4285TIP3    H212862   4.105   0.538   0.265 -1.0549 -2.3384 -1.7187
 4286TIP3   OH212863   4.447   1.850   4.638  0.4275 -0.4224 -0.0411
 4286TIP3    H112864   4.485   1.856   4.726  0.6883  0.3923 -0.2000
 4286TIP3    H212865   4.384   1.779   4.644 -0.8801  0.7729  1.3193
 4287TIP3   OH212866   6.181   4.045   0.176 -0.4791  0.6538  0.2203
 4287TIP3    H112867   6.230   4.001   0.244 -0.3416 -1.0684 -0.9348
 4287TIP3    H212868   6.241   4.111   0.141  0.2222  0.0436  0.2723
 4288TIP3   OH212869   1.069   1.018   2.270 -0.5308  0.1551 -0.1023
 4288TIP3    H112870   0.994   1.076   2.262  0.0623  0.9196 -0.2473
 4288TIP3    H212871   1.075   0.974   2.186  1.3722  2.8489 -1.5284
 4289TIP3   OH212872   5.616   4.065   1.398  0.1212 -0.3191  0.7892
 4289TIP3    H112873   5.623   4.019   1.481  0.1874 -1.3750  0.2183
 4289TIP3    H212874   5.527   4.046   1.368  0.5247 -1.0686  0.0041
 4290TIP3   OH212875   5.096   3.624   3.796  0.3997  0.0906  0.1067
 4290TIP3    H112876   5.120   3.615   3.888 -0.4438  1.0228  0.4345
 4290TIP3    H212877   5.155   3.691   3.762  1.6452 -1.2153 -0.4141
 4291TIP3   OH212878   5.121   3.988   0.089  0.1261  0.1479 -0.5052
 4291TIP3    H112879   5.197   3.980   0.146 -0.6990 -0.3593  0.5582
 4291TIP3    H212880   5.075   4.065   0.120  0.2842  0.5564 -1.2588
 4292TIP3   OH212881   4.602   0.518   1.886 -0.0124  0.4279 -0.2993
 4292TIP3    H112882   4.654   0.597   1.898 -0.2385  0.3671  1.2379
 4292TIP3    H212883   4.640   0.476   1.809  0.0292  2.0729 -1.2313
 4293TIP3   OH212884   3.087   3.392   0.040  0.5195 -0.6157  0.1943
 4293TIP3    H112885   3.026   3.435   0.100  1.1560 -0.5700  0.8235
 4293TIP3    H212886   3.169   3.441   0.049 -0.0863  1.2243 -2.8320
 4294TIP3   OH212887   3.347   6.012   4.122 -0.0641 -0.5946 -0.5600
 4294TIP3    H112888   3.365   6.021   4.028  0.6639 -0.6268 -0.4231
 4294TIP3    H212889   3.414   5.951   4.154  0.3837  0.2780  0.2001
 4295TIP3   OH212890   3.646   5.360   3.704 -0.0332  0.1741  0.2970
 4295TIP3    H112891   3.648   5.410   3.622  0.5785 -0.7049 -0.2496
 4295TIP3    H212892   3.611   5.274   3.678  0.7870 -0.3369  0.8242
 4296TIP3   OH212893   1.344   4.314   4.757 -0.0396 -0.3403  0.2471
 4296TIP3    H112894   1.276   4.259   4.719 -0.0001 -0.5630  0.4929
 4296TIP3    H212895   1.362   4.274   4.842  0.7840 -0.5982 -0.0398
 4297TIP3   OH212896   4.179   3.923   1.569  0.0150 -0.5150  0.4040
 4297TIP3    H112897   4.180   3.854   1.502 -0.3297  1.1067 -1.3478
 4297TIP3    H212898   4.114   3.894   1.633 -0.0008 -1.8702 -0.1874
 4298TIP3   OH212899   5.953   5.447   2.684 -0.2067  0.0853 -0.3575
 4298TIP3    H112900   6.033   5.462   2.633 -0.7263  0.8696 -0.9689
 4298TIP3    H212901   5.903   5.528   2.674 -0.1336  0.4617  1.7848
 4299TIP3   OH212902   5.130   2.901   0.867  0.1934  0.0506  0.0387
 4299TIP3    H112903   5.149   2.858   0.783  0.6428  2.0382 -0.9383
 4299TIP3    H212904   5.116   2.993   0.844  0.2085  0.6285  2.1454
 4300TIP3   OH212905   0.647   5.373   0.474 -0.2143 -0.7721  0.1187
 4300TIP3    H112906   0.614   5.376   0.564  0.5776 -2.8865  0.5435
 4300TIP3    H212907   0.741   5.354   0.485  0.2906  0.8392 -1.1332
 4301TIP3   OH212908   5.053   4.650   3.497 -0.1379  0.0609  0.1527
 4301TIP3    H112909   5.122   4.589   3.525  1.5338  1.6214 -0.4362
 4301TIP3    H212910   5.080   4.679   3.411 -2.1100 -0.0504 -0.5513
 4302TIP3   OH212911   5.946   4.040   3.731 -0.3823  0.0567  0.6254
 4302TIP3    H112912   5.909   3.952   3.724 -0.1680  0.0474 -0.6817
 4302TIP3    H212913   5.990   4.041   3.816  0.5388 -1.4819  0.2143
 4303TIP3   OH212914   2.570   1.524   3.532  0.3257 -0.3290 -0.7547
 4303TIP3    H112915   2.475   1.514   3.541  0.1821 -0.7435 -2.4353
 4303TIP3    H212916   2.588   1.612   3.567 -0.5435 -0.5564  0.3242
 4304TIP3   OH212917   3.180   1.196   2.429 -0.3158  0.3247  0.7980
 4304TIP3    H112918   3.108   1.185   2.368 -1.0321  1.9104  1.2990
 4304TIP3    H212919   3.185   1.291   2.443  1.2621  0.1715  1.4922
 4305TIP3   OH212920   0.261   5.182   4.017  0.4187 -0.1969 -0.3665
 4305TIP3    H112921   0.221   5.208   3.934  0.0430  0.8583  0.1214
 4305TIP3    H212922   0.354   5.201   4.007  0.1568  1.4869 -0.0139
 4306TIP3   OH212923   4.509   0.016   4.969  0.4431 -0.2345  0.4443
 4306TIP3    H112924   4.587   0.029   5.024  0.2373 -0.2239  0.7354
 4306TIP3    H212925   4.440   0.066   5.013  0.3824  0.1469 -0.0705
 4307TIP3   OH212926   1.429   1.902   4.012  0.1919  0.1776 -0.7153
 4307TIP3    H112927   1.472   1.930   3.931  0.1292  0.1710 -0.7502
 4307TIP3    H212928   1.494   1.847   4.055 -0.6222 -1.7842 -1.8764
 4308TIP3   OH212929   2.991   2.043   4.558  0.1190  0.2114 -0.6395
 4308TIP3    H112930   2.930   2.062   4.629 -0.4039  1.9570 -1.4924
 4308TIP3    H212931   3.052   1.979   4.595 -0.4029  0.7168  1.2115
 4309TIP3   OH212932   0.886   3.090   2.261  0.5639  0.0331  0.0993
 4309TIP3    H112933   0.836   3.157   2.308  2.0994  1.6832 -0.5212
 4309TIP3    H212934   0.820   3.043   2.210 -0.6724  0.4725  1.2389
 4310TIP3   OH212935   6.336   0.064   4.737  0.2396 -0.0750 -0.2240
 4310TIP3    H112936   6.315   0.142   4.686  1.3789  1.1100  1.0378
 4310TIP3    H212937   6.360  -0.002   4.671 -2.3847  0.0300 -1.4224
 4311TIP3   OH212938   6.307   5.274   4.359 -0.3700  0.1853 -0.1305
 4311TIP3    H112939   6.304   5.265   4.455  1.3409  1.4006  0.0886
 4311TIP3    H212940   6.400   5.268   4.337 -0.8838 -2.3311 -2.0393
 4312TIP3   OH212941   5.919   1.828   3.448  0.1130  0.3405 -0.3125
 4312TIP3    H112942   5.888   1.890   3.382  1.2839 -0.0813 -1.2918
 4312TIP3    H212943   5.841   1.778   3.471 -0.4227  0.8158 -1.0184
 4313TIP3   OH212944   2.030   0.907   0.609  0.1092 -0.6268 -0.6571
 4313TIP3    H112945   2.096   0.920   0.677  0.7544 -2.6130 -0.8535
 4313TIP3    H212946   1.989   0.823   0.629 -0.0207 -1.0439 -2.4340
 4314TIP3   OH212947   3.203   2.315   5.113  0.3899 -0.1821  0.1390
 4314TIP3    H112948   3.166   2.228   5.124  2.1600 -0.8168  1.6425
 4314TIP3    H212949   3.266   2.306   5.041 -0.0855  0.1105 -0.3232
 4315TIP3   OH212950   2.184   4.739   0.144 -0.2279 -0.3924  0.0993
 4315TIP3    H112951   2.191   4.645   0.128 -0.8466 -0.1145 -2.1831
 4315TIP3    H212952   2.094   4.761   0.117 -0.4097  0.7274  1.4837
 4316TIP3   OH212953   0.995   1.866   5.053 -0.6606 -0.0648 -0.3850
 4316TIP3    H112954   0.974   1.934   5.116 -0.7225  1.6199 -2.1584
 4316TIP3    H212955   0.927   1.799   5.066 -1.3147  0.7513  0.5489
 4317TIP3   OH212956   4.245   4.381   3.191 -0.1270  0.1921 -0.3475
 4317TIP3    H112957   4.299   4.390   3.113 -0.7195 -1.8538 -1.0716
 4317TIP3    H212958   4.243   4.286   3.207 -1.7415  0.4046  0.9151
 4318TIP3   OH212959   5.893   4.013   1.780 -0.2947  0.6107  0.2996
 4318TIP3    H112960   5.800   4.025   1.800  0.0232 -0.2707  2.6773
 4318TIP3    H212961   5.928   3.968   1.857  2.0554  0.6616 -0.6623
 4319TIP3   OH212962   1.928   3.888   4.070 -0.3115 -0.5929 -0.3081
 4319TIP3    H112963   1.936   3.870   3.976 -0.6660 -0.6170 -0.3341
 4319TIP3    H212964   1.889   3.976   4.074 -2.0311 -1.3214 -0.1980
 4320TIP3   OH212965   0.179   2.231   2.465  0.2052  0.0613 -0.1369
 4320TIP3    H112966   0.147   2.317   2.490  0.9168  0.1634  0.4370
 4320TIP3    H212967   0.270   2.245   2.440  0.3308 -0.5211 -0.0357
 4321TIP3   OH212968   5.241   1.238   4.810  0.3532 -0.0290 -0.2361
 4321TIP3    H112969   5.305   1.307   4.791  0.4120  0.1819  0.6794
 4321TIP3    H212970   5.293   1.159   4.820  0.2562 -0.2945 -1.6162
 4322TIP3   OH212971   1.790   5.477   1.751  0.2180 -0.1100  0.2961
 4322TIP3    H112972   1.812   5.518   1.668 -0.6751  0.0020  0.1023
 4322TIP3    H212973   1.782   5.384   1.731 -0.2178 -0.0552  0.2029
 4323TIP3   OH212974   2.081   4.506   0.961 -0.0236  0.2701 -0.4546
 4323TIP3    H112975   2.117   4.566   1.026  0.6648  0.8842 -1.3654
 4323TIP3    H212976   1.986   4.510   0.974  0.0127  1.5582 -0.4900
 4324TIP3   OH212977   3.093   1.976   2.491 -0.0866 -0.0480 -0.3381
 4324TIP3    H112978   3.102   2.004   2.582  0.7175  1.2217 -0.7896
 4324TIP3    H212979   3.165   2.019   2.445  0.2073 -1.5612 -1.3936
 4325TIP3   OH212980   5.325   2.680   4.396  0.0300  0.0510  0.6366
 4325TIP3    H112981   5.411   2.653   4.364 -1.0485 -1.6128 -1.0669
 4325TIP3    H212982   5.325   2.775   4.386  1.2523 -0.0291 -0.4341
 4326TIP3   OH212983   0.739   0.106   2.264 -0.0203 -0.4097 -0.3466
 4326TIP3    H112984   0.677   0.055   2.315  1.8989 -1.3389  1.1931
 4326TIP3    H212985   0.777   0.043   2.202  0.4699 -0.2330 -0.2303
 4327TIP3   OH212986   2.953   4.177   0.507  0.0808 -0.6410 -0.2681
 4327TIP3    H112987   2.992   4.218   0.584  3.4022 -1.9979 -1.0232
 4327TIP3    H212988   2.912   4.097   0.541 -0.0768 -0.3159  0.3184
 4328TIP3   OH212989   1.845   0.353   2.527 -0.4091  0.1911 -0.0583
 4328TIP3    H112990   1.916   0.412   2.552 -0.7413  0.9531 -0.8948
 4328TIP3    H212991   1.804   0.329   2.611 -0.4210  1.3387  0.2848
 4329TIP3   OH212992   2.124   4.277   0.788 -0.1220 -0.3969 -0.2279
 4329TIP3    H112993   2.104   4.338   0.858  1.8137 -0.2296  0.2566
 4329TIP3    H212994   2.110   4.327   0.707 -0.1965  0.1463  0.1167
 4330TIP3   OH212995   2.180   2.401   3.549 -0.0943  0.3061 -0.0575
 4330TIP3    H112996   2.224   2.461   3.610  0.4565  0.0048 -0.1475
 4330TIP3    H212997   2.143   2.457   3.482  0.9862  0.5078 -0.5038
 4331TIP3   OH212998   4.571   4.510   0.124 -0.6015  0.1083 -0.2269
 4331TIP3    H112999   4.548   4.588   0.073  0.1656  0.9032  0.6085
 4331TIP3    H213000   4.503   4.505   0.192 -1.3221 -0.6469 -0.9812
 4332TIP3   OH213001   1.672   1.376   0.793 -0.5281 -0.4933 -0.1770
 4332TIP3    H113002   1.672   1.291   0.748  0.0840 -0.9569  0.6618
 4332TIP3    H213003   1.580   1.389   0.819 -0.6323 -0.8878 -0.3336
 4333TIP3   OH213004   2.239   0.994   0.764  0.1850 -0.3632 -0.0454
 4333TIP3    H113005   2.218   1.072   0.713  1.1922 -0.0575 -0.0163
 4333TIP3    H213006   2.325   0.966   0.731  1.1209  0.1546  1.8227
 4334TIP3   OH213007   2.098   2.500   3.979 -0.1891 -0.3136 -0.2221
 4334TIP3    H113008   2.139   2.428   4.027 -0.0720 -0.7969 -1.0322
 4334TIP3    H213009   2.058   2.554   4.047 -0.1362 -1.0543  0.4134
 4335TIP3   OH213010   1.243   3.992   3.524 -0.4722 -0.1042 -0.1681
 4335TIP3    H113011   1.213   3.904   3.503  1.5544 -0.7399 -0.6855
 4335TIP3    H213012   1.231   4.042   3.443 -1.9849  0.2343  0.2405
 4336TIP3   OH213013   6.314   2.820   2.054  0.0718  0.1753 -0.3331
 4336TIP3    H113014   6.284   2.875   2.127  1.1238  0.6471 -0.2344
 4336TIP3    H213015   6.402   2.793   2.079 -0.0497 -0.7370 -0.8537
 4337TIP3   OH213016   4.037   5.466   0.988 -0.1898  0.3630 -0.5349
 4337TIP3    H113017   4.085   5.394   0.948 -2.1142  0.2147 -2.7724
 4337TIP3    H213018   4.009   5.432   1.073  0.6735 -0.7642 -0.6833
 4338TIP3   OH213019   3.128   3.795   1.910 -0.0212 -0.1979  0.1837
 4338TIP3    H113020   3.124   3.704   1.881  1.1570 -0.7514  1.6287
 4338TIP3    H213021   3.074   3.843   1.846  0.0551 -1.7565 -1.1237
 4339TIP3   OH213022   1.432   0.040   4.749 -0.1074  0.3054 -0.0396
 4339TIP3    H113023   1.489   0.116   4.738 -0.1557  0.6303  1.6377
 4339TIP3    H213024   1.491  -0.034   4.754 -0.0292  0.2764 -1.1821
 4340TIP3   OH213025   0.943   5.079   0.866 -0.0002 -0.4072 -0.0413
 4340TIP3    H113026   0.941   5.153   0.926  3.2121  0.3816 -0.7036
 4340TIP3    H213027   0.968   5.117   0.782  0.7798 -2.0995 -0.6259
 4341TIP3   OH213028   2.846   2.978   3.896  0.4449 -0.8691 -0.1310
 4341TIP3    H113029   2.896   3.007   3.972 -0.7309  0.4983  0.1757
 4341TIP3    H213030   2.834   2.884   3.909  0.3664 -0.6821  1.3089
 4342TIP3   OH213031   1.646   4.766   2.233 -0.3149  0.1198 -0.1408
 4342TIP3    H113032   1.709   4.790   2.165  0.4245  0.7944  0.7534
 4342TIP3    H213033   1.686   4.690   2.277 -0.5462  0.0031 -0.1282
 4343TIP3   OH213034   1.859   0.714   2.997  0.2407 -0.2257  0.1291
 4343TIP3    H113035   1.783   0.771   3.012  0.2879  0.0459 -0.6289
 4343TIP3    H213036   1.930   0.755   3.046  0.2198  0.2469 -0.2323
 4344TIP3   OH213037   4.966   3.484   5.183 -0.0928 -0.1113  0.2703
 4344TIP3    H113038   5.000   3.570   5.158  1.1736 -0.4205  0.8282
 4344TIP3    H213039   5.011   3.423   5.123 -0.6346 -0.4267  0.1791
 4345TIP3   OH213040   4.273   2.723   2.633  0.4246 -0.0143 -1.0116
 4345TIP3    H113041   4.205   2.773   2.588 -0.3079  0.1923  0.2956
 4345TIP3    H213042   4.319   2.788   2.687 -0.6995 -0.7364  0.9055
 4346TIP3   OH213043   3.743   4.884   4.831 -0.6920  0.1807 -0.8331
 4346TIP3    H113044   3.656   4.855   4.856 -1.3442  1.0369 -2.0115
 4346TIP3    H213045   3.728   4.961   4.776  0.8753  1.5275  0.4981
 4347TIP3   OH213046   4.030   1.475   4.414 -0.0636  0.1815 -0.3926
 4347TIP3    H113047   4.124   1.482   4.398 -0.0271  3.2405  0.6843
 4347TIP3    H213048   3.989   1.528   4.346 -1.2899 -2.6597 -2.0949
 4348TIP3   OH213049   1.723   3.267   3.467 -0.3072 -0.5467  0.7424
 4348TIP3    H113050   1.722   3.356   3.433  1.1455 -0.9760 -0.5251
 4348TIP3    H213051   1.683   3.214   3.398  0.3718 -1.0890  0.7532
 4349TIP3   OH213052   3.582   1.567   0.948  0.0035 -0.3513 -0.4367
 4349TIP3    H113053   3.519   1.611   0.892 -0.3734  0.5883  0.6929
 4349TIP3    H213054   3.579   1.615   1.031  1.8287 -0.5930 -0.1843
 4350TIP3   OH213055   5.249   2.164   2.478  0.3874  0.1956  0.3795
 4350TIP3    H113056   5.293   2.086   2.442 -0.6883  1.3775 -4.1304
 4350TIP3    H213057   5.303   2.237   2.449 -0.5919  1.3148  1.3003
 4351TIP3   OH213058   6.273   1.691   4.527  0.5476 -0.2527  0.4038
 4351TIP3    H113059   6.261   1.638   4.448 -1.8496 -0.3463  0.7540
 4351TIP3    H213060   6.367   1.685   4.546  0.9742 -1.2310 -1.7144
 4352TIP3   OH213061   4.785   2.016   2.463 -0.3850  0.0226 -0.2408
 4352TIP3    H113062   4.851   2.073   2.424  0.1777 -1.0199 -0.8564
 4352TIP3    H213063   4.793   1.934   2.415 -2.4493  0.0119 -0.6432
 4353TIP3   OH213064   4.155   0.920   1.882 -0.0626 -0.7316  0.1098
 4353TIP3    H113065   4.186   0.889   1.796  0.5472 -0.5477  0.2584
 4353TIP3    H213066   4.227   0.973   1.916 -1.0170  0.7573 -0.0753
 4354TIP3   OH213067   4.094   1.779   4.386  0.1317 -0.3968  0.3912
 4354TIP3    H113068   4.080   1.728   4.307 -0.9786 -0.8943  0.8845
 4354TIP3    H213069   4.187   1.803   4.383 -0.0285  0.1199 -1.3483
 4355TIP3   OH213070   0.981   1.886   4.767 -0.4627  0.3143  0.4451
 4355TIP3    H113071   1.002   1.903   4.858 -1.0254  2.4441  0.2431
 4355TIP3    H213072   1.052   1.830   4.735  1.1732  1.6808  1.5249
 4356TIP3   OH213073   3.046   0.359   4.169  0.0265  0.2532 -0.4463
 4356TIP3    H113074   3.064   0.339   4.078  0.6990  1.0208 -0.4877
 4356TIP3    H213075   2.959   0.399   4.168 -1.2157 -2.2482 -0.3978
 4357TIP3   OH213076   4.106   3.861   4.309  0.4271 -0.3713 -0.0026
 4357TIP3    H113077   4.032   3.853   4.249 -1.8416  1.8065  2.2621
 4357TIP3    H213078   4.131   3.770   4.329 -0.8934 -1.1458 -1.6722
 4358TIP3   OH213079   5.992   3.314   1.615 -0.3049 -0.1254 -0.1160
 4358TIP3    H113080   6.009   3.229   1.574  0.2602 -1.1808  2.1686
 4358TIP3    H213081   6.034   3.377   1.556  1.7082 -1.6815 -0.4889
 4359TIP3   OH213082   5.317   2.226   1.980 -0.2817  0.1662 -0.3947
 4359TIP3    H113083   5.292   2.249   1.891 -0.3754 -2.7903 -1.2435
 4359TIP3    H213084   5.350   2.137   1.973  1.8985  0.6378  2.1914
 4360TIP3   OH213085   0.887   2.947   4.065 -0.7752  0.7082 -0.3051
 4360TIP3    H113086   0.949   3.001   4.016 -0.3247 -0.7281 -1.3782
 4360TIP3    H213087   0.922   2.945   4.154  0.5542  0.1805 -0.8164
 4361TIP3   OH213088   6.279   4.687   1.417 -0.1648 -0.1282 -0.0899
 4361TIP3    H113089   6.272   4.738   1.498  2.0640  0.4752 -0.2222
 4361TIP3    H213090   6.207   4.624   1.422 -0.3111  0.1362  2.1780
 4362TIP3   OH213091   0.473   2.438   5.138 -0.1175 -0.3008 -0.4752
 4362TIP3    H113092   0.532   2.512   5.152 -1.6877  0.9370 -0.0539
 4362TIP3    H213093   0.432   2.456   5.053 -1.5422  0.1041  0.2597
 4363TIP3   OH213094   3.881   3.968   2.052  0.5341  0.0325 -0.3489
 4363TIP3    H113095   3.917   4.054   2.032  0.1242 -0.1068 -1.7572
 4363TIP3    H213096   3.809   3.956   1.991 -1.9583  0.2513  2.3095
 4364TIP3   OH213097   0.075   4.103   2.935 -0.2007  0.5142  0.2790
 4364TIP3    H113098   0.067   4.182   2.988  1.3352  0.2348  0.9744
 4364TIP3    H213099   0.105   4.134   2.850  2.9139  0.5675  1.2750
 4365TIP3   OH213100   3.665   3.543   2.804 -0.2677 -0.3791 -0.0121
 4365TIP3    H113101   3.594   3.519   2.864 -1.0927 -2.1438 -1.6004
 4365TIP3    H213102   3.622   3.586   2.731  0.6470  1.0515  0.2406
 4366TIP3   OH213103   4.688   3.899   3.141 -0.6135 -0.0041 -0.0959
 4366TIP3    H113104   4.593   3.901   3.145 -0.6008  1.5598  0.1939
 4366TIP3    H213105   4.713   3.820   3.188 -1.7120  0.6469  1.6763
 4367TIP3   OH213106   2.973   1.172   0.697  0.0734 -0.1460 -0.6569
 4367TIP3    H113107   3.002   1.082   0.685  1.2235 -0.0570  0.9981
 4367TIP3    H213108   2.895   1.165   0.753  0.5304 -0.1050 -0.0021
 4368TIP3   OH213109   0.421   1.363   4.028  0.0714 -0.5590  0.1844
 4368TIP3    H113110   0.481   1.434   4.050  1.0041 -0.6521 -1.8135
 4368TIP3    H213111   0.336   1.391   4.062  0.4175  1.5168 -0.5227
 4369TIP3   OH213112   4.169   3.106   2.595  0.5707 -0.4522 -0.0512
 4369TIP3    H113113   4.082   3.093   2.633  1.2304  0.9196  2.1168
 4369TIP3    H213114   4.159   3.182   2.537  0.1993 -0.7218 -0.3497
 4370TIP3   OH213115   3.124   3.773   4.527  0.5206 -0.2539  0.0919
 4370TIP3    H113116   3.051   3.823   4.565  0.3778  0.8007 -1.4481
 4370TIP3    H213117   3.116   3.686   4.565 -1.0977  0.0538  0.5420
 4371TIP3   OH213118   0.839   4.907   0.061  0.1952  0.5192 -0.1543
 4371TIP3    H113119   0.922   4.864   0.081  0.2889 -0.0127 -1.5691
 4371TIP3    H213120   0.864   4.990   0.020  0.0366  0.3663 -0.5659
 4372TIP3   OH213121   2.582   5.708   0.462 -0.4078  0.2739 -0.7345
 4372TIP3    H113122   2.609   5.779   0.404 -0.0408 -0.4723 -1.5061
 4372TIP3    H213123   2.664   5.670   0.492 -0.5906 -0.4219 -1.0917
 4373TIP3   OH213124   0.674   1.700   1.248  0.2279  0.4144  0.7507
 4373TIP3    H113125   0.644   1.751   1.324  2.3290  0.5240  1.5681
 4373TIP3    H213126   0.641   1.749   1.173 -0.0364  1.5336  1.5578
 4374TIP3   OH213127   5.721   2.424   2.233  0.0890 -0.0635  0.7293
 4374TIP3    H113128   5.687   2.383   2.153 -0.0776 -0.3496  0.9436
 4374TIP3    H213129   5.696   2.516   2.225  0.8488  0.0960  0.0369
 4375TIP3   OH213130   0.025   4.113   4.943  0.0988  0.2270  0.2305
 4375TIP3    H113131   0.024   4.092   5.037 -0.6592 -0.5831  0.0562
 4375TIP3    H213132   0.114   4.142   4.926 -0.0831  1.6159  1.4652
 4376TIP3   OH213133   6.172   2.435   2.220 -0.1539  0.0279 -0.0447
 4376TIP3    H113134   6.102   2.443   2.156  0.6365  0.0475 -0.9264
 4376TIP3    H213135   6.206   2.524   2.230 -0.1732  0.0002  0.2926
 4377TIP3   OH213136   1.416   0.701   3.453  0.6441 -0.6513 -0.4021
 4377TIP3    H113137   1.358   0.643   3.502 -0.6195  0.3129 -0.7189
 4377TIP3    H213138   1.490   0.717   3.512  0.2987 -1.3930  0.2430
 4378TIP3   OH213139   6.004   5.965   4.125 -0.0016  0.1333 -0.1364
 4378TIP3    H113140   6.014   5.907   4.200 -0.3906 -0.8019 -0.7788
 4378TIP3    H213141   6.074   5.939   4.065 -1.4221 -1.1557 -1.3312
 4379TIP3   OH213142   2.548   0.284   1.400  0.0577 -0.1813 -0.7688
 4379TIP3    H113143   2.504   0.308   1.481 -0.2744  1.2004 -1.3248
 4379TIP3    H213144   2.634   0.253   1.427 -0.5358 -1.0429  0.1901
 4380TIP3   OH213145   3.453   4.070   2.967 -0.1462 -0.0869  0.0516
 4380TIP3    H113146   3.478   4.004   2.902  0.8105 -0.1020  0.4299
 4380TIP3    H213147   3.462   4.025   3.051 -0.2333  0.3025  0.2700
 4381TIP3   OH213148   0.400   3.270   2.441 -0.2800 -0.3168  0.2121
 4381TIP3    H113149   0.484   3.227   2.457 -0.6886 -1.7320 -1.2167
 4381TIP3    H213150   0.338   3.225   2.499 -0.2239  0.1883  0.6775
 4382TIP3   OH213151   3.607   1.408   0.740 -0.0003  0.2599 -0.3730
 4382TIP3    H113152   3.597   1.410   0.835  0.0459  0.5616 -0.3726
 4382TIP3    H213153   3.695   1.444   0.724  0.9328 -1.8823 -0.3992
 4383TIP3   OH213154   0.661   1.457   1.100  0.2738 -0.2327 -0.2307
 4383TIP3    H113155   0.673   1.536   1.153  3.1019 -0.4840 -0.3351
 4383TIP3    H213156   0.646   1.489   1.011 -1.5261  0.1463  0.1594
 4384TIP3   OH213157   1.017   2.412   2.405 -0.1753  0.4065  0.1603
 4384TIP3    H113158   1.028   2.336   2.463 -0.6950  0.5902  0.5089
 4384TIP3    H213159   1.007   2.486   2.465  0.0570  0.7108 -0.1758
 4385TIP3   OH213160   1.894   2.332   1.343 -0.2080 -0.9847  0.4063
 4385TIP3    H113161   1.944   2.368   1.416  2.1222 -1.1778 -0.9730
 4385TIP3    H213162   1.893   2.402   1.277  1.3992 -2.1598 -0.9575
 4386TIP3   OH213163   3.632   4.451   0.155 -0.0693 -0.2304 -0.0643
 4386TIP3    H113164   3.609   4.361   0.177 -0.3936 -0.0337  0.4079
 4386TIP3    H213165   3.727   4.450   0.145 -0.1541 -0.7897 -0.8417
 4387TIP3   OH213166   1.428   5.669   2.064  0.6319 -0.2327  0.0177
 4387TIP3    H113167   1.468   5.594   2.021 -1.8510 -0.5674 -1.9503
 4387TIP3    H213168   1.339   5.641   2.086  0.7365  1.0477  2.4892
 4388TIP3   OH213169   1.868   2.864   1.876  0.0174 -0.5527 -0.4299
 4388TIP3    H113170   1.795   2.811   1.909 -0.6947 -0.3441 -1.5794
 4388TIP3    H213171   1.907   2.903   1.954 -1.4445 -0.2447  0.1829
 4389TIP3   OH213172   5.868   6.023   3.137 -0.5373 -0.4640 -0.0873
 4389TIP3    H113173   5.909   6.000   3.221 -0.7318 -1.8989 -0.3631
 4389TIP3    H213174   5.897   5.954   3.077 -1.3243 -0.0846 -0.9118
 4390TIP3   OH213175   0.648   0.476   1.774  0.3511  0.6620  0.0759
 4390TIP3    H113176   0.606   0.550   1.730  0.3916 -0.1735 -1.4388
 4390TIP3    H213177   0.740   0.482   1.748  0.0083 -1.0725 -1.8820
 4391TIP3   OH213178   4.038   3.015   3.774 -0.0923  0.6014  0.6266
 4391TIP3    H113179   4.087   2.953   3.828  2.1427  0.7900 -1.0623
 4391TIP3    H213180   3.985   2.960   3.717  0.0097  0.3291  0.7922
 4392TIP3   OH213181   1.894   0.237   1.813  0.3478  0.2693 -0.0918
 4392TIP3    H113182   1.855   0.292   1.745  0.7183  1.5770  0.7165
 4392TIP3    H213183   1.944   0.298   1.867  1.2839 -0.9681  0.4802
 4393TIP3   OH213184   4.769   4.188   4.847 -0.0191  0.5609  0.4020
 4393TIP3    H113185   4.725   4.217   4.927  0.0652  1.1925  0.2233
 4393TIP3    H213186   4.705   4.132   4.803 -0.7619  1.7008  0.0028
 4394TIP3   OH213187   0.323   2.760   1.046 -0.1536 -0.7926 -0.2366
 4394TIP3    H113188   0.350   2.807   1.125  1.7390 -0.1162 -1.2295
 4394TIP3    H213189   0.232   2.736   1.063  0.0457 -0.2544  1.9414
 4395TIP3   OH213190   3.459   1.488   1.430  0.0815 -0.2729  0.0550
 4395TIP3    H113191   3.391   1.505   1.365 -0.2555 -1.9322 -0.0774
 4395TIP3    H213192   3.428   1.532   1.509 -0.4549  0.1601 -0.3895
 4396TIP3   OH213193   3.991   0.403   4.472 -0.0476 -0.4144  0.7736
 4396TIP3    H113194   4.069   0.435   4.518  1.3178 -2.1355 -0.2023
 4396TIP3    H213195   3.929   0.382   4.541  0.0260  1.7055  1.5444
 4397TIP3   OH213196   0.558   1.937   5.207  0.2520 -0.1938 -0.2828
 4397TIP3    H113197   0.563   2.026   5.241 -1.3719  0.4418 -1.5539
 4397TIP3    H213198   0.550   1.948   5.112 -2.3645 -1.5280 -0.3122
 4398TIP3   OH213199   2.605   2.698   4.254  0.3722 -0.0760  0.0251
 4398TIP3    H113200   2.671   2.763   4.228 -0.8653  0.6825 -1.4063
 4398TIP3    H213201   2.583   2.721   4.344 -0.8663  2.3262 -0.7867
 4399TIP3   OH213202   2.771   1.849   4.830  0.2836 -0.2652 -0.2272
 4399TIP3    H113203   2.693   1.854   4.774 -1.0901 -0.1045  1.5761
 4399TIP3    H213204   2.790   1.940   4.853  0.2931 -0.3846  0.2471
 4400TIP3   OH213205   0.709   5.541   4.750  0.2987  0.3907  0.2831
 4400TIP3    H113206   0.682   5.463   4.797  1.2484 -0.8720 -1.1646
 4400TIP3    H213207   0.709   5.610   4.816  0.3598 -1.0180  1.8290
 4401TIP3   OH213208   1.991   3.335   2.475  0.0216  0.1201  0.5151
 4401TIP3    H113209   2.077   3.365   2.446 -0.1188 -0.0927 -0.1393
 4401TIP3    H213210   1.937   3.338   2.396 -0.3000 -0.7268  0.6885
 4402TIP3   OH213211   2.947   1.400   1.322 -0.0038  0.1122 -0.4754
 4402TIP3    H113212   3.030   1.354   1.309  0.7937  1.2922  0.2260
 4402TIP3    H213213   2.956   1.480   1.269  0.3918  1.4969  1.5775
 4403TIP3   OH213214   2.534   4.832   4.731 -0.5956  0.0704 -0.1585
 4403TIP3    H113215   2.568   4.844   4.819 -0.8587  0.8147 -0.1521
 4403TIP3    H213216   2.586   4.890   4.676  0.7657 -1.6753 -0.8190
 4404TIP3   OH213217   6.164   4.852   2.680 -0.3817 -0.0679 -0.3220
 4404TIP3    H113218   6.257   4.847   2.703 -0.0532  0.7323 -1.3889
 4404TIP3    H213219   6.160   4.824   2.589 -1.5903 -2.7081  0.4725
 4405TIP3   OH213220   2.625   3.059   2.043  0.1693  0.4326 -0.1238
 4405TIP3    H113221   2.589   3.008   2.116 -1.2126  0.1328 -0.9835
 4405TIP3    H213222   2.651   3.142   2.084 -1.7833  0.7806  0.5430
 4406TIP3   OH213223   5.362   3.431   3.563  0.0799  0.5605  0.4203
 4406TIP3    H113224   5.316   3.349   3.545  0.5862  0.4075 -0.2603
 4406TIP3    H213225   5.452   3.403   3.582  0.1607  0.9308  0.5816
 4407TIP3   OH213226   4.941   4.946   2.005  0.1656 -0.1498 -0.0628
 4407TIP3    H113227   4.881   4.888   1.959  0.3687  0.3884 -1.0127
 4407TIP3    H213228   5.028   4.919   1.976  0.2377  1.0573 -1.0430
 4408TIP3   OH213229   6.342   5.290   2.700 -0.1389  0.0906  0.1077
 4408TIP3    H113230   6.257   5.247   2.708 -0.2788  0.2293 -0.6185
 4408TIP3    H213231   6.323   5.384   2.706  0.2040  0.0950  2.0565
 4409TIP3   OH213232   4.260   2.082   4.205  0.5769 -0.7059  0.1514
 4409TIP3    H113233   4.213   1.999   4.192  1.4400 -1.3091  0.7444
 4409TIP3    H213234   4.345   2.056   4.242  0.5084  0.5001  1.2447
 4410TIP3   OH213235   1.510   5.016   2.556  0.1187 -0.0613 -0.1325
 4410TIP3    H113236   1.555   5.007   2.472  0.2952 -0.0873 -0.0349
 4410TIP3    H213237   1.514   4.929   2.595 -1.5700 -0.5209 -0.9031
 4411TIP3   OH213238   4.950   4.452   2.652  0.2349  0.1695  0.1611
 4411TIP3    H113239   4.956   4.491   2.565 -1.5051  0.4391  0.1338
 4411TIP3    H213240   4.912   4.366   2.638 -1.0531  0.6215  0.7249
 4412TIP3   OH213241   6.032   2.892   4.801 -0.2202  0.5011  0.6847
 4412TIP3    H113242   5.954   2.933   4.762 -1.3127 -1.5523  0.6026
 4412TIP3    H213243   6.008   2.877   4.892  0.3493  0.4907  0.8328
 4413TIP3   OH213244   0.030   4.601   4.462  0.4049 -0.7134  0.2064
 4413TIP3    H113245   0.094   4.599   4.532  1.0027  0.1811 -0.3000
 4413TIP3    H213246   0.075   4.565   4.386  0.9127  1.5042 -0.6055
 4414TIP3   OH213247   2.513   3.464   4.608 -0.2940  0.0618  0.5801
 4414TIP3    H113248   2.470   3.406   4.544  1.0840  0.1678 -0.4883
 4414TIP3    H213249   2.606   3.454   4.590 -0.0075  2.3776  0.5673
 4415TIP3   OH213250   1.126   2.273   1.371 -0.5004  0.1730 -0.4436
 4415TIP3    H113251   1.194   2.215   1.403 -0.7533  0.9171  1.6164
 4415TIP3    H213252   1.165   2.361   1.374 -1.0738  0.4486 -0.6620
 4416TIP3   OH213253   2.717   5.969   2.732  0.1213 -0.4767 -0.2006
 4416TIP3    H113254   2.735   5.970   2.826 -0.2600  0.6028 -0.1288
 4416TIP3    H213255   2.770   6.040   2.697  0.6898 -1.2189 -0.9072
 4417TIP3   OH213256   3.740   4.720   2.876  0.4574  0.0050  0.4313
 4417TIP3    H113257   3.766   4.628   2.869  1.3503  0.0407  2.5164
 4417TIP3    H213258   3.817   4.763   2.914 -0.6067  1.2408  1.2679
 4418TIP3   OH213259   3.592   1.603   3.571  0.3033 -0.4847  0.5408
 4418TIP3    H113260   3.558   1.641   3.652 -0.1647 -1.2325  0.7005
 4418TIP3    H213261   3.687   1.605   3.581  0.3880  1.8937 -0.0198
 4419TIP3   OH213262   3.490   5.006   1.538  0.0905  0.4139  0.1043
 4419TIP3    H113263   3.510   4.915   1.559  1.1225  0.0477 -2.1794
 4419TIP3    H213264   3.400   5.018   1.569  0.2243 -1.1079  1.1979
 4420TIP3   OH213265   2.897   0.572   3.772  0.2669 -0.2895  0.4042
 4420TIP3    H113266   2.922   0.546   3.683 -1.5716 -2.0942  0.3484
 4420TIP3    H213267   2.817   0.624   3.761  0.4842  0.1793  0.9688
 4421TIP3   OH213268   1.170   5.798   4.369 -0.0402 -0.7755 -0.1673
 4421TIP3    H113269   1.113   5.819   4.295 -0.7929 -2.1065  0.0047
 4421TIP3    H213270   1.189   5.704   4.359  0.4298 -0.8093  0.9253
 4422TIP3   OH213271   4.636   2.008   4.558  0.2017 -0.1502 -0.0949
 4422TIP3    H113272   4.609   2.041   4.472  0.2494  0.6698  0.1950
 4422TIP3    H213273   4.560   1.959   4.589 -0.2330  0.4840 -0.1359
 4423TIP3   OH213274   1.346   2.444   3.724 -0.6435 -0.1752 -0.6301
 4423TIP3    H113275   1.386   2.379   3.666 -1.1025 -1.0514  0.0124
 4423TIP3    H213276   1.419   2.483   3.771 -0.4763 -1.5006  0.2631
 4424TIP3   OH213277   4.300   4.237   2.089 -0.0689 -0.2297 -1.1900
 4424TIP3    H113278   4.268   4.151   2.115  1.0666  0.1409  1.8997
 4424TIP3    H213279   4.230   4.297   2.114  0.2183 -0.0403 -0.8267
 4425TIP3   OH213280   6.117   3.273   2.117  0.5565  0.1664  0.1186
 4425TIP3    H113281   6.025   3.248   2.123  0.5660  0.0222 -0.3139
 4425TIP3    H213282   6.125   3.315   2.032  0.8984  0.1588  0.1468
 4426TIP3   OH213283   4.720   0.173   2.933 -0.5263 -0.2384 -0.1983
 4426TIP3    H113284   4.654   0.105   2.918  0.3852 -1.2521  0.2413
 4426TIP3    H213285   4.684   0.227   3.004 -0.4406 -1.4176  0.7782
 4427TIP3   OH213286   5.522   2.945   4.009 -0.0094 -0.1312 -0.0525
 4427TIP3    H113287   5.542   2.952   4.103 -0.7227 -0.0970  0.1025
 4427TIP3    H213288   5.607   2.932   3.968  0.3335  0.0247  0.5848
 4428TIP3   OH213289   3.786   4.501   0.541 -0.6171  0.1833 -0.2147
 4428TIP3    H113290   3.784   4.543   0.627 -2.8681  2.8237 -1.3834
 4428TIP3    H213291   3.708   4.445   0.540 -0.6946  0.2928 -0.5581
 4429TIP3   OH213292   0.866   2.611   1.167  0.4481 -0.1219 -0.3202
 4429TIP3    H113293   0.850   2.520   1.192 -1.3569 -0.3221 -1.9879
 4429TIP3    H213294   0.824   2.662   1.236  2.5114 -0.4372  1.2937
 4430TIP3   OH213295   5.531   1.596   4.887 -0.1141  0.3777 -0.0226
 4430TIP3    H113296   5.579   1.679   4.888 -1.4961  1.2289  2.3708
 4430TIP3    H213297   5.443   1.619   4.916 -0.0859 -2.1439  2.3890
 4431TIP3   OH213298   0.163   3.093   0.796  0.0590 -0.5093 -0.4142
 4431TIP3    H113299   0.213   3.169   0.766 -1.5538  0.9450  0.4022
 4431TIP3    H213300   0.173   3.093   0.891 -1.2867 -0.3077 -0.2522
 4432TIP3   OH213301   3.579   2.684   2.423 -0.7171  0.5542 -0.8566
 4432TIP3    H113302   3.600   2.777   2.429 -0.2014  0.4562 -1.0365
 4432TIP3    H213303   3.523   2.676   2.346 -1.0128  0.7558 -0.6634
 4433TIP3   OH213304   5.349   3.489   3.845 -0.2599  0.0845  0.5031
 4433TIP3    H113305   5.327   3.472   3.753 -1.5231  0.3608  0.7393
 4433TIP3    H213306   5.311   3.415   3.892  2.0509 -1.1222  0.6650
 4434TIP3   OH213307   5.023   1.296   1.046 -0.0669  0.0165  0.1727
 4434TIP3    H113308   5.063   1.352   0.979  1.3529 -0.0168  0.9639
 4434TIP3    H213309   5.025   1.208   1.007  2.8498 -0.4143  1.0559
 4435TIP3   OH213310   4.721   4.934   2.694  0.5062 -0.1543  0.2098
 4435TIP3    H113311   4.655   4.966   2.756  0.7402  0.0320  0.3645
 4435TIP3    H213312   4.752   5.012   2.649  0.6180 -0.2411  0.1342
 4436TIP3   OH213313   4.300   5.330   2.550 -0.0750  0.6039 -0.3322
 4436TIP3    H113314   4.383   5.286   2.570 -0.8876 -0.3340  1.1006
 4436TIP3    H213315   4.287   5.313   2.457  0.8230 -0.1665 -0.3398
 4437TIP3   OH213316   2.962   5.209   3.674 -0.3046 -0.2807 -0.2022
 4437TIP3    H113317   2.973   5.284   3.615 -0.5712  0.2870  0.4510
 4437TIP3    H213318   2.979   5.133   3.619 -0.9968  0.2050 -1.1352
 4438TIP3   OH213319   2.905   0.091   0.295  0.4774 -0.0440 -0.5518
 4438TIP3    H113320   2.901   0.185   0.278  1.0806 -0.1074 -1.0642
 4438TIP3    H213321   2.948   0.084   0.381 -0.2163  0.1707 -0.1836
 4439TIP3   OH213322   3.626   3.792   2.340 -0.2356 -0.3443  0.1402
 4439TIP3    H113323   3.673   3.765   2.261 -1.5020  1.2624 -1.2318
 4439TIP3    H213324   3.653   3.883   2.354  0.1048 -0.6587  1.6920
 4440TIP3   OH213325   2.155   3.044   5.167 -0.3190  0.5006 -0.2626
 4440TIP3    H113326   2.166   3.052   5.262  0.1829 -0.4599 -0.2211
 4440TIP3    H213327   2.194   3.123   5.131  1.4722 -0.0936  0.2367
 4441TIP3   OH213328   0.180   5.415   1.628  0.6084  0.3073  0.1401
 4441TIP3    H113329   0.141   5.474   1.564  0.4966  1.8712  1.5913
 4441TIP3    H213330   0.106   5.382   1.679  0.8048 -0.0534  0.2021
 4442TIP3   OH213331   0.885   5.500   0.838 -0.4974 -0.7156 -0.2839
 4442TIP3    H113332   0.799   5.466   0.863 -1.3961  2.4231  1.4835
 4442TIP3    H213333   0.867   5.563   0.768  0.1356  0.9235  0.9752
 4443TIP3   OH213334   1.933   1.318   4.214 -0.3032 -0.8986  0.4908
 4443TIP3    H113335   1.930   1.229   4.247 -0.4129 -1.5061 -1.0678
 4443TIP3    H213336   2.024   1.346   4.226 -0.2709 -1.2122  0.9777
 4444TIP3   OH213337   4.757   5.476   3.775 -0.3256  0.0470  0.0977
 4444TIP3    H113338   4.763   5.423   3.695 -0.1768 -0.1837  0.2579
 4444TIP3    H213339   4.794   5.419   3.843 -2.1890 -0.5009  0.7006
 4445TIP3   OH213340   5.311   4.757   2.112  0.4514  0.0643  0.1636
 4445TIP3    H113341   5.405   4.774   2.107  0.0505  2.3252 -3.3830
 4445TIP3    H213342   5.300   4.671   2.072  1.0424 -0.8964  1.9510
 4446TIP3   OH213343   0.408   5.652   2.543  0.2282  0.4296 -0.8157
 4446TIP3    H113344   0.486   5.598   2.545 -1.6073 -2.5535 -2.6094
 4446TIP3    H213345   0.374   5.649   2.633  0.7672 -0.4711 -0.6335
 4447TIP3   OH213346   2.537   5.654   0.816 -0.3713  0.1007  0.4629
 4447TIP3    H113347   2.489   5.718   0.765 -0.9436 -1.9369 -1.7132
 4447TIP3    H213348   2.621   5.646   0.771 -0.0423 -0.2065  1.1124
 4448TIP3   OH213349   3.972   5.602   3.736 -0.2708  0.3916 -0.2795
 4448TIP3    H113350   4.000   5.516   3.767 -0.6446  0.5459  0.5205
 4448TIP3    H213351   3.983   5.599   3.641 -1.0448 -0.8332 -0.3466
 4449TIP3   OH213352   1.509   3.663   2.903  0.4082  0.1592 -0.3579
 4449TIP3    H113353   1.594   3.691   2.868  0.7225 -0.3137  0.0219
 4449TIP3    H213354   1.455   3.651   2.825  0.4579  1.1731 -0.5742
 4450TIP3   OH213355   3.361   1.364   4.238 -0.2476 -0.7834 -0.2198
 4450TIP3    H113356   3.328   1.442   4.194 -0.3980 -0.7043  0.0300
 4450TIP3    H213357   3.286   1.305   4.242  0.3109 -1.6974 -2.0443
 4451TIP3   OH213358   3.033   0.982   4.155  0.1016  0.4226  0.3825
 4451TIP3    H113359   2.947   0.974   4.114  0.4353  1.6799 -0.6240
 4451TIP3    H213360   3.016   0.974   4.249 -1.2726  1.7828  0.2779
 4452TIP3   OH213361   5.884   5.146   3.180 -0.3435  0.2595 -0.0200
 4452TIP3    H113362   5.923   5.227   3.146 -0.0359 -0.2332 -0.8699
 4452TIP3    H213363   5.956   5.083   3.180 -1.1123 -0.6848 -1.6800
 4453TIP3   OH213364   4.741   0.049   0.585 -0.1043 -0.3150 -0.0498
 4453TIP3    H113365   4.805   0.114   0.612  1.3342 -1.5317 -0.4342
 4453TIP3    H213366   4.711   0.079   0.499 -0.0151  0.2298  0.1054
 4454TIP3   OH213367   1.845   1.489   2.581  0.3003  0.3398 -0.4530
 4454TIP3    H113368   1.799   1.424   2.634  1.4909 -0.0245  0.1798
 4454TIP3    H213369   1.923   1.443   2.549  2.3413  1.9803  1.7986
 4455TIP3   OH213370   5.376   0.692   0.857 -0.4916 -0.1779 -0.3859
 4455TIP3    H113371   5.343   0.602   0.854 -0.1137 -0.3031 -0.8518
 4455TIP3    H213372   5.299   0.747   0.841 -0.7448 -0.4114  0.0149
 4456TIP3   OH213373   4.926   5.656   4.985 -0.1325  0.4087  0.4856
 4456TIP3    H113374   4.987   5.615   5.047  0.5474  0.0102 -0.4222
 4456TIP3    H213375   4.980   5.718   4.937 -0.0287 -1.0928 -1.4358
 4457TIP3   OH213376   3.549   3.231   4.874 -0.1025  0.1560  0.4482
 4457TIP3    H113377   3.454   3.218   4.882 -0.2510  1.6993  1.4576
 4457TIP3    H213378   3.587   3.172   4.939 -0.4866  0.9547  1.4172
 4458TIP3   OH213379   5.409   4.162   4.356 -0.2245 -0.2059 -0.0497
 4458TIP3    H113380   5.490   4.145   4.405 -0.2805  1.6624  0.7611
 4458TIP3    H213381   5.375   4.243   4.393 -0.5280  1.0808 -2.8783
 4459TIP3   OH213382   1.753   3.694   4.449 -0.1737  0.1698  0.0576
 4459TIP3    H113383   1.739   3.683   4.355  0.2594  1.8337 -0.2455
 4459TIP3    H213384   1.844   3.670   4.463 -0.6142 -1.4166  0.3176
 4460TIP3   OH213385   0.772   1.574   3.911 -0.2453  0.0007 -0.0848
 4460TIP3    H113386   0.724   1.635   3.855 -0.0778  0.0430 -0.1832
 4460TIP3    H213387   0.730   1.582   3.996 -0.7335 -0.3323 -0.2918
 4461TIP3   OH213388   1.883   1.084   2.586  0.2566  0.3133 -0.4817
 4461TIP3    H113389   1.825   1.155   2.613 -0.2288 -0.1497 -0.2908
 4461TIP3    H213390   1.914   1.046   2.669 -1.5211 -1.3511 -0.5019
 4462TIP3   OH213391   2.839   0.969   3.720  0.0637 -0.5723  0.2733
 4462TIP3    H113392   2.773   1.037   3.729  0.9452  0.3350  0.0910
 4462TIP3    H213393   2.792   0.887   3.732 -0.8275  0.1119  1.6313
 4463TIP3   OH213394   5.331   2.429   3.627 -0.2547 -0.0005  0.2071
 4463TIP3    H113395   5.295   2.516   3.604  0.0342  0.1777  0.4315
 4463TIP3    H213396   5.304   2.373   3.554  0.3055  0.4749 -0.3738
 4464TIP3   OH213397   3.169   3.817   0.334  0.5420  0.6914 -0.3588
 4464TIP3    H113398   3.106   3.826   0.263  0.1397 -0.0806 -0.1094
 4464TIP3    H213399   3.255   3.825   0.291  0.3051  2.4083 -0.6106
 4465TIP3   OH213400   2.467   3.452   1.500 -0.2196 -0.1305  0.4931
 4465TIP3    H113401   2.505   3.406   1.425 -0.4363  0.1491  0.2119
 4465TIP3    H213402   2.542   3.477   1.553  0.0701  1.2475 -0.5297
 4466TIP3   OH213403   1.923   3.559   3.231 -0.2064 -0.0291 -0.0174
 4466TIP3    H113404   1.873   3.512   3.297 -0.3635 -0.2375 -0.2856
 4466TIP3    H213405   1.870   3.553   3.151  0.9086 -1.5341 -0.7014
 4467TIP3   OH213406   1.786   4.433   4.275  0.4864 -0.8336 -0.4098
 4467TIP3    H113407   1.833   4.350   4.270  1.6851 -0.3310  1.5631
 4467TIP3    H213408   1.809   4.470   4.360 -2.0286  0.3453 -0.1247
 4468TIP3   OH213409   4.802   4.795   1.325 -0.5736 -0.1178 -0.4433
 4468TIP3    H113410   4.895   4.814   1.327 -0.4952 -0.5126 -0.0564
 4468TIP3    H213411   4.796   4.713   1.275 -0.7135 -0.0972 -0.4604
 4469TIP3   OH213412   3.979   5.443   4.758  0.2551 -0.1315  0.3230
 4469TIP3    H113413   4.063   5.414   4.795 -0.0990 -1.2864  0.2575
 4469TIP3    H213414   3.914   5.396   4.810 -0.2642 -1.8331 -1.7636
 4470TIP3   OH213415   5.853   2.853   0.436 -0.6900  0.2012 -0.0730
 4470TIP3    H113416   5.830   2.768   0.474 -1.5352  0.3723 -0.1958
 4470TIP3    H213417   5.921   2.832   0.371 -0.2445 -0.2603  0.5320
 4471TIP3   OH213418   0.892   0.803   4.209  0.5038 -0.0217 -0.0883
 4471TIP3    H113419   0.834   0.874   4.238  0.5281 -0.4853  1.1106
 4471TIP3    H213420   0.858   0.779   4.122  0.0173  0.9227 -0.1715
 4472TIP3   OH213421   2.545   4.534   0.679  0.3066  0.1856 -0.4178
 4472TIP3    H113422   2.640   4.523   0.670  0.3136 -0.0810 -0.0529
 4472TIP3    H213423   2.534   4.623   0.711  0.4471  0.1604 -0.2985
 4473TIP3   OH213424   5.515   0.785   2.375  0.1758  0.1947  0.3016
 4473TIP3    H113425   5.527   0.701   2.419  0.1278  0.9963  1.9066
 4473TIP3    H213426   5.455   0.833   2.431  0.1218  1.2754 -0.6479
 4474TIP3   OH213427   5.736   3.444   1.477  0.6599  0.4815  0.0574
 4474TIP3    H113428   5.830   3.461   1.464  0.8703  0.2323  1.1420
 4474TIP3    H213429   5.694   3.528   1.461  1.0236  0.5228 -0.7632
 4475TIP3   OH213430   2.397   0.622   4.389  0.0228  0.2197 -0.2119
 4475TIP3    H113431   2.371   0.710   4.415 -0.2836  0.2258 -0.5337
 4475TIP3    H213432   2.347   0.564   4.447 -0.2907  0.2438 -0.4571
 4476TIP3   OH213433   2.046   0.642   4.967  0.2669  0.2699  0.2555
 4476TIP3    H113434   2.100   0.718   4.945 -1.5019  1.4365 -0.2861
 4476TIP3    H213435   1.997   0.622   4.887 -1.3156  0.3302  1.1585
 4477TIP3   OH213436   3.793   3.266   3.053 -0.0395  0.5825  0.1072
 4477TIP3    H113437   3.712   3.296   3.095  0.3764  0.0181  1.3866
 4477TIP3    H213438   3.861   3.285   3.117  0.8655  1.1469 -1.0043
 4478TIP3   OH213439   3.214   4.758   1.621 -0.3775 -0.3014 -0.3237
 4478TIP3    H113440   3.250   4.782   1.706 -1.6417 -1.6148  0.6445
 4478TIP3    H213441   3.191   4.841   1.579 -0.5670  0.3419  1.0141
 4479TIP3   OH213442   5.574   2.533   3.492  0.0300 -0.4255  0.2839
 4479TIP3    H113443   5.531   2.566   3.413  0.1902 -0.6110  0.1159
 4479TIP3    H213444   5.506   2.484   3.538  0.3928 -1.8698 -0.6620
 4480TIP3   OH213445   5.231   4.371   0.280  0.1299  0.4759  0.0466
 4480TIP3    H113446   5.213   4.425   0.203 -0.0887 -0.3142 -0.4674
 4480TIP3    H213447   5.320   4.396   0.306 -0.1032  1.3421  0.0406
 4481TIP3   OH213448   3.320   0.005   2.808 -0.2075  0.0720  0.6669
 4481TIP3    H113449   3.345   0.029   2.898  0.2074  3.1736 -0.1346
 4481TIP3    H213450   3.228   0.028   2.802  0.1218  1.2864 -0.0625
 4482TIP3   OH213451   2.923   2.359   1.436  0.3357 -0.3203 -0.0611
 4482TIP3    H113452   2.979   2.395   1.367  1.2127  0.7898  1.1564
 4482TIP3    H213453   2.972   2.374   1.516 -0.2552 -2.3796  0.7488
 4483TIP3   OH213454   2.122   4.267   0.509 -0.0175  0.9597  0.2352
 4483TIP3    H113455   2.111   4.178   0.476 -3.0679  2.1235 -2.4135
 4483TIP3    H213456   2.213   4.288   0.493  0.1254 -0.7879 -1.5811
 4484TIP3   OH213457   2.081   1.735   2.173 -0.3961 -0.7048 -1.2048
 4484TIP3    H113458   2.022   1.770   2.106 -1.5828 -0.8867 -0.2983
 4484TIP3    H213459   2.027   1.734   2.253  1.4935  1.2393  0.2058
 4485TIP3   OH213460   1.551   2.633   3.820  0.7108 -0.4715  0.0895
 4485TIP3    H113461   1.560   2.710   3.876 -0.8732 -0.6162  0.5884
 4485TIP3    H213462   1.601   2.565   3.864  2.1709  0.2414 -0.3802
 4486TIP3   OH213463   5.496   0.288   3.949 -0.1839 -0.2441 -0.3230
 4486TIP3    H113464   5.458   0.330   4.026  0.6069  1.4614 -0.8235
 4486TIP3    H213465   5.430   0.299   3.880 -0.7175 -1.4103 -0.0216
 4487TIP3   OH213466   2.516   1.145   3.695 -0.4083 -0.3857 -0.4962
 4487TIP3    H113467   2.585   1.210   3.710  1.0452 -1.4711 -2.0781
 4487TIP3    H213468   2.461   1.186   3.627 -0.3505 -0.1970 -0.4315
 4488TIP3   OH213469   0.235   0.714   2.020 -0.3052  0.0249 -0.8344
 4488TIP3    H113470   0.266   0.804   2.013 -1.4536  0.4999 -0.1903
 4488TIP3    H213471   0.154   0.721   2.072 -0.2710 -1.4027 -0.5495
 4489TIP3   OH213472   3.571   5.888   3.280  0.2041 -0.0343  0.2953
 4489TIP3    H113473   3.646   5.884   3.221  1.3073  0.4885  1.5986
 4489TIP3    H213474   3.587   5.965   3.335 -1.7102  0.5723  0.0831
 4490TIP3   OH213475   0.385   3.434   0.297 -0.0164 -0.1638 -0.1192
 4490TIP3    H113476   0.397   3.528   0.312  0.9139 -0.2905 -0.0065
 4490TIP3    H213477   0.473   3.402   0.279 -0.3444 -1.0021 -0.2485
 4491TIP3   OH213478   1.846   2.859   3.141 -0.0352 -0.6063 -0.0563
 4491TIP3    H113479   1.809   2.816   3.219  0.8044  1.1053  1.3707
 4491TIP3    H213480   1.771   2.870   3.082 -1.0831 -0.3841  1.2572
 4492TIP3   OH213481   5.969   3.755   3.252  0.0333 -0.0588  0.0718
 4492TIP3    H113482   5.934   3.827   3.304  1.8823  2.8740 -2.4108
 4492TIP3    H213483   5.928   3.765   3.167  1.5536 -0.9350 -0.8042
 4493TIP3   OH213484   3.950   0.251   0.778  0.2676 -0.6849  0.1062
 4493TIP3    H113485   3.898   0.281   0.703 -0.5342  1.0484  1.2962
 4493TIP3    H213486   4.004   0.327   0.801  0.5744 -1.2217  1.2241
 4494TIP3   OH213487   2.244   2.325   2.453  0.5653  0.7664  0.5415
 4494TIP3    H113488   2.301   2.257   2.489  0.0362 -0.3340 -0.6132
 4494TIP3    H213489   2.253   2.316   2.358 -0.5044  1.4456  0.3601
 4495TIP3   OH213490   4.256   5.356   2.795  0.6254 -0.0153  0.4859
 4495TIP3    H113491   4.233   5.263   2.800 -1.1813  0.3808  0.1218
 4495TIP3    H213492   4.260   5.375   2.701 -3.0225  1.1359  0.4409
 4496TIP3   OH213493   1.276   3.852   0.208  0.1406 -0.0679  0.0023
 4496TIP3    H113494   1.265   3.809   0.124  1.4088  3.0896 -1.9462
 4496TIP3    H213495   1.286   3.780   0.271 -3.8111 -2.6636 -1.9095
 4497TIP3   OH213496   1.303   4.109   1.171 -0.0060  0.3701  0.0698
 4497TIP3    H113497   1.395   4.108   1.197  0.4731 -0.1920 -1.5564
 4497TIP3    H213498   1.272   4.020   1.190  0.0109  0.3251 -0.1090
 4498TIP3   OH213499   4.764   5.329   1.382  0.2444 -0.3265  0.0756
 4498TIP3    H113500   4.671   5.341   1.400  0.3447  0.5274  0.0996
 4498TIP3    H213501   4.804   5.410   1.413  1.0478 -0.8399  0.3971
 4499TIP3   OH213502   2.746   0.436   3.246  0.2611 -0.0111  0.3610
 4499TIP3    H113503   2.749   0.523   3.284  1.4433  0.3064 -0.4211
 4499TIP3    H213504   2.668   0.437   3.190 -0.5613  0.0429  1.4801
 4500TIP3   OH213505   0.702   0.024   4.913 -0.3504  0.9216  0.1074
 4500TIP3    H113506   0.778   0.071   4.947 -0.6614  1.5324 -0.0256
 4500TIP3    H213507   0.656   0.088   4.859  1.3297 -0.5897 -3.4067
 4501TIP3   OH213508   5.129   1.845   3.215  0.2295 -0.6576 -0.4432
 4501TIP3    H113509   5.097   1.926   3.174 -0.3006 -1.1972 -1.1129
 4501TIP3    H213510   5.219   1.865   3.240  0.7095 -0.4256 -2.2196
 4502TIP3   OH213511   1.146   2.354   0.294 -0.2576  0.1764 -0.6778
 4502TIP3    H113512   1.186   2.312   0.371  1.7757 -0.0413 -1.7632
 4502TIP3    H213513   1.206   2.425   0.272 -0.6314  0.0439 -2.2261
 4503TIP3   OH213514   5.951   4.326   1.606 -0.3002  0.8380  0.0346
 4503TIP3    H113515   6.019   4.292   1.665  1.0118  0.1336 -1.7916
 4503TIP3    H213516   5.927   4.251   1.552 -2.6903  1.0365  0.7059
 4504TIP3   OH213517   1.231   3.482   0.872 -0.8105 -0.1930 -0.2491
 4504TIP3    H113518   1.188   3.534   0.804 -0.4379 -1.4652 -1.4889
 4504TIP3    H213519   1.319   3.520   0.879 -0.7455 -0.2545 -0.7038
 4505TIP3   OH213520   4.629   2.554   3.563 -0.2287 -0.2200 -0.4829
 4505TIP3    H113521   4.564   2.525   3.499 -2.0808 -1.7394  1.9223
 4505TIP3    H213522   4.713   2.529   3.526 -0.9830  1.0411 -3.3101
 4506TIP3   OH213523   2.779   1.037   3.074  0.5923  0.8308  0.8597
 4506TIP3    H113524   2.741   1.054   3.160 -0.6799  0.5676  0.3769
 4506TIP3    H213525   2.728   1.091   3.014  1.2459  0.7587  0.2186
 4507TIP3   OH213526   1.903   3.392   2.046  0.2152 -0.6925  0.1189
 4507TIP3    H113527   1.843   3.465   2.060  2.9905  2.1087 -1.2140
 4507TIP3    H213528   1.848   3.322   2.013 -2.5871  0.8983  1.0340
 4508TIP3   OH213529   2.706   3.817   0.562  0.2446 -0.1305 -0.0678
 4508TIP3    H113530   2.702   3.859   0.476 -2.0253 -1.9236 -0.9444
 4508TIP3    H213531   2.773   3.749   0.552 -1.2916 -1.5790 -1.1267
 4509TIP3   OH213532   0.755   5.847   3.963  0.2352  0.2492  0.0186
 4509TIP3    H113533   0.817   5.848   3.889  1.0188  1.1110  0.6576
 4509TIP3    H213534   0.691   5.915   3.941 -0.7426 -0.9036 -0.8251
 4510TIP3   OH213535   0.228   0.904   2.811 -0.6015 -0.3505  0.2339
 4510TIP3    H113536   0.266   0.871   2.893  0.2241 -0.0865 -0.0289
 4510TIP3    H213537   0.167   0.836   2.783  1.5817 -2.0667 -0.6840
 4511TIP3   OH213538   4.437   5.064   0.353  0.1247 -0.1817 -0.1951
 4511TIP3    H113539   4.411   5.019   0.433 -1.2262 -0.3716 -0.7155
 4511TIP3    H213540   4.357   5.106   0.322  0.6920  0.1229 -1.3024
 4512TIP3   OH213541   4.173   5.348   2.018  0.5912  0.1781 -0.1406
 4512TIP3    H113542   4.243   5.358   2.083  0.7916  2.0425 -0.5945
 4512TIP3    H213543   4.218   5.350   1.933 -0.0032  1.5172 -0.4442
 4513TIP3   OH213544   1.663   5.413   3.000  0.0348 -0.1691 -0.5196
 4513TIP3    H113545   1.609   5.335   3.010 -2.8290  1.5178 -1.6216
 4513TIP3    H213546   1.714   5.397   2.921 -0.0821 -1.1476 -0.4092
 4514TIP3   OH213547   2.099   4.909   2.069 -0.1110 -0.1285 -0.2128
 4514TIP3    H113548   2.122   4.844   2.003  0.2206 -0.9093  0.6396
 4514TIP3    H213549   2.139   4.876   2.150  0.0379  1.1207  0.2524
 4515TIP3   OH213550   5.529   1.447   1.775  0.7435  0.1990 -0.1089
 4515TIP3    H113551   5.510   1.540   1.763  0.2642  0.0714 -0.3398
 4515TIP3    H213552   5.569   1.420   1.692 -0.0215 -0.0287 -0.4115
 4516TIP3   OH213553   3.727   0.006   0.390 -0.5992 -0.4903 -0.4356
 4516TIP3    H113554   3.678   0.059   0.453  1.1143  0.9264 -0.2336
 4516TIP3    H213555   3.791  -0.042   0.443  0.4203  0.2170 -1.0043
 4517TIP3   OH213556   4.839   2.983   4.109 -0.2811 -0.0022  0.3483
 4517TIP3    H113557   4.766   3.020   4.059 -0.4363 -0.1308  0.4782
 4517TIP3    H213558   4.831   3.023   4.196 -0.4392 -0.3256  0.4848
 4518TIP3   OH213559   3.443   4.231   0.816 -0.2826 -0.4885 -0.0853
 4518TIP3    H113560   3.530   4.231   0.775  0.3657 -0.3887  1.2171
 4518TIP3    H213561   3.388   4.282   0.757  1.0616  1.1927  0.0550
 4519TIP3   OH213562   3.710   1.693   1.920 -0.2006 -0.0007  0.3258
 4519TIP3    H113563   3.744   1.663   1.836  0.8231  2.1948 -0.1399
 4519TIP3    H213564   3.778   1.672   1.983 -0.2052 -0.1250  0.2882
 4520TIP3   OH213565   0.716   5.333   3.528  0.4602  0.3789  0.3437
 4520TIP3    H113566   0.690   5.424   3.543  0.5384  0.3614  0.5760
 4520TIP3    H213567   0.808   5.339   3.499  0.7102  0.3183  1.1037
 4521TIP3   OH213568   6.013   4.982   2.351  0.4710 -0.0280 -0.2459
 4521TIP3    H113569   5.937   4.924   2.358  0.5874 -0.3554 -1.5179
 4521TIP3    H213570   5.975   5.070   2.348  0.3270  0.0921  2.4683
 4522TIP3   OH213571   4.855   4.742   3.267  0.0671 -0.3707 -0.3230
 4522TIP3    H113572   4.822   4.773   3.183  0.4498 -1.5762 -0.9548
 4522TIP3    H213573   4.938   4.699   3.245  0.7954  0.3853  0.8622
 4523TIP3   OH213574   0.968   4.764   3.198 -0.1246  0.2126 -0.5426
 4523TIP3    H113575   1.007   4.769   3.110  1.5498 -1.2685  0.0570
 4523TIP3    H213576   0.974   4.672   3.221 -0.3389  0.6109  1.2342
 4524TIP3   OH213577   6.153   1.258   3.307 -0.3808  0.0932  0.0556
 4524TIP3    H113578   6.129   1.304   3.226 -0.5860  0.3114  0.2407
 4524TIP3    H213579   6.157   1.166   3.282 -1.3226  0.0568  0.0022
 4525TIP3   OH213580   1.944   5.603   5.150 -0.3517 -0.6790 -0.3461
 4525TIP3    H113581   1.939   5.577   5.058 -0.4797 -0.5360 -0.3799
 4525TIP3    H213582   2.016   5.665   5.153  0.4339 -1.5691 -0.1370
 4526TIP3   OH213583   3.038   5.397   3.227 -0.4322  0.0415  0.0313
 4526TIP3    H113584   3.060   5.488   3.209  0.9109 -0.2611  0.0537
 4526TIP3    H213585   3.115   5.347   3.199 -0.3265 -0.9132  1.8315
 4527TIP3   OH213586   1.726   3.927   2.085 -0.2429  0.6206 -0.0467
 4527TIP3    H113587   1.753   4.017   2.100  1.5511  0.4402 -1.7406
 4527TIP3    H213588   1.701   3.924   1.993  0.4829 -0.7651 -0.2287
 4528TIP3   OH213589   3.485   0.212   1.253 -0.6123  0.3008 -0.4091
 4528TIP3    H113590   3.446   0.125   1.260 -0.9871  0.4635 -0.4133
 4528TIP3    H213591   3.520   0.230   1.341  0.7747 -0.4494 -0.7931
 4529TIP3   OH213592   4.497   1.662   2.633 -0.1880 -0.0452 -0.2117
 4529TIP3    H113593   4.549   1.595   2.677 -0.2333 -1.2452 -1.8884
 4529TIP3    H213594   4.493   1.735   2.695  3.2370 -0.0006  0.1382
 4530TIP3   OH213595   5.512   4.995   1.830  0.1255 -0.0400  0.4896
 4530TIP3    H113596   5.482   4.905   1.816  1.7979 -0.3675 -1.3144
 4530TIP3    H213597   5.442   5.049   1.792  1.1043 -0.7597 -2.5916
 4531TIP3   OH213598   0.765   5.229   3.771 -0.0849  0.1246 -0.1749
 4531TIP3    H113599   0.836   5.170   3.747  0.6258  0.1466  1.7152
 4531TIP3    H213600   0.737   5.268   3.688  0.7730 -1.3497 -1.1972
 4532TIP3   OH213601   1.950   2.675   0.916  0.0601  0.3099 -0.5335
 4532TIP3    H113602   2.013   2.609   0.886 -0.8832 -0.1662 -1.5456
 4532TIP3    H213603   1.902   2.699   0.838  1.0409  2.9963 -0.3969
 4533TIP3   OH213604   0.290   4.158   4.523  0.1627 -0.0211 -0.2078
 4533TIP3    H113605   0.296   4.123   4.434  0.4968  1.3420 -0.7409
 4533TIP3    H213606   0.200   4.140   4.549 -0.6576  1.5324 -1.7073
 4534TIP3   OH213607   5.736   1.006   4.167  0.3696  0.0670  0.4296
 4534TIP3    H113608   5.825   1.013   4.203  0.8116  0.5037 -0.6952
 4534TIP3    H213609   5.745   0.947   4.093 -0.4686 -0.5701  0.8207
 4535TIP3   OH213610   3.112   2.369   0.156 -0.2560  0.3379 -0.0082
 4535TIP3    H113611   3.203   2.380   0.183  0.4545  0.2697 -2.1858
 4535TIP3    H213612   3.117   2.343   0.064 -2.4699 -0.1600 -0.0513
 4536TIP3   OH213613   4.891   1.137   2.341 -0.0831 -0.1690  0.7051
 4536TIP3    H113614   4.873   1.054   2.298  0.6288  0.0884 -0.1285
 4536TIP3    H213615   4.939   1.188   2.275  0.3501  0.5284  1.5413
 4537TIP3   OH213616   5.019   5.443   4.275  0.0990 -0.1025  0.2001
 4537TIP3    H113617   4.936   5.473   4.240  0.0295  3.1463  2.6348
 4537TIP3    H213618   4.999   5.361   4.319 -1.3343 -0.4109 -0.9655
 4538TIP3   OH213619   1.432   3.380   4.836  0.4145  0.2436 -0.0543
 4538TIP3    H113620   1.433   3.325   4.914 -0.5363  1.7921  1.1134
 4538TIP3    H213621   1.384   3.329   4.770  2.4159 -1.6706 -0.1628
 4539TIP3   OH213622   4.318   4.946   3.032  0.2824 -0.2874 -0.4439
 4539TIP3    H113623   4.291   4.857   3.012 -0.7926  0.2324 -1.4566
 4539TIP3    H213624   4.392   4.936   3.092 -0.3755 -1.8354  0.1711
 4540TIP3   OH213625   1.202   4.340   2.518 -0.4205  0.4424  0.5316
 4540TIP3    H113626   1.113   4.376   2.511 -0.9870 -1.0445 -0.2592
 4540TIP3    H213627   1.189   4.246   2.526  1.1440  0.0040 -1.3853
 4541TIP3   OH213628   0.522   1.355   3.521  0.5549 -0.3135  0.1682
 4541TIP3    H113629   0.517   1.400   3.605  1.3226  0.5556 -0.2315
 4541TIP3    H213630   0.611   1.371   3.491  0.0651  0.0284 -1.1644
 4542TIP3   OH213631   3.209   0.014   4.523 -0.4373  0.1178  0.3474
 4542TIP3    H113632   3.177  -0.062   4.475  1.5025  0.0134 -0.9030
 4542TIP3    H213633   3.216   0.083   4.458  3.6229 -0.4277 -0.0622
 4543TIP3   OH213634   2.521   0.432   0.550 -0.0041 -0.2945  0.5280
 4543TIP3    H113635   2.518   0.513   0.600 -1.1976 -0.8266  1.3424
 4543TIP3    H213636   2.478   0.367   0.606 -0.1631 -1.2100 -0.6214
 4544TIP3   OH213637   2.173   5.045   0.897 -0.3703 -0.4159 -0.6997
 4544TIP3    H113638   2.230   5.087   0.962  1.1050 -1.2140 -1.4255
 4544TIP3    H213639   2.112   4.992   0.949  0.7095 -0.9455  0.0486
 4545TIP3   OH213640   1.534   5.108   1.325  0.0094 -0.1827 -0.1942
 4545TIP3    H113641   1.537   5.013   1.316  1.1065 -0.0703 -1.4534
 4545TIP3    H213642   1.446   5.132   1.296  0.6659 -0.6197 -2.8603
 4546TIP3   OH213643   0.610   3.072   3.998 -0.4108 -0.7264  0.2146
 4546TIP3    H113644   0.677   3.008   3.975 -0.8385 -1.2334  0.3514
 4546TIP3    H213645   0.548   3.070   3.925  0.8584  1.3940 -1.0278
 4547TIP3   OH213646   3.709   4.611   2.446  0.0499  0.2399  0.2569
 4547TIP3    H113647   3.725   4.668   2.521 -1.0747  0.3978  0.4015
 4547TIP3    H213648   3.746   4.527   2.471 -1.6352 -0.1487  1.6670
 4548TIP3   OH213649   3.538   4.364   3.694 -0.0440 -0.1170 -0.6888
 4548TIP3    H113650   3.621   4.355   3.647  0.7926  0.4692  0.6077
 4548TIP3    H213651   3.529   4.282   3.742 -0.7525 -0.5977 -1.6078
 4549TIP3   OH213652   1.906   5.556   0.796 -1.0491 -0.0458 -0.5950
 4549TIP3    H113653   1.854   5.494   0.847 -0.6633 -1.3312 -1.6674
 4549TIP3    H213654   1.986   5.567   0.847 -1.9802  1.2799  0.6469
 4550TIP3   OH213655   3.349   2.283   4.823  0.0203  0.4871 -0.2733
 4550TIP3    H113656   3.316   2.263   4.735 -0.5422  0.0857  0.0142
 4550TIP3    H213657   3.444   2.288   4.813  0.0053 -0.1092 -0.8038
 4551TIP3   OH213658   3.589   4.831   5.170  0.7171  0.1176 -0.0493
 4551TIP3    H113659   3.647   4.881   5.228  1.7526  0.4509 -1.3284
 4551TIP3    H213660   3.639   4.753   5.148 -0.4547 -0.9854  1.0387
 4552TIP3   OH213661   2.139   3.231   4.068 -0.6083 -0.2770 -0.1427
 4552TIP3    H113662   2.183   3.162   4.118 -0.5330  0.0810  0.2993
 4552TIP3    H213663   2.200   3.305   4.072 -1.3342  0.2940  0.6501
 4553TIP3   OH213664   4.554   4.146   4.683 -0.3882  0.2411 -0.2235
 4553TIP3    H113665   4.584   4.083   4.618  3.2691  0.1789  1.2409
 4553TIP3    H213666   4.532   4.224   4.633 -1.4324 -0.9981 -1.7683
 4554TIP3   OH213667   5.935   5.873   2.914 -0.4902  0.3206 -0.2820
 4554TIP3    H113668   6.014   5.878   2.860 -0.5498  1.2872 -0.3008
 4554TIP3    H213669   5.881   5.946   2.883 -1.8220 -0.8934 -0.9383
 4555TIP3   OH213670   0.459   4.375   4.427  0.0969 -0.1195  0.0923
 4555TIP3    H113671   0.405   4.312   4.474 -0.8997  1.3996  1.0814
 4555TIP3    H213672   0.414   4.388   4.344  0.3356 -0.7392 -0.1378
 4556TIP3   OH213673   4.142   1.158   4.188  0.0664 -0.1915  0.6829
 4556TIP3    H113674   4.187   1.171   4.271 -0.2130 -1.3889  1.0264
 4556TIP3    H213675   4.211   1.163   4.122  0.7240 -1.9999  1.2039
 4557TIP3   OH213676   3.499   5.396   2.526 -0.0275 -0.2209  0.1201
 4557TIP3    H113677   3.506   5.302   2.508  2.2644 -0.1497  0.4038
 4557TIP3    H213678   3.511   5.438   2.440  1.5098 -0.1456  0.3502
 4558TIP3   OH213679   6.010   1.306   3.073 -0.8916 -0.1213  0.2336
 4558TIP3    H113680   6.005   1.387   3.022 -2.0492  0.4383  1.1745
 4558TIP3    H213681   5.938   1.252   3.041  0.0899 -0.9516 -0.6333
 4559TIP3   OH213682   4.926   2.974   3.097  0.2181 -0.4097  0.3041
 4559TIP3    H113683   4.902   3.025   3.174  0.4900 -1.0192  0.7992
 4559TIP3    H213684   4.874   2.894   3.104 -1.3279  0.3823 -1.2315
 4560TIP3   OH213685   3.072   2.329   3.645  0.3929  0.4139 -0.0914
 4560TIP3    H113686   3.062   2.424   3.635 -0.7027  0.2742 -0.4300
 4560TIP3    H213687   2.985   2.294   3.627  0.9486 -0.7155 -0.6619
 4561TIP3   OH213688   5.842   1.146   3.300  0.2515  0.2633  0.2040
 4561TIP3    H113689   5.812   1.115   3.214  0.8180 -0.4653  0.2586
 4561TIP3    H213690   5.934   1.167   3.288  0.4111 -0.1294  0.7065
 4562TIP3   OH213691   2.866   2.097   1.359  0.1155  0.3209  0.2512
 4562TIP3    H113692   2.920   2.173   1.383  3.4719 -1.6707 -0.4338
 4562TIP3    H213693   2.894   2.028   1.420 -1.0847 -1.0436 -0.6972
 4563TIP3   OH213694   5.299   3.811   1.199  0.1887 -0.6826  0.1708
 4563TIP3    H113695   5.358   3.736   1.190  0.3272 -0.3627 -2.4243
 4563TIP3    H213696   5.280   3.816   1.293  1.2131 -3.1388  0.5811
 4564TIP3   OH213697   0.466   1.255   0.853 -0.3130 -0.2330 -0.2291
 4564TIP3    H113698   0.546   1.215   0.820  0.4634  0.5532  0.6489
 4564TIP3    H213699   0.444   1.205   0.931  0.0676  0.3642  0.2709
 4565TIP3   OH213700   3.706   3.872   1.857 -0.3867  0.0956  0.2544
 4565TIP3    H113701   3.639   3.805   1.870 -0.1409  0.1514  2.1481
 4565TIP3    H213702   3.672   3.928   1.787 -1.5822 -0.7603  0.1272
 4566TIP3   OH213703   2.926   2.966   1.221 -0.1043  0.5886 -0.0283
 4566TIP3    H113704   2.920   2.873   1.199  0.5713  0.5443 -0.0700
 4566TIP3    H213705   2.997   2.971   1.286 -0.6518  0.9822  0.5508
 4567TIP3   OH213706   3.104   5.010   0.082 -0.7558 -0.0316 -0.3287
 4567TIP3    H113707   3.056   4.990   0.162 -1.6177 -0.7645 -1.0169
 4567TIP3    H213708   3.192   5.033   0.112 -0.3752 -2.5038  0.7005
 4568TIP3   OH213709   1.727   0.897   3.850 -0.2969  0.3444 -0.1138
 4568TIP3    H113710   1.792   0.834   3.884 -0.2931 -0.4851 -1.5736
 4568TIP3    H213711   1.779   0.969   3.816 -0.1958  0.2078 -0.2500
 4569TIP3   OH213712   1.641   0.728   0.911 -0.0131 -0.4674 -0.1475
 4569TIP3    H113713   1.735   0.710   0.911  0.0776 -0.2703  2.3269
 4569TIP3    H213714   1.603   0.658   0.964 -0.5586  2.0624  3.1635
 4570TIP3   OH213715   2.904   2.704   3.921  0.4271  0.2701  0.1684
 4570TIP3    H113716   2.885   2.644   3.849 -0.5571  0.5872  0.1613
 4570TIP3    H213717   2.995   2.732   3.905  0.4393 -0.1724 -0.5685
 4571TIP3   OH213718   2.728   2.045   3.021  0.1858 -0.0868 -0.0973
 4571TIP3    H113719   2.795   2.023   2.957  0.0068 -1.2377  0.0900
 4571TIP3    H213720   2.776   2.061   3.102  0.2405 -0.8126  0.0134
 4572TIP3   OH213721   2.937   0.268   3.737  0.8946  0.4653 -0.0132
 4572TIP3    H113722   3.009   0.298   3.682  0.6245  0.6949 -0.2431
 4572TIP3    H213723   2.951   0.311   3.822 -0.4859  2.7271 -0.8483
 4573TIP3   OH213724   5.558   3.006   3.599  0.1190 -0.2012  0.0328
 4573TIP3    H113725   5.470   2.969   3.607  0.2310 -0.0567  2.9082
 4573TIP3    H213726   5.605   2.973   3.676  2.8670 -0.9252 -1.8216
 4574TIP3   OH213727   4.630   4.300   1.435  0.7133  0.1800  0.3658
 4574TIP3    H113728   4.622   4.204   1.433  1.6742  0.0513  1.4408
 4574TIP3    H213729   4.543   4.331   1.459  0.2749 -0.3895 -0.4320
 4575TIP3   OH213730   3.034   4.953   2.868  0.1141  0.1122 -0.2048
 4575TIP3    H113731   3.119   4.956   2.912  0.7665  0.4673 -1.4301
 4575TIP3    H213732   3.034   4.869   2.822 -0.2013  0.1055 -0.1929
 4576TIP3   OH213733   1.387   5.048   0.645 -0.3126  0.0527  0.6388
 4576TIP3    H113734   1.320   5.115   0.631 -0.6049 -0.0496  1.5093
 4576TIP3    H213735   1.338   4.967   0.655  0.0299 -0.2707 -0.1947
 4577TIP3   OH213736   1.361   0.533   0.507 -0.1136 -0.6684 -0.6004
 4577TIP3    H113737   1.409   0.463   0.551 -0.4375 -0.2707  0.4132
 4577TIP3    H213738   1.382   0.612   0.557 -1.4284 -0.4110 -0.4242
 4578TIP3   OH213739   2.298   2.272   4.075 -0.0805 -0.0979 -0.0063
 4578TIP3    H113740   2.377   2.326   4.065 -0.2508  0.2327  0.3864
 4578TIP3    H213741   2.241   2.325   4.131 -0.5350 -0.3842 -0.1985
 4579TIP3   OH213742   6.189   0.670   4.140 -0.1711  0.5161 -0.1346
 4579TIP3    H113743   6.167   0.581   4.167 -1.5639  0.2126 -2.0521
 4579TIP3    H213744   6.132   0.727   4.191 -1.3437  0.0852 -0.9186
 4580TIP3   OH213745   3.778   4.332   3.532 -0.0674  0.3932 -0.1548
 4580TIP3    H113746   3.827   4.413   3.545 -0.4125  0.8586 -1.5911
 4580TIP3    H213747   3.831   4.282   3.470 -0.6754  0.2598 -0.5722
 4581TIP3   OH213748   1.530   5.235   1.560 -0.9827  0.0719  0.1546
 4581TIP3    H113749   1.449   5.197   1.594 -1.9146 -0.7727 -2.6598
 4581TIP3    H213750   1.548   5.185   1.480  1.5216  1.2139 -0.0956
 4582TIP3   OH213751   0.214   5.211   3.435  0.3720  0.5201  0.1062
 4582TIP3    H113752   0.285   5.172   3.487  0.3297  0.4544  0.1142
 4582TIP3    H213753   0.225   5.172   3.348 -0.5334 -0.5978  0.4687
 4583TIP3   OH213754   5.684   0.608   1.648  0.2598  0.1693  0.2715
 4583TIP3    H113755   5.615   0.630   1.710 -0.5730  0.1503 -0.6279
 4583TIP3    H213756   5.639   0.592   1.565  1.3860  0.7124 -0.4829
 4584TIP3   OH213757   3.776   0.291   3.053 -0.9546 -0.0205  0.6682
 4584TIP3    H113758   3.781   0.196   3.051 -1.0536 -0.0336  0.9932
 4584TIP3    H213759   3.862   0.319   3.083  0.3214  0.1512 -2.6931
 4585TIP3   OH213760   5.822   1.517   0.180  0.2069 -0.3466  0.8048
 4585TIP3    H113761   5.815   1.565   0.263 -0.1247 -0.5509  0.8975
 4585TIP3    H213762   5.893   1.561   0.133 -0.5919  0.7270  0.5596
 4586TIP3   OH213763   0.211   1.284   4.426 -0.2005  0.1933 -0.4762
 4586TIP3    H113764   0.237   1.192   4.420  1.4958  0.6519 -0.7468
 4586TIP3    H213765   0.239   1.311   4.514 -0.6359  0.4715 -0.4175
 4587TIP3   OH213766   4.704   0.334   5.043  0.4537 -0.2692  0.4252
 4587TIP3    H113767   4.780   0.304   5.092  1.5775  1.1218 -0.3951
 4587TIP3    H213768   4.711   0.290   4.959 -0.8502 -1.7762  1.0614
 4588TIP3   OH213769   2.201   4.270   4.126  0.2257 -0.3370 -1.0905
 4588TIP3    H113770   2.171   4.344   4.072 -0.6932 -1.0816 -1.6478
 4588TIP3    H213771   2.284   4.299   4.163 -0.3670  1.1684 -0.8806
 4589TIP3   OH213772   0.228   4.570   0.810  0.8537 -0.2548  0.2149
 4589TIP3    H113773   0.281   4.634   0.763  1.1757 -1.0740 -0.5713
 4589TIP3    H213774   0.266   4.486   0.787  0.3156 -0.7502  1.0739
 4590TIP3   OH213775   0.498   0.746   4.644  0.2219  0.2096 -0.2722
 4590TIP3    H113776   0.484   0.653   4.655  1.4832 -0.3307 -2.5929
 4590TIP3    H213777   0.588   0.760   4.674 -0.4122  1.0120  1.4217
 4591TIP3   OH213778   1.000   3.900   1.264 -0.4147  0.0686  0.4127
 4591TIP3    H113779   0.935   3.922   1.198  0.7486  0.5752 -0.5973
 4591TIP3    H213780   1.074   3.865   1.214  0.1702 -0.3082  1.5141
 4592TIP3   OH213781   0.134   4.357   3.755  0.1658 -0.1014  0.0016
 4592TIP3    H113782   0.054   4.320   3.790  0.0146 -0.3887 -0.6271
 4592TIP3    H213783   0.105   4.431   3.701  0.3362 -0.0935 -0.0804
 4593TIP3   OH213784   1.437   2.838   3.281  0.6052 -0.3936  0.0632
 4593TIP3    H113785   1.444   2.758   3.334  1.2684  0.1512  0.8264
 4593TIP3    H213786   1.410   2.807   3.194 -0.2204 -1.3332  0.6365
 4594TIP3   OH213787   6.284   0.659   2.333  0.1965 -0.2453 -0.1091
 4594TIP3    H113788   6.345   0.633   2.402  0.3397 -0.2112 -0.2212
 4594TIP3    H213789   6.266   0.577   2.286  1.1031 -0.0590 -0.8250
 4595TIP3   OH213790   2.671   1.799   1.383 -0.6437  0.3606  0.2139
 4595TIP3    H113791   2.730   1.779   1.310 -1.5260 -1.2943 -0.0918
 4595TIP3    H213792   2.666   1.895   1.384  2.1795  0.5963  0.3924
 4596TIP3   OH213793   2.271   1.467   1.845 -0.4920  0.2802  0.6750
 4596TIP3    H113794   2.178   1.467   1.825 -0.8421  1.8061  2.1149
 4596TIP3    H213795   2.277   1.503   1.934  1.4565  0.1383  0.6452
 4597TIP3   OH213796   0.662   2.424   4.111  0.7065  0.1092 -0.5667
 4597TIP3    H113797   0.713   2.385   4.039 -0.6869 -0.3830 -1.3173
 4597TIP3    H213798   0.729   2.457   4.171  1.9448 -1.6240 -0.8899
 4598TIP3   OH213799   1.607   0.786   2.751 -0.1813  0.2058 -0.5618
 4598TIP3    H113800   1.550   0.862   2.742  0.0567  0.6857  1.4355
 4598TIP3    H213801   1.630   0.785   2.844 -0.2353 -2.3509 -0.5147
 4599TIP3   OH213802   2.401   5.945   4.376  0.3149 -0.0585  0.0963
 4599TIP3    H113803   2.350   5.891   4.316  0.5724 -0.2009  0.0034
 4599TIP3    H213804   2.351   5.943   4.458 -1.5434  2.4126 -0.8509
 4600TIP3   OH213805   6.292   2.920   3.763 -0.1153 -0.5958 -0.5089
 4600TIP3    H113806   6.284   2.840   3.711 -0.2220 -2.0615  1.6244
 4600TIP3    H213807   6.385   2.925   3.784  0.0331  0.3476 -1.3505
 4601TIP3   OH213808   0.953   3.444   0.364  0.9726  0.0048  0.0817
 4601TIP3    H113809   0.940   3.533   0.398  0.7247 -0.1262  0.3364
 4601TIP3    H213810   1.028   3.411   0.412  0.9938  0.0345  0.0695
 4602TIP3   OH213811   1.585   2.269   3.843 -0.8914 -0.3672  0.2450
 4602TIP3    H113812   1.549   2.194   3.797 -0.3502  0.1787 -1.1334
 4602TIP3    H213813   1.680   2.255   3.840 -0.5985  1.4669 -2.1582
 4603TIP3   OH213814   2.793   1.872   0.450 -0.1381 -0.6010  0.0720
 4603TIP3    H113815   2.829   1.785   0.463  1.1336 -0.0519  0.4115
 4603TIP3    H213816   2.849   1.911   0.383 -1.3361 -0.3934 -0.8463
 4604TIP3   OH213817   0.428   3.808   2.078 -0.0981  0.0685 -0.1511
 4604TIP3    H113818   0.470   3.810   1.992 -1.5107  1.8234 -0.8588
 4604TIP3    H213819   0.409   3.900   2.098 -0.7168 -0.3911  1.5916
 4605TIP3   OH213820   4.451   2.256   4.657 -0.3547  0.3866  0.1693
 4605TIP3    H113821   4.438   2.316   4.584 -0.5661  1.0331  0.7273
 4605TIP3    H213822   4.367   2.210   4.665 -1.5800  2.7662  2.1634
 4606TIP3   OH213823   0.732   5.913   4.695 -0.1204  0.4721  0.6309
 4606TIP3    H113824   0.731   6.009   4.703 -0.3254  0.6478 -1.0840
 4606TIP3    H213825   0.813   5.894   4.648 -0.7791 -0.0597 -0.3102
 4607TIP3   OH213826   2.482   2.574   2.615  0.1687 -0.2831  0.1582
 4607TIP3    H113827   2.483   2.636   2.688 -2.2550  1.3825 -1.1415
 4607TIP3    H213828   2.470   2.488   2.658 -1.8436  0.7012  1.7345
 4608TIP3   OH213829   5.387   5.222   1.221 -0.4276  0.0067 -0.1308
 4608TIP3    H113830   5.454   5.159   1.246 -1.0795  0.0079  1.7675
 4608TIP3    H213831   5.387   5.287   1.291 -1.4391  0.7762 -0.8089
 4609TIP3   OH213832   4.995   4.035   3.928  0.2095 -0.1779  0.1951
 4609TIP3    H113833   4.935   4.085   3.873  0.6818 -0.5418 -0.6810
 4609TIP3    H213834   5.065   4.098   3.950  0.1660 -0.1087  0.1370
 4610TIP3   OH213835   4.264   1.737   1.955  0.0202  0.3753  0.1734
 4610TIP3    H113836   4.303   1.762   2.039 -0.6639  0.6484  0.4236
 4610TIP3    H213837   4.247   1.821   1.911  1.8040  0.1936 -0.9295
 4611TIP3   OH213838   1.028   0.381   1.749  0.5003  0.3078  0.1644
 4611TIP3    H113839   1.031   0.434   1.829 -0.8387  1.0162 -0.2140
 4611TIP3    H213840   1.109   0.401   1.703  0.6310  0.9960  0.6831
 4612TIP3   OH213841   3.732   2.492   0.765 -0.1567 -0.0768  0.8140
 4612TIP3    H113842   3.665   2.433   0.798 -0.6657  1.5872  2.9900
 4612TIP3    H213843   3.691   2.578   0.766  1.1987  0.6268 -0.3392
 4613TIP3   OH213844   0.704   5.313   1.007  0.8188  0.7825 -0.1853
 4613TIP3    H113845   0.683   5.361   1.088  0.9425  0.2086  0.1930
 4613TIP3    H213846   0.788   5.271   1.025  1.3043  1.3927 -0.9499
 4614TIP3   OH213847   0.961   0.268   2.046 -0.4569  0.0906  0.2016
 4614TIP3    H113848   0.871   0.267   2.014 -0.7112 -1.5189  0.8960
 4614TIP3    H213849   0.958   0.319   2.127 -0.5646  0.7531 -0.2099
 4615TIP3   OH213850   1.076   6.004   1.005 -0.4353  0.8820  0.2157
 4615TIP3    H113851   0.998   5.952   1.024  0.5514 -0.2821  1.2367
 4615TIP3    H213852   1.106   5.972   0.920 -0.2206  0.2336  0.5273
 4616TIP3   OH213853   1.620   3.248   2.703  0.0261 -0.3263  0.1031
 4616TIP3    H113854   1.527   3.251   2.684  0.3040  0.1261 -1.2585
 4616TIP3    H213855   1.661   3.221   2.621  1.1920  0.6680  0.3213
 4617TIP3   OH213856   3.173   5.740   1.576  0.9819  0.0562  0.0871
 4617TIP3    H113857   3.135   5.725   1.490 -0.5682 -0.7872  0.8593
 4617TIP3    H213858   3.229   5.817   1.565  1.1049 -0.2558 -1.7306
 4618TIP3   OH213859   4.086   2.893   2.868 -0.2796  0.0719 -0.1546
 4618TIP3    H113860   4.067   2.859   2.781  0.5495 -0.9589  0.0471
 4618TIP3    H213861   4.122   2.818   2.916 -2.7829 -0.0225  1.7876
 4619TIP3   OH213862   3.170   3.139   0.007 -0.5909  0.0313 -0.3732
 4619TIP3    H113863   3.260   3.132   0.040 -1.1449 -2.0465  0.9377
 4619TIP3    H213864   3.150   3.232   0.010  0.7805  0.3248  1.5148
 4620TIP3   OH213865   3.144   1.868   0.712 -0.6597 -1.1341  0.1998
 4620TIP3    H113866   3.193   1.926   0.770 -0.2706 -0.0934 -1.1148
 4620TIP3    H213867   3.054   1.899   0.718 -0.2534  0.6313 -1.5559
 4621TIP3   OH213868   3.657   0.844   2.237  0.1736 -0.2018  0.1990
 4621TIP3    H113869   3.609   0.771   2.276 -1.5556  0.3353 -0.8149
 4621TIP3    H213870   3.605   0.922   2.258  0.8041  0.4592 -0.5797
 4622TIP3   OH213871   0.211   3.925   1.471  0.3295  0.5412  0.3499
 4622TIP3    H113872   0.174   3.934   1.383 -2.2710  0.9758  1.4031
 4622TIP3    H213873   0.250   4.010   1.490 -0.4328  0.9503  0.1394
 4623TIP3   OH213874   1.549   2.602   0.038  0.0215  0.4579  0.0786
 4623TIP3    H113875   1.556   2.601  -0.058  1.2097 -2.4024  0.0898
 4623TIP3    H213876   1.633   2.637   0.067 -0.2489  1.1055  0.0898
 4624TIP3   OH213877   6.126   2.083   5.088  0.3330 -0.8420 -0.2284
 4624TIP3    H113878   6.057   2.129   5.135 -0.2257 -1.8354 -0.0448
 4624TIP3    H213879   6.204   2.137   5.100  0.3803 -1.3643  2.3863
 4625TIP3   OH213880   4.546   2.721   5.063 -0.7970  0.3099 -0.0846
 4625TIP3    H113881   4.473   2.784   5.061 -0.4730  0.6817 -1.1183
 4625TIP3    H213882   4.506   2.639   5.089 -1.1453  1.0415  1.8461
 4626TIP3   OH213883   1.720   5.737   1.581  0.0099  0.4929 -0.1539
 4626TIP3    H113884   1.744   5.687   1.503 -0.2697 -0.3157  0.2647
 4626TIP3    H213885   1.632   5.768   1.564  0.4501  1.4860 -0.7192
 4627TIP3   OH213886   3.159   3.231   2.044 -0.2981 -0.2043  0.0276
 4627TIP3    H113887   3.191   3.250   1.956 -1.8893 -1.0654 -0.7985
 4627TIP3    H213888   3.185   3.306   2.096 -0.7069  1.1191 -1.5731
 4628TIP3   OH213889   3.977   1.853   4.889 -0.9617  0.5009  0.3335
 4628TIP3    H113890   4.043   1.858   4.819  0.5202 -1.0734  1.5329
 4628TIP3    H213891   3.975   1.760   4.913 -2.2459  0.8397  1.6428
 4629TIP3   OH213892   0.005   5.383   0.627  0.0327 -0.0935 -0.1224
 4629TIP3    H113893   0.086   5.365   0.580 -1.0270 -0.1945 -2.0025
 4629TIP3    H213894  -0.064   5.349   0.570 -1.3340 -0.3148  1.5760
 4630TIP3   OH213895   1.263   2.317   4.305  0.6778 -0.0976 -0.6147
 4630TIP3    H113896   1.246   2.227   4.334  1.0643 -1.0875 -3.1605
 4630TIP3    H213897   1.200   2.331   4.234 -0.7205  2.4328  0.9833
 4631TIP3   OH213898   0.782   1.584   0.695 -0.5262  0.6064  0.8847
 4631TIP3    H113899   0.706   1.544   0.737 -0.5938  0.9403  1.0834
 4631TIP3    H213900   0.782   1.674   0.726  0.5837  0.3258  1.7534
 4632TIP3   OH213901   0.792   0.006   0.092  0.3352  0.3827  0.1788
 4632TIP3    H113902   0.750   0.067   0.031 -1.4275 -1.2315 -0.3399
 4632TIP3    H213903   0.808  -0.073   0.040  2.4129  0.3101  0.8603
 4633TIP3   OH213904   4.811   2.730   2.453  0.8388 -0.3636  0.4082
 4633TIP3    H113905   4.767   2.714   2.370 -0.3507  0.4303  0.8587
 4633TIP3    H213906   4.903   2.713   2.435  0.5269 -0.7684 -0.9147
 4634TIP3   OH213907   1.229   4.226   1.944  0.3695  0.3961  0.2714
 4634TIP3    H113908   1.194   4.180   1.867  0.0007 -0.4713  0.9359
 4634TIP3    H213909   1.214   4.319   1.926 -1.0699  0.1264 -0.0596
 4635TIP3   OH213910   6.307   1.716   2.331  0.2409 -0.1543  0.3591
 4635TIP3    H113911   6.211   1.721   2.332  0.2626  0.1656  1.2898
 4635TIP3    H213912   6.329   1.721   2.238 -0.5428  2.1850  0.2103
 4636TIP3   OH213913   5.032   5.317   2.634  0.3023  0.2951  0.0257
 4636TIP3    H113914   5.069   5.284   2.716  0.5198  0.0313 -0.1784
 4636TIP3    H213915   5.100   5.374   2.599 -0.3306  1.5216  0.7120
 4637TIP3   OH213916   2.098   3.295   3.301 -0.2165  0.1437  0.0293
 4637TIP3    H113917   2.122   3.368   3.243 -0.0063 -1.2558 -1.7167
 4637TIP3    H213918   2.032   3.246   3.252  0.6239 -1.5943  0.5503
 4638TIP3   OH213919   5.041   0.537   0.882 -0.0094  0.0561 -0.4101
 4638TIP3    H113920   5.014   0.527   0.791 -2.5558 -1.7330  0.4298
 4638TIP3    H213921   5.123   0.489   0.888 -0.6600 -1.2425 -1.4301
 4639TIP3   OH213922   6.113   5.148   2.695  0.1259 -0.0549  0.6649
 4639TIP3    H113923   6.107   5.055   2.715  0.3078  0.0598  1.2549
 4639TIP3    H213924   6.022   5.180   2.699 -0.0614 -0.3911 -0.4827
 4640TIP3   OH213925   4.939   0.117   3.213  0.4561  0.1327  0.5786
 4640TIP3    H113926   4.991   0.077   3.283 -0.0355 -0.7364  0.4644
 4640TIP3    H213927   4.944   0.054   3.141  1.5638  1.3538 -0.4555
 4641TIP3   OH213928   1.688   5.649   0.168  0.4727 -0.7343  0.4635
 4641TIP3    H113929   1.783   5.660   0.181  0.0855  2.7686  1.3259
 4641TIP3    H213930   1.679   5.627   0.075  2.1183 -2.5375  0.6488
 4642TIP3   OH213931   3.418   0.561   4.633  0.6157 -0.3530 -0.2348
 4642TIP3    H113932   3.490   0.499   4.623  0.0751 -0.7669 -2.0699
 4642TIP3    H213933   3.339   0.509   4.619 -0.0708  0.1108  1.6534
 4643TIP3   OH213934   0.730   4.400   0.758 -0.7259 -0.3008 -0.1247
 4643TIP3    H113935   0.701   4.482   0.719 -0.0331 -0.6587 -1.4735
 4643TIP3    H213936   0.788   4.426   0.829 -0.1566  0.3944 -0.8248
 4644TIP3   OH213937   5.338   0.915   2.536 -0.3091  0.3326 -0.3056
 4644TIP3    H113938   5.381   0.914   2.621  1.0431  0.7813 -0.9553
 4644TIP3    H213939   5.275   0.987   2.542  0.4302  0.9712  0.0240
 4645TIP3   OH213940   3.974   0.779   4.832  0.2120 -0.1392 -0.8035
 4645TIP3    H113941   3.915   0.787   4.758 -0.9470 -2.0527 -0.1556
 4645TIP3    H213942   3.979   0.685   4.849 -0.7855  0.2622  2.4427
 4646TIP3   OH213943   1.200   5.178   1.393 -0.0508 -0.3178  0.4034
 4646TIP3    H113944   1.237   5.157   1.479  0.9489 -0.0542  0.0602
 4646TIP3    H213945   1.149   5.257   1.407 -0.4158 -0.6346  0.8783
 4647TIP3   OH213946   5.576   5.129   3.554  0.0670 -0.2683  0.0535
 4647TIP3    H113947   5.540   5.214   3.531 -2.1246 -0.9221  0.8451
 4647TIP3    H213948   5.628   5.104   3.477 -2.2909  0.1464 -1.8072
 4648TIP3   OH213949   5.482   5.943   0.996  0.0619  0.1037  0.0944
 4648TIP3    H113950   5.447   5.866   0.952 -1.8985  0.1118  1.5393
 4648TIP3    H213951   5.469   6.014   0.933  2.6854 -0.7671 -1.6212
 4649TIP3   OH213952   5.522   0.421   0.356  0.3639 -0.1065  0.4667
 4649TIP3    H113953   5.518   0.389   0.446 -0.0043 -1.7774 -0.1093
 4649TIP3    H213954   5.576   0.356   0.310 -1.6502 -0.7805 -1.0915
 4650TIP3   OH213955   1.477   1.299   3.597 -0.0680 -0.5794 -0.3235
 4650TIP3    H113956   1.485   1.207   3.622  0.1311 -0.3262  0.5822
 4650TIP3    H213957   1.405   1.301   3.533  0.4362 -1.4635 -0.9392
 4651TIP3   OH213958   2.805   0.699   2.737 -0.0417 -0.8673 -0.1551
 4651TIP3    H113959   2.863   0.746   2.678  1.7420 -3.0611 -0.2909
 4651TIP3    H213960   2.831   0.727   2.825  1.2682 -1.7812 -0.2179
 4652TIP3   OH213961   2.889   5.404   0.276  0.5623 -0.2654  0.1471
 4652TIP3    H113962   2.894   5.322   0.325 -1.0045  0.6679  2.0208
 4652TIP3    H213963   2.797   5.428   0.281  0.9797  1.5598 -0.4416
 4653TIP3   OH213964   4.182   2.003   2.457 -0.2795 -0.1174 -0.5203
 4653TIP3    H113965   4.216   2.054   2.384  1.5100 -1.0226 -0.3617
 4653TIP3    H213966   4.095   2.040   2.473  0.3670  1.9116 -1.3336
 4654TIP3   OH213967   1.102   5.913   2.133  0.5177 -0.4052  0.0987
 4654TIP3    H113968   1.130   5.927   2.043 -1.9340  0.6883 -0.5620
 4654TIP3    H213969   1.048   5.834   2.130  0.0495 -0.1065  0.5325
 4655TIP3   OH213970   4.845   4.711   2.179 -0.4386  0.2399  0.1968
 4655TIP3    H113971   4.829   4.679   2.091 -0.0303  1.5303 -0.3717
 4655TIP3    H213972   4.760   4.745   2.208 -0.4802  0.1913  0.1301
 4656TIP3   OH213973   2.707   5.430   2.919  0.2534  0.2571 -0.0591
 4656TIP3    H113974   2.771   5.374   2.963  1.3899  1.5654  0.0496
 4656TIP3    H213975   2.624   5.384   2.928  1.0085 -1.0322  0.6626
 4657TIP3   OH213976   1.865   3.726   2.228  0.2809  0.5897  0.2036
 4657TIP3    H113977   1.831   3.788   2.164  0.9384  0.4279 -0.3197
 4657TIP3    H213978   1.820   3.644   2.208  0.7957  0.4344 -0.3332
 4658TIP3   OH213979   1.018   0.833   1.549 -1.0372 -0.3479 -0.4128
 4658TIP3    H113980   0.928   0.824   1.516 -1.4619 -2.2999  1.0325
 4658TIP3    H213981   1.019   0.778   1.628  1.4330 -0.3529 -0.3831
 4659TIP3   OH213982   5.859   1.868   0.500 -0.1495  0.2718  0.1576
 4659TIP3    H113983   5.941   1.838   0.460 -0.8225  1.3530 -2.1863
 4659TIP3    H213984   5.852   1.960   0.476 -1.7097  0.4081  0.9706
 4660TIP3   OH213985   3.117   1.280   3.962  0.0280  0.6550 -0.7648
 4660TIP3    H113986   3.064   1.278   4.042  0.4944  0.6076 -0.4457
 4660TIP3    H213987   3.177   1.354   3.975  1.2261 -0.3537 -0.3147
 4661TIP3   OH213988   5.913   5.376   4.569 -0.1639  0.2478 -0.3514
 4661TIP3    H113989   5.992   5.409   4.612  0.0847 -0.6877 -0.0725
 4661TIP3    H213990   5.934   5.380   4.475 -0.7101  2.2865 -0.4250
 4662TIP3   OH213991   0.205   0.459   3.153  0.1763  0.4640  0.4670
 4662TIP3    H113992   0.228   0.482   3.063  0.2957 -0.2434  0.3096
 4662TIP3    H213993   0.159   0.375   3.145  0.0561  0.4709  1.0524
 4663TIP3   OH213994   6.149   2.360   0.493  0.1778  0.4142 -0.0464
 4663TIP3    H113995   6.172   2.410   0.415  1.2989  0.0901  0.0601
 4663TIP3    H213996   6.076   2.305   0.465  0.4428  0.4383 -0.8077
 4664TIP3   OH213997   4.843   0.067   1.550  0.1301  0.8635  0.1319
 4664TIP3    H113998   4.777  -0.002   1.550  0.8290  0.1935 -0.1871
 4664TIP3    H213999   4.815   0.127   1.481 -0.4041  0.8350  0.3197
 4665TIP3   OH214000   3.639   1.983   5.063 -0.0919 -0.0696  0.1244
 4665TIP3    H114001   3.690   1.935   5.129 -0.2353  0.3805  0.5746
 4665TIP3    H214002   3.597   1.915   5.011  0.3152 -0.4385  0.2707
 4666TIP3   OH214003   6.344   2.730   1.458  0.0508 -0.4513  0.2535
 4666TIP3    H114004   6.325   2.789   1.386  0.1582  1.4916  1.7558
 4666TIP3    H214005   6.372   2.787   1.530 -1.4996 -2.1586  2.3383
 4667TIP3   OH214006   3.966   2.350   3.065 -0.2357 -0.1803  0.0906
 4667TIP3    H114007   4.003   2.437   3.055 -0.1279 -0.0593  1.3596
 4667TIP3    H214008   4.024   2.306   3.127 -1.0198 -0.7005  0.4836
 4668TIP3   OH214009   2.618   5.786   4.196 -0.2438  0.3028  0.4370
 4668TIP3    H114010   2.662   5.745   4.121  1.9536  2.2004  0.5731
 4668TIP3    H214011   2.570   5.715   4.238  0.1676 -1.2403 -1.5820
 4669TIP3   OH214012   1.888   0.457   2.265 -0.0302 -0.1424  0.1026
 4669TIP3    H114013   1.965   0.503   2.300  0.7961 -0.4575 -1.2102
 4669TIP3    H214014   1.845   0.420   2.342  1.1082  0.0948  0.8828
 4670TIP3   OH214015   4.903   2.462   3.972 -0.2915  0.1420  0.5104
 4670TIP3    H114016   4.903   2.480   3.878  0.2797 -0.2333  0.4325
 4670TIP3    H214017   4.990   2.488   4.002 -0.5154  0.3813  0.9583
 4671TIP3   OH214018   0.665   1.000   3.840 -0.8108  0.0160 -0.2301
 4671TIP3    H114019   0.753   0.969   3.817 -0.2811  0.3585  1.1696
 4671TIP3    H214020   0.675   1.095   3.847 -1.2496  0.0431  0.0859
 4672TIP3   OH214021   2.027   5.762   3.689 -0.6195  0.1465  0.6057
 4672TIP3    H114022   2.090   5.775   3.618 -1.0117  0.1646  0.2540
 4672TIP3    H214023   2.065   5.693   3.743 -0.4733 -0.1046  0.1864
 4673TIP3   OH214024   5.447   2.406   0.487 -0.2279 -0.5512  0.5865
 4673TIP3    H114025   5.399   2.345   0.543 -1.0533 -0.3130  0.1430
 4673TIP3    H214026   5.506   2.350   0.436  0.0587 -0.8329  1.2146
 4674TIP3   OH214027   4.921   3.463   1.551  0.4718  0.7438  0.2987
 4674TIP3    H114028   5.002   3.419   1.526 -1.3318 -0.5320 -4.3252
 4674TIP3    H214029   4.883   3.407   1.618  1.4937 -0.9641 -0.4770
 4675TIP3   OH214030   5.768   1.766   0.742  0.1068  0.0942  0.4532
 4675TIP3    H114031   5.819   1.695   0.783 -0.7528  0.1142  1.6212
 4675TIP3    H214032   5.810   1.780   0.658  2.3061  0.4035  1.5294
 4676TIP3   OH214033   1.099   2.266   3.515 -0.0898  0.3390 -0.3391
 4676TIP3    H114034   1.145   2.229   3.591 -0.4059 -2.1699 -1.2577
 4676TIP3    H214035   1.137   2.353   3.504  0.9759  0.2240  1.8197
 4677TIP3   OH214036   2.203   1.069   3.054  0.6395  0.3054  0.1886
 4677TIP3    H114037   2.146   1.141   3.024 -0.7688 -0.7007  0.3233
 4677TIP3    H214038   2.286   1.111   3.076  0.1768  1.7463 -0.6606
 4678TIP3   OH214039   6.332   2.483   1.600  0.3505 -0.3596 -0.1315
 4678TIP3    H114040   6.350   2.550   1.534 -2.0651  0.0157 -0.5314
 4678TIP3    H214041   6.324   2.531   1.682  1.6651 -0.6015  0.1543
 4679TIP3   OH214042   4.694   5.826   4.896 -0.2342  0.6696 -0.0876
 4679TIP3    H114043   4.721   5.778   4.975 -2.7599  1.0478  1.1051
 4679TIP3    H214044   4.703   5.761   4.825 -0.0128 -0.3765  0.8595
 4680TIP3   OH214045   5.648   3.660   4.232 -0.1401 -0.1171  0.0948
 4680TIP3    H114046   5.579   3.655   4.166  0.4529 -2.5799 -0.4571
 4680TIP3    H214047   5.613   3.718   4.300 -3.0768 -1.7994  0.1721
 4681TIP3   OH214048   5.211   0.672   1.814  0.1836  0.2463 -0.1714
 4681TIP3    H114049   5.156   0.596   1.794 -0.9673  1.1092 -0.3499
 4681TIP3    H214050   5.301   0.638   1.810 -0.3391 -1.3783  0.9515
 4682TIP3   OH214051   1.263   3.835   1.202 -0.1823 -0.3753 -0.0366
 4682TIP3    H114052   1.302   3.771   1.261  0.6386  0.6058  0.5036
 4682TIP3    H214053   1.308   3.822   1.119  1.2933  0.6894  0.5581
 4683TIP3   OH214054   5.821   1.064   1.820 -0.8667  0.0481 -0.1713
 4683TIP3    H114055   5.822   0.970   1.803 -1.5878  0.1621 -0.8700
 4683TIP3    H214056   5.729   1.089   1.813 -0.5500  0.9982 -1.0642
 4684TIP3   OH214057   4.302   0.444   4.879  0.0644 -0.4361  0.1776
 4684TIP3    H114058   4.370   0.443   4.812  0.7549 -0.4430  0.8566
 4684TIP3    H214059   4.351   0.443   4.962 -0.7703 -0.7249  0.6757
 4685TIP3   OH214060   1.904   0.426   3.487  0.4171 -0.9120  0.0667
 4685TIP3    H114061   1.884   0.338   3.455 -0.6108  0.1248 -2.3671
 4685TIP3    H214062   1.819   0.468   3.498  0.9122  0.6684 -1.5973
 4686TIP3   OH214063   6.078   0.917   2.912  0.4209 -0.6846  0.0683
 4686TIP3    H114064   6.116   0.840   2.870 -1.5976 -0.4705 -2.4410
 4686TIP3    H214065   6.125   0.991   2.874  1.4994 -0.5801  1.5256
 4687TIP3   OH214066   0.294   3.579   4.126  0.6559  0.1332  0.1254
 4687TIP3    H114067   0.206   3.549   4.101  0.4711  0.8618 -0.1261
 4687TIP3    H214068   0.302   3.554   4.218  0.8974 -1.5400 -0.3151
 4688TIP3   OH214069   3.887   2.835   3.298 -0.4188 -0.0692 -0.3913
 4688TIP3    H114070   3.978   2.810   3.314 -0.3414  0.8499  0.7688
 4688TIP3    H214071   3.889   2.880   3.214  0.5363  1.4505  0.3985
 4689TIP3   OH214072   2.481   1.763   4.387  0.7271  0.0501 -0.8295
 4689TIP3    H114073   2.475   1.823   4.312  1.3914  0.5652 -0.4778
 4689TIP3    H214074   2.562   1.715   4.372  0.7141 -0.0455 -0.5850
 4690TIP3   OH214075   1.836   0.289   5.056  0.0545 -0.0726 -0.1462
 4690TIP3    H114076   1.917   0.336   5.076 -1.1165  1.5602  0.9736
 4690TIP3    H214077   1.798   0.268   5.142 -1.8256  1.2126 -0.6057
 4691TIP3   OH214078   5.956   2.730   4.112 -0.0843  0.0553 -0.2976
 4691TIP3    H114079   5.864   2.733   4.141 -0.4782  0.2362 -1.4957
 4691TIP3    H214080   5.953   2.682   4.029  0.2910  3.3015 -2.4070
 4692TIP3   OH214081   0.430   1.016   1.409 -0.0712 -0.3446  0.0098
 4692TIP3    H114082   0.475   0.967   1.340 -0.2957 -0.3705 -0.1197
 4692TIP3    H214083   0.466   0.982   1.490 -0.0641 -0.5693 -0.0859
 4693TIP3   OH214084   1.583   1.342   4.076  0.3268 -0.1096  0.1239
 4693TIP3    H114085   1.602   1.252   4.101 -2.0570 -1.1082 -1.3513
 4693TIP3    H214086   1.667   1.387   4.085  2.2448 -3.0333 -1.3927
 4694TIP3   OH214087   5.656   2.278   3.808 -0.2601  0.1472 -0.2601
 4694TIP3    H114088   5.669   2.198   3.859  2.3589 -0.2096 -1.3269
 4694TIP3    H214089   5.695   2.347   3.860 -0.6251  0.3711 -0.2799
 4695TIP3   OH214090   4.510   2.364   1.623  0.3017 -0.0774  0.1820
 4695TIP3    H114091   4.598   2.363   1.660  0.2442 -3.4471  0.5349
 4695TIP3    H214092   4.498   2.276   1.588 -3.0926  0.1256  0.5167
 4696TIP3   OH214093   0.638   4.195   2.978 -0.3662  0.4330  0.4451
 4696TIP3    H114094   0.647   4.146   2.896 -1.1892 -3.1167  2.2488
 4696TIP3    H214095   0.544   4.208   2.989 -0.2223  1.4286  0.5403
 4697TIP3   OH214096   3.292   1.742   2.760  0.2738  0.1598 -0.1190
 4697TIP3    H114097   3.328   1.794   2.831 -1.3288  1.1743 -0.0006
 4697TIP3    H214098   3.305   1.651   2.787  1.0343  0.5137  0.7490
 4698TIP3   OH214099   0.034   3.009   1.877  0.4955 -0.5927  0.0330
 4698TIP3    H114100   0.095   3.057   1.933  0.5630 -0.2200 -0.3567
 4698TIP3    H214101  -0.007   2.946   1.936  1.2828 -0.8748  0.2988
 4699TIP3   OH214102   6.171   0.638   0.621 -0.4823 -0.2682  0.2081
 4699TIP3    H114103   6.238   0.594   0.673  1.6349  1.1366 -1.1943
 4699TIP3    H214104   6.167   0.726   0.657  2.6840  1.4956 -3.1715
 4700TIP3   OH214105   3.105   1.941   3.634 -0.2689  0.2577  0.1492
 4700TIP3    H114106   3.099   2.008   3.701  0.1538 -0.5296  0.9963
 4700TIP3    H214107   3.020   1.943   3.590 -0.3174  1.2199  0.2761
 4701TIP3   OH214108   1.699   1.410   2.981 -0.7138  0.1657 -0.2709
 4701TIP3    H114109   1.714   1.364   3.064 -0.3862  2.1715  0.8377
 4701TIP3    H214110   1.621   1.368   2.944  0.9632 -2.9537 -0.6266
 4702TIP3   OH214111   0.404   4.763   0.714 -0.0515 -0.2080  0.3704
 4702TIP3    H114112   0.434   4.790   0.800  1.5669  0.0505 -0.2429
 4702TIP3    H214113   0.481   4.724   0.672 -0.6683  0.1035 -1.1320
 4703TIP3   OH214114   1.570   0.988   0.509 -0.1247 -0.8698 -0.6558
 4703TIP3    H114115   1.489   0.963   0.466 -0.5239 -0.9194  0.1125
 4703TIP3    H214116   1.638   0.940   0.462 -0.6431 -1.5909 -0.6779
 4704TIP3   OH214117   5.597   0.139   0.864  0.1142  0.3359  0.8105
 4704TIP3    H114118   5.564   0.056   0.899  0.4787 -0.1463  0.0324
 4704TIP3    H214119   5.531   0.204   0.890 -1.0723 -0.4782 -0.0517
 4705TIP3   OH214120   5.676   2.742   2.904  0.2141  0.1887 -0.1548
 4705TIP3    H114121   5.591   2.771   2.872 -0.6229 -0.0084  1.7347
 4705TIP3    H214122   5.724   2.822   2.923  0.7770  0.3095 -1.9216
 4706TIP3   OH214123   3.087   0.107   2.272  0.5821  0.4796 -0.1341
 4706TIP3    H114124   3.126   0.069   2.194 -0.5897  1.0819 -1.0552
 4706TIP3    H214125   3.024   0.171   2.239  0.2690  0.9739  1.3114
 4707TIP3   OH214126   2.029   1.840   4.116  0.7769 -0.5509 -0.4073
 4707TIP3    H114127   2.103   1.864   4.172 -2.1853  0.6138  3.4445
 4707TIP3    H214128   1.991   1.923   4.088 -1.1041 -0.9218  0.8028
 4708TIP3   OH214129   6.264   3.699   3.499 -0.0677  0.4038 -0.2152
 4708TIP3    H114130   6.225   3.617   3.471 -0.5037  0.3140  0.6012
 4708TIP3    H214131   6.236   3.764   3.435  0.9715 -0.2223 -1.3395
 4709TIP3   OH214132   3.061   2.786   4.770 -0.0559 -0.5581 -0.1961
 4709TIP3    H114133   3.127   2.821   4.830 -0.8824  1.0265 -0.1533
 4709TIP3    H214134   3.017   2.717   4.820  0.4888 -0.5198  0.3472
 4710TIP3   OH214135   1.884   2.064   2.384 -0.1175  0.0088 -0.6227
 4710TIP3    H114136   1.962   2.047   2.438  0.1425 -0.1904 -1.0553
 4710TIP3    H214137   1.909   2.035   2.297 -1.1146 -1.2683 -0.5284
 4711TIP3   OH214138   0.480   5.192   3.522 -0.2909 -0.0512  0.4592
 4711TIP3    H114139   0.558   5.242   3.543 -0.4809  0.7572 -0.6377
 4711TIP3    H214140   0.501   5.149   3.439 -0.8605 -0.1587  0.3640
 4712TIP3   OH214141   3.711   3.470   0.857  0.2257 -0.0715  0.6024
 4712TIP3    H114142   3.708   3.397   0.795 -1.5547  1.2436 -0.9845
 4712TIP3    H214143   3.637   3.453   0.916  0.6748 -0.2629  1.1177
 4713TIP3   OH214144   0.740   2.995   3.042  0.2434 -0.3338 -0.1513
 4713TIP3    H114145   0.676   3.062   3.066  0.0854 -0.6068  0.1870
 4713TIP3    H214146   0.692   2.912   3.047  0.7123 -0.5793  0.4736
 4714TIP3   OH214147   3.004   2.910   0.781  0.0570 -0.0849  0.1666
 4714TIP3    H114148   3.044   2.901   0.695  1.6259 -1.4702  0.9918
 4714TIP3    H214149   2.970   2.823   0.801 -0.6678  0.3265  0.7893
 4715TIP3   OH214150   3.737   0.838   4.098  0.4346  0.1939 -0.2260
 4715TIP3    H114151   3.672   0.906   4.081 -0.6937  0.0350  2.7124
 4715TIP3    H214152   3.796   0.878   4.162 -0.7676 -1.7226  2.2549
 4716TIP3   OH214153   1.583   5.040   4.835  0.4163 -0.6339 -0.1628
 4716TIP3    H114154   1.508   5.073   4.786  0.5419  0.8704  0.5915
 4716TIP3    H214155   1.548   5.016   4.921  0.6026 -1.0326 -0.1956
 4717TIP3   OH214156   3.848   5.447   1.796  0.2068  0.0930  0.6205
 4717TIP3    H114157   3.927   5.486   1.761 -1.3036  0.5169 -2.6591
 4717TIP3    H214158   3.879   5.375   1.851  2.8684  2.4158  2.4155
 4718TIP3   OH214159   5.324   1.916   1.780 -0.6975 -0.2100  0.1391
 4718TIP3    H114160   5.370   1.850   1.832 -0.5747  0.5169  0.9790
 4718TIP3    H214161   5.270   1.964   1.844  1.4399  2.4404  0.1444
 4719TIP3   OH214162   4.935   5.205   0.506  0.4400 -0.4742  0.4709
 4719TIP3    H114163   4.992   5.277   0.482 -0.1167  0.1053  0.8506
 4719TIP3    H214164   4.891   5.235   0.586 -0.3261 -0.9422  0.2377
 4720TIP3   OH214165   0.187   5.151   2.814  0.2883  0.2005 -0.6113
 4720TIP3    H114166   0.198   5.159   2.719 -0.6921 -0.3743 -0.7806
 4720TIP3    H214167   0.094   5.167   2.829  0.8174  2.6421  0.5337
 4721TIP3   OH214168   5.732   2.069   5.014  0.3021  0.1157 -0.0365
 4721TIP3    H114169   5.656   2.086   5.068 -0.7702 -0.0501 -1.4364
 4721TIP3    H214170   5.751   2.153   4.972  2.2262  0.7256  1.8515
 4722TIP3   OH214171   0.951   5.866   3.755 -0.0363 -0.1474 -0.6541
 4722TIP3    H114172   0.961   5.816   3.674  0.1975 -1.0437 -0.0903
 4722TIP3    H214173   1.040   5.876   3.788 -0.0749  0.7139 -0.7848
 4723TIP3   OH214174   0.926   5.697   0.594 -0.3164  0.1903  0.4609
 4723TIP3    H114175   0.893   5.730   0.511  0.3083 -0.3120  0.0101
 4723TIP3    H214176   1.019   5.678   0.578 -0.7523 -2.3912  0.4848
 4724TIP3   OH214177   5.364   2.891   0.597 -0.4152  0.0309 -0.6822
 4724TIP3    H114178   5.308   2.950   0.548 -0.2507  1.0369  0.3066
 4724TIP3    H214179   5.447   2.891   0.549 -0.6294  0.0945 -1.0494
 4725TIP3   OH214180   2.672   3.884   1.817  0.0406  0.1131 -0.3490
 4725TIP3    H114181   2.633   3.857   1.734 -1.5814 -1.4993  0.8679
 4725TIP3    H214182   2.604   3.936   1.860  1.2109  1.7599 -0.3863
 4726TIP3   OH214183   6.232   4.426   2.175  0.4524  0.1546  0.4816
 4726TIP3    H114184   6.306   4.484   2.196 -0.8088  2.1981 -0.3790
 4726TIP3    H214185   6.155   4.480   2.191 -0.7933 -1.1954 -0.7230
 4727TIP3   OH214186   5.435   4.743   4.950 -0.1707 -0.1837 -0.1856
 4727TIP3    H114187   5.527   4.765   4.964 -0.4290  0.6699  0.2301
 4727TIP3    H214188   5.410   4.692   5.027 -0.4502  0.9097  0.4729
 4728TIP3   OH214189   5.598   2.911   0.996  0.8712  0.0688  0.0645
 4728TIP3    H114190   5.549   2.834   1.027 -0.9392 -0.0335 -2.7268
 4728TIP3    H214191   5.667   2.875   0.940  0.4511  0.4308 -0.6933
 4729TIP3   OH214192   6.135   0.787   0.282  0.6573  0.2893  0.9863
 4729TIP3    H114193   6.112   0.700   0.249 -1.4550  2.0779 -2.8956
 4729TIP3    H214194   6.051   0.827   0.306  1.0788  2.3774 -0.6709
 4730TIP3   OH214195   0.871   5.604   2.672 -0.6428  0.2260  0.1323
 4730TIP3    H114196   0.882   5.596   2.767  0.6076 -1.2554 -0.0891
 4730TIP3    H214197   0.934   5.672   2.646 -0.6031  0.2562  0.3079
 4731TIP3   OH214198   2.976   2.661   2.536 -0.3900 -0.1811 -0.6543
 4731TIP3    H114199   2.891   2.705   2.540  0.5845  1.7375  1.5504
 4731TIP3    H214200   3.035   2.725   2.496  0.2435 -1.0458 -1.1414
 4732TIP3   OH214201   5.313   1.849   0.332 -0.1209  0.6365  0.0903
 4732TIP3    H114202   5.223   1.827   0.360 -0.4042  1.5006 -0.1114
 4732TIP3    H214203   5.366   1.777   0.365 -0.8990  0.0798  0.1667
 4733TIP3   OH214204   0.097   2.039   2.286 -0.1359  0.0144 -0.7419
 4733TIP3    H114205   0.139   2.102   2.345  1.0953  0.8275 -2.3967
 4733TIP3    H214206   0.010   2.075   2.270 -0.6238 -0.4028  0.8148
 4734TIP3   OH214207   2.832   3.741   3.177 -0.8224 -0.1593  0.3933
 4734TIP3    H114208   2.870   3.671   3.230 -0.7807 -0.9403 -0.6490
 4734TIP3    H214209   2.741   3.746   3.206 -0.5420  0.1417  1.2645
 4735TIP3   OH214210   3.468   3.440   2.940 -0.4028 -0.3599 -0.2189
 4735TIP3    H114211   3.376   3.419   2.958 -0.9333  1.0767 -1.0784
 4735TIP3    H214212   3.503   3.470   3.024 -0.8031 -0.6136  0.0412
 4736TIP3   OH214213   4.881   0.998   2.826 -0.1926  0.5301 -0.6176
 4736TIP3    H114214   4.825   1.010   2.902  1.0510 -0.1889  0.4357
 4736TIP3    H214215   4.826   1.027   2.752 -1.1939  1.8739  0.5809
 4737TIP3   OH214216   1.730   3.805   2.836  0.1328 -0.2189 -0.5377
 4737TIP3    H114217   1.802   3.867   2.851  1.0825 -1.1104 -1.2386
 4737TIP3    H214218   1.748   3.768   2.749 -1.6259  0.1103 -1.0731
 4738TIP3   OH214219   1.469   0.413   1.306 -0.4351  0.1417 -0.4566
 4738TIP3    H114220   1.382   0.396   1.341 -0.5526  1.2259 -0.1760
 4738TIP3    H214221   1.512   0.327   1.304 -1.4183 -0.3639 -0.3728
 4739TIP3   OH214222   5.623   5.447   2.845 -0.0883 -0.1916 -0.4850
 4739TIP3    H114223   5.651   5.534   2.873 -0.3284  0.4348 -2.0742
 4739TIP3    H214224   5.626   5.450   2.749 -1.6031 -1.4169 -0.6189
 4740TIP3   OH214225   3.245   4.590   2.525  0.3036 -0.3738  0.4303
 4740TIP3    H114226   3.323   4.554   2.483  0.5500  1.7018 -1.0575
 4740TIP3    H214227   3.172   4.544   2.484  0.6031  0.7552 -1.5096
 4741TIP3   OH214228   0.941   4.365   0.944 -0.1574 -0.5525 -0.2284
 4741TIP3    H114229   0.960   4.326   1.029  0.7654  1.8283  0.7542
 4741TIP3    H214230   0.984   4.307   0.881  2.5177 -0.3534  1.2570
 4742TIP3   OH214231   0.749   3.624   3.291  0.3755 -0.0279  0.0483
 4742TIP3    H114232   0.668   3.597   3.247  0.1874 -1.0168  0.9643
 4742TIP3    H214233   0.722   3.642   3.381  0.8409  1.5391 -0.0892
 4743TIP3   OH214234   5.145   5.619   2.226  0.0767 -0.3427  0.5826
 4743TIP3    H114235   5.103   5.545   2.269 -1.0464 -0.6510 -0.9360
 4743TIP3    H214236   5.220   5.581   2.180 -0.6775 -0.6396 -0.4508
 4744TIP3   OH214237   0.652   0.725   3.677 -0.1020  0.1966  0.6517
 4744TIP3    H114238   0.645   0.643   3.726  0.2775 -1.2457 -1.5266
 4744TIP3    H214239   0.564   0.738   3.640  0.5270 -0.8898 -1.3736
 4745TIP3   OH214240   0.235   0.031   2.358 -0.2212  0.1240  0.6757
 4745TIP3    H114241   0.328   0.051   2.348 -0.2449  0.1702  0.5459
 4745TIP3    H214242   0.234  -0.045   2.416  0.0217 -1.3362 -1.1527
 4746TIP3   OH214243   5.695   0.067   2.046  0.2284 -0.1780 -0.8388
 4746TIP3    H114244   5.705  -0.004   2.110  0.8409  1.3692  0.8955
 4746TIP3    H214245   5.637   0.032   1.979 -1.3047 -1.5633  1.1121
 4747TIP3   OH214246   2.795   1.832   3.385 -0.0471  0.4043  0.9189
 4747TIP3    H114247   2.826   1.883   3.310 -0.6863 -0.2258  0.2152
 4747TIP3    H214248   2.790   1.896   3.456 -1.7083  1.5645 -0.1561
 4748TIP3   OH214249   0.115   5.074   0.035 -0.5764 -0.0329  0.4972
 4748TIP3    H114250   0.141   5.121  -0.044  0.1975 -1.4988 -0.1516
 4748TIP3    H214251   0.125   4.982   0.012 -0.7516 -0.4905  2.1760
 4749TIP3   OH214252   2.674   5.646   2.327  0.0040 -0.3535  0.4836
 4749TIP3    H114253   2.748   5.621   2.271 -0.4526  1.5355 -1.0515
 4749TIP3    H214254   2.705   5.723   2.375 -0.0372 -1.2256  1.9666
 4750TIP3   OH214255   0.880   2.520   3.912 -0.2746  0.1980 -0.6737
 4750TIP3    H114256   0.827   2.451   3.870  0.7032 -0.8615 -0.2205
 4750TIP3    H214257   0.947   2.541   3.847 -0.2749  0.3751 -0.6161
 4751TIP3   OH214258   3.298   4.502   3.711  0.4952  0.1449  0.5884
 4751TIP3    H114259   3.373   4.443   3.710 -0.6901 -1.4326 -0.4125
 4751TIP3    H214260   3.278   4.518   3.619 -1.1243 -0.4930  0.7922
 4752TIP3   OH214261   2.964   0.336   3.083 -0.1290 -0.4588 -0.1151
 4752TIP3    H114262   2.904   0.356   3.011 -1.1743  0.0327  0.8710
 4752TIP3    H214263   2.912   0.346   3.162  1.2508 -0.0383  0.7828
 4753TIP3   OH214264   0.781   4.440   3.441  0.0163 -0.5271 -0.6087
 4753TIP3    H114265   0.710   4.394   3.398  0.0199  0.1891 -1.4035
 4753TIP3    H214266   0.837   4.470   3.370  2.3633 -2.9918  0.0426
 4754TIP3   OH214267   1.701   4.618   0.741 -0.0654 -0.2241  0.3531
 4754TIP3    H114268   1.737   4.605   0.828  1.6463 -0.3141 -0.3372
 4754TIP3    H214269   1.627   4.677   0.755 -0.5340 -1.1346  1.9880
 4755TIP3   OH214270   3.408   0.251   3.369  0.2081 -0.2799  0.0145
 4755TIP3    H114271   3.400   0.301   3.288  0.7820 -0.9528 -0.4715
 4755TIP3    H214272   3.330   0.196   3.372 -0.4002  0.5862  0.5251
 4756TIP3   OH214273   0.644   0.874   2.132 -0.4936  0.0424 -0.2232
 4756TIP3    H114274   0.693   0.793   2.144 -1.4534 -0.8256 -1.7649
 4756TIP3    H214275   0.634   0.909   2.220 -0.8922 -2.0228  0.6213
 4757TIP3   OH214276   0.483   1.554   2.273  0.0261  0.2364  0.1589
 4757TIP3    H114277   0.445   1.633   2.234 -0.2269 -0.1841 -0.4581
 4757TIP3    H214278   0.482   1.489   2.203  3.3366  0.6279 -0.4042
 4758TIP3   OH214279   4.853   1.966   0.636  0.7770  0.3555 -0.1424
 4758TIP3    H114280   4.907   2.023   0.692  0.5118 -0.4510  0.9609
 4758TIP3    H214281   4.916   1.921   0.580  1.2205 -0.1762  0.7652
 4759TIP3   OH214282   5.239   5.132   2.309  0.0979 -0.3043 -0.3240
 4759TIP3    H114283   5.286   5.151   2.391 -0.0261  1.5881 -0.6322
 4759TIP3    H214284   5.197   5.048   2.324  1.4413 -0.7975  0.9415
 4760TIP3   OH214285   0.975   1.363   2.334 -0.0801 -0.5467 -0.2553
 4760TIP3    H114286   1.030   1.391   2.261  0.1787 -0.8973 -0.1973
 4760TIP3    H214287   0.926   1.442   2.358 -0.2296 -0.4512 -0.8605
 4761TIP3   OH214288   3.734   5.285   4.847  0.8463  0.1437  0.1532
 4761TIP3    H114289   3.803   5.226   4.816  0.5515 -0.7603  1.1553
 4761TIP3    H214290   3.684   5.233   4.910 -0.5153  0.9052 -0.2502
 4762TIP3   OH214291   2.069   4.315   3.015 -0.6345 -0.1939 -0.2012
 4762TIP3    H114292   2.101   4.389   2.962 -0.5963  0.2465  0.4239
 4762TIP3    H214293   1.984   4.294   2.978 -0.2925 -0.3735 -0.9054
 4763TIP3   OH214294   2.582   3.935   4.415  0.0136 -0.5282  0.0786
 4763TIP3    H114295   2.525   4.007   4.442 -0.6746 -0.2217 -2.0020
 4763TIP3    H214296   2.553   3.861   4.469 -0.5962  0.2501  0.8614
 4764TIP3   OH214297   1.216   0.101   1.655 -0.7250 -0.3288 -0.4124
 4764TIP3    H114298   1.184   0.117   1.743  1.2242 -1.0604  0.4815
 4764TIP3    H214299   1.300   0.146   1.651 -0.6995 -0.4460 -1.8530
 4765TIP3   OH214300   4.197   3.071  -0.012  0.2302 -1.3458 -0.3491
 4765TIP3    H114301   4.279   3.114  -0.037  0.7061 -2.7506 -1.2948
 4765TIP3    H214302   4.165   3.122   0.063  1.7343 -0.5204 -0.2399
 4766TIP3   OH214303   1.963   3.981   1.817  0.0077 -0.1173  0.4936
 4766TIP3    H114304   1.868   3.972   1.809 -0.1065  1.4800 -0.3255
 4766TIP3    H214305   1.999   3.909   1.766 -0.7712  0.1866 -0.5042
 4767TIP3   OH214306   2.366   1.212   1.738  0.2621 -0.2427  0.5409
 4767TIP3    H114307   2.321   1.145   1.789  0.1249  0.5828  1.5275
 4767TIP3    H214308   2.338   1.295   1.776  0.2832  0.3993 -0.7790
 4768TIP3   OH214309   5.573   4.916   4.628 -0.0799 -0.2699 -0.9410
 4768TIP3    H114310   5.560   5.007   4.601  0.9695 -0.4532 -2.1730
 4768TIP3    H214311   5.487   4.888   4.660 -0.8571  0.6604 -2.1113
 4769TIP3   OH214312   4.194   1.754   2.750  0.0471 -0.1951 -0.1472
 4769TIP3    H114313   4.103   1.753   2.719 -0.1621  1.0064  0.3766
 4769TIP3    H214314   4.198   1.682   2.813 -0.9698  0.6599  0.9410
 4770TIP3   OH214315   3.663   0.654   4.314  0.1210 -0.0088  0.4578
 4770TIP3    H114316   3.642   0.562   4.301 -0.0043  0.1597 -0.6138
 4770TIP3    H214317   3.652   0.694   4.228  2.5124  0.5607  0.3635
 4771TIP3   OH214318   0.332   2.526   2.590  0.1658 -0.1216 -0.5539
 4771TIP3    H114319   0.381   2.543   2.670  0.9144 -1.0871 -0.7864
 4771TIP3    H214320   0.250   2.488   2.619  1.0457 -1.8958 -0.2696
 4772TIP3   OH214321   5.969   3.481   3.302  0.6248  0.4777  0.5420
 4772TIP3    H114322   5.959   3.575   3.290  1.8970  0.6548  0.7775
 4772TIP3    H214323   5.879   3.449   3.315 -0.0258  1.3965 -1.2566
 4773TIP3   OH214324   5.120   1.882   0.682  0.7095  0.4703  0.3731
 4773TIP3    H114325   5.136   1.900   0.775  1.8507  0.2958  0.2176
 4773TIP3    H214326   5.190   1.927   0.636 -1.3059  2.8265 -0.6404
 4774TIP3   OH214327   1.076   1.849   1.580  0.7892  0.5561 -0.4272
 4774TIP3    H114328   1.002   1.796   1.611  2.1971 -1.2763 -0.0043
 4774TIP3    H214329   1.064   1.934   1.621 -1.7285  0.7330 -1.3354
 4775TIP3   OH214330   1.583   5.739   0.969 -0.0605  0.3316 -0.2971
 4775TIP3    H114331   1.673   5.735   1.002 -0.5779 -0.4584  1.1226
 4775TIP3    H214332   1.541   5.804   1.025 -0.6939 -0.2305 -0.1176
 4776TIP3   OH214333   4.551   0.708   4.514 -0.2255  0.2158  0.2437
 4776TIP3    H114334   4.569   0.797   4.543 -0.9766  0.2619  0.6009
 4776TIP3    H214335   4.464   0.713   4.474 -0.1025 -0.2755 -0.0874
 4777TIP3   OH214336   0.198   3.090   5.054  0.4578 -0.2803  0.0209
 4777TIP3    H114337   0.127   3.097   4.990 -0.0361  0.2799  0.6192
 4777TIP3    H214338   0.154   3.088   5.139  1.2132  2.3951  0.5609
 4778TIP3   OH214339   1.872   5.116   4.346  0.2525 -0.4312 -0.3350
 4778TIP3    H114340   1.884   5.131   4.440 -1.2951  1.7632 -0.4016
 4778TIP3    H214341   1.895   5.024   4.333  1.2456 -0.5974  2.0402
 4779TIP3   OH214342   4.510   0.275   3.079 -0.3296  0.5364  0.3218
 4779TIP3    H114343   4.474   0.284   2.990 -0.9884  0.4597  0.5726
 4779TIP3    H214344   4.463   0.200   3.116 -0.1226  0.6259  0.7691
 4780TIP3   OH214345   1.317   2.492   0.540 -0.3270  0.8576  0.4033
 4780TIP3    H114346   1.391   2.543   0.508 -0.4939  1.1465  0.4647
 4780TIP3    H214347   1.336   2.402   0.515 -1.0608  1.2222 -1.6906
 4781TIP3   OH214348   5.531   4.703   0.493  0.4806 -0.3829 -0.4890
 4781TIP3    H114349   5.473   4.691   0.569  1.7708  1.0527  0.7885
 4781TIP3    H214350   5.620   4.701   0.530  1.1616  0.0942 -2.0093
 4782TIP3   OH214351   6.363   3.267   3.043  0.2461 -0.3667  0.1569
 4782TIP3    H114352   6.285   3.279   3.098 -1.6669 -0.1885 -2.4258
 4782TIP3    H214353   6.428   3.228   3.102 -1.1420  1.1662  2.8785
 4783TIP3   OH214354   2.856   5.276   3.080 -0.0080  0.3951  0.6199
 4783TIP3    H114355   2.891   5.189   3.096 -1.1812  0.1195  1.8648
 4783TIP3    H214356   2.915   5.335   3.127  0.7501  0.2946 -0.1700
 4784TIP3   OH214357   6.181   5.069   3.766 -0.4756  0.0328 -0.7594
 4784TIP3    H114358   6.245   5.136   3.787  0.3899 -0.5261 -1.5603
 4784TIP3    H214359   6.133   5.055   3.848  2.0805 -1.3162  0.6548
 4785TIP3   OH214360   1.042   5.059   3.270 -0.0739 -0.1970  0.5113
 4785TIP3    H114361   1.104   5.057   3.343 -1.4402  1.2206  1.7829
 4785TIP3    H214362   1.005   4.971   3.269  1.3328 -0.8169  0.2503
 4786TIP3   OH214363   5.184   5.183   2.024  0.0429  0.9930 -1.0306
 4786TIP3    H114364   5.247   5.165   2.094 -1.3175  0.2224  0.0390
 4786TIP3    H214365   5.127   5.251   2.058  0.2165  1.6313 -1.9612
 4787TIP3   OH214366   5.307   2.078   1.555 -0.1251  0.1045  0.2091
 4787TIP3    H114367   5.307   2.003   1.614  0.9877  0.8621  1.2361
 4787TIP3    H214368   5.399   2.105   1.552 -0.2019  0.2694 -1.6590
 4788TIP3   OH214369   2.988   5.626   1.077 -0.5479 -0.2964 -0.6590
 4788TIP3    H114370   2.926   5.694   1.051 -1.7360 -1.2878 -0.5137
 4788TIP3    H214371   3.024   5.657   1.160 -0.8240  0.3089 -0.7601
 4789TIP3   OH214372   1.176   1.534   4.691  0.5088 -0.3343  0.6529
 4789TIP3    H114373   1.201   1.618   4.731  0.9015  0.7256 -1.6731
 4789TIP3    H214374   1.226   1.469   4.740 -0.3189  0.6551  2.9776
 4790TIP3   OH214375   0.120   4.047   2.335 -0.4806  0.3113 -0.0626
 4790TIP3    H114376   0.032   4.083   2.332 -0.7764 -0.4240 -0.2836
 4790TIP3    H214377   0.115   3.965   2.286  0.3625  0.3440 -0.2298
 4791TIP3   OH214378   0.492   1.330   2.778 -0.4044  0.1685 -0.0233
 4791TIP3    H114379   0.421   1.335   2.842 -2.7233 -1.3218 -2.2868
 4791TIP3    H214380   0.550   1.262   2.812 -1.1030  0.0405  0.9448
 4792TIP3   OH214381   1.439   1.983   4.780 -0.7972  0.4670  0.3862
 4792TIP3    H114382   1.522   1.984   4.827 -1.1081  0.8427  0.9389
 4792TIP3    H214383   1.463   1.997   4.688 -0.2379  0.3819  0.5166
 4793TIP3   OH214384   4.295   2.160   1.418  0.0727 -0.1236  0.6131
 4793TIP3    H114385   4.266   2.080   1.374 -1.6009  1.3790 -1.1819
 4793TIP3    H214386   4.372   2.133   1.468  0.6035 -2.4737 -1.2968
 4794TIP3   OH214387   4.736   5.076   3.951  0.4032  0.1733  0.3077
 4794TIP3    H114388   4.784   5.032   3.882 -1.0931 -0.5245 -0.3367
 4794TIP3    H214389   4.783   5.158   3.966  1.3321 -0.1406 -0.8108
 4795TIP3   OH214390   6.327   2.647   4.088 -0.6876 -0.1591 -0.1010
 4795TIP3    H114391   6.318   2.743   4.094 -1.3887 -0.2525  0.4048
 4795TIP3    H214392   6.261   2.613   4.148 -0.7679 -0.9751 -0.6430
 4796TIP3   OH214393   3.903   0.597   1.085 -0.5742 -0.0664  0.2556
 4796TIP3    H114394   3.846   0.655   1.035 -0.8246 -0.7846 -0.3052
 4796TIP3    H214395   3.907   0.636   1.172 -0.5847  0.8952 -0.1602
 4797TIP3   OH214396   1.345   3.680   2.031 -0.4438  0.1036 -0.3470
 4797TIP3    H114397   1.371   3.625   2.105  0.3844  0.6354 -0.2320
 4797TIP3    H214398   1.257   3.650   2.009 -0.1320 -1.0748 -0.0957
 4798TIP3   OH214399   5.670   3.896   1.602 -0.6338  0.5385  0.1683
 4798TIP3    H114400   5.607   3.864   1.666 -1.1595  0.8113 -0.2030
 4798TIP3    H214401   5.756   3.877   1.641 -0.8792 -1.9596 -0.3047
 4799TIP3   OH214402   4.407   3.856   3.236  0.2501  0.2813 -0.3606
 4799TIP3    H114403   4.408   3.816   3.149  0.1711 -0.3903 -0.0603
 4799TIP3    H214404   4.328   3.823   3.277  0.0795  0.9127 -0.1698
 4800TIP3   OH214405   3.877   5.669   0.161  0.3682  0.1981  0.4843
 4800TIP3    H114406   3.820   5.595   0.181  0.5926  0.0159  0.4592
 4800TIP3    H214407   3.819   5.745   0.155  0.1763  0.0744  0.8046
 4801TIP3   OH214408   1.290   0.479   2.353  0.9015  0.0468  0.0774
 4801TIP3    H114409   1.368   0.434   2.385  0.9039  0.1503  0.2225
 4801TIP3    H214410   1.292   0.565   2.397 -0.9143 -1.0308  2.5547
 4802TIP3   OH214411   6.029   0.863   4.299  0.6693 -0.8065 -0.2974
 4802TIP3    H114412   6.067   0.885   4.385  0.5547 -1.5188 -0.0590
 4802TIP3    H214413   5.980   0.782   4.315 -2.4307  0.9596 -0.2013
 4803TIP3   OH214414   0.556   0.424   1.373 -0.3305 -0.0754  0.1909
 4803TIP3    H114415   0.638   0.437   1.326 -0.8527  2.9533 -0.1058
 4803TIP3    H214416   0.522   0.513   1.387 -1.8473 -1.0028  3.3745
 4804TIP3   OH214417   3.183   4.506   3.012  0.0324 -0.1721  0.1523
 4804TIP3    H114418   3.190   4.411   3.005 -0.0692 -0.0549 -2.8793
 4804TIP3    H214419   3.265   4.533   3.053 -0.3119 -1.5741  1.8913
 4805TIP3   OH214420   0.257   1.368   2.944 -0.0263 -0.0558  0.2167
 4805TIP3    H114421   0.272   1.456   2.910  0.1650 -1.0939 -2.7408
 4805TIP3    H214422   0.164   1.352   2.930  0.1953 -0.7608 -0.5892
 4806TIP3   OH214423   2.368   1.693   0.736  0.0808 -0.4986  0.2517
 4806TIP3    H114424   2.351   1.643   0.816 -0.1438 -1.8348 -0.5929
 4806TIP3    H214425   2.451   1.738   0.753  1.1551 -2.4354  0.4973
 4807TIP3   OH214426   6.073   2.307   2.568 -0.1333  0.0659  0.8038
 4807TIP3    H114427   6.027   2.266   2.641 -1.1074  1.5466  1.0624
 4807TIP3    H214428   6.006   2.317   2.500 -0.1479  1.9000  1.0393
 4808TIP3   OH214429   4.064   0.499   0.744 -0.2542 -0.1387 -0.1333
 4808TIP3    H114430   4.129   0.522   0.678 -0.7477 -2.3139 -1.4815
 4808TIP3    H214431   3.983   0.540   0.713 -0.2608 -0.2943 -0.3244
 4809TIP3   OH214432   1.172   1.759   2.332  0.0877  0.0334  0.5191
 4809TIP3    H114433   1.095   1.711   2.299 -0.4136  0.2365  1.3542
 4809TIP3    H214434   1.247   1.708   2.301 -0.4011 -0.5209  0.2225
 4810TIP3   OH214435   2.745   0.796   5.090 -0.2666 -0.0145 -0.7744
 4810TIP3    H114436   2.731   0.891   5.096  1.8302  0.2892  0.7474
 4810TIP3    H214437   2.706   0.760   5.169 -1.5719 -0.5388 -1.6276
 4811TIP3   OH214438   4.444   1.948   2.731 -0.2457  0.7399  0.5701
 4811TIP3    H114439   4.360   1.952   2.686  0.6309  0.1713 -1.2369
 4811TIP3    H214440   4.507   1.984   2.668  1.0376  0.0130  1.3849
 4812TIP3   OH214441   3.596   2.823   0.371 -0.9374  0.4167 -0.0732
 4812TIP3    H114442   3.548   2.900   0.342 -0.4014  1.5737  1.9290
 4812TIP3    H214443   3.529   2.767   0.411 -1.1801  0.2142 -0.7358
 4813TIP3   OH214444   1.675   0.558   4.427  0.1194 -0.9642  0.1075
 4813TIP3    H114445   1.615   0.629   4.405 -0.2253 -0.3984  2.5248
 4813TIP3    H214446   1.637   0.481   4.384 -1.9176 -0.4506  0.8335
 4814TIP3   OH214447   3.858   0.674   0.351  0.2410 -0.3605  0.5251
 4814TIP3    H114448   3.870   0.753   0.404 -0.5127 -0.7623  1.3377
 4814TIP3    H214449   3.766   0.679   0.323  0.6134 -0.1800 -0.7386
 4815TIP3   OH214450   1.197   5.542   2.181 -0.0587  0.0007 -0.1128
 4815TIP3    H114451   1.230   5.555   2.270  0.3173  2.0035 -0.4990
 4815TIP3    H214452   1.102   5.551   2.189 -0.1543 -1.1512  0.2651
 4816TIP3   OH214453   5.864   4.197   5.151  0.4266 -0.0200  0.0567
 4816TIP3    H114454   5.952   4.176   5.120  0.1506 -1.8204  0.3960
 4816TIP3    H214455   5.827   4.113   5.177 -1.9574  0.4746 -1.4642
 4817TIP3   OH214456   2.024   0.615   1.093  0.1755  0.4074  0.4758
 4817TIP3    H114457   2.023   0.519   1.090 -0.6021  0.3633  1.6865
 4817TIP3    H214458   2.116   0.637   1.105  0.2533 -0.2232  1.0774
 4818TIP3   OH214459   1.466   2.973   1.221 -0.0174  0.4778  0.1199
 4818TIP3    H114460   1.519   3.009   1.149 -0.1359 -0.3161 -0.3824
 4818TIP3    H214461   1.379   3.010   1.206 -0.9166 -2.2008 -2.1622
 4819TIP3   OH214462   5.281   0.866   5.072 -0.2901 -0.4461 -0.0633
 4819TIP3    H114463   5.203   0.826   5.033 -1.1000  0.3469  0.6969
 4819TIP3    H214464   5.247   0.934   5.130  1.0095  0.9654 -0.8677
 4820TIP3   OH214465   0.853   3.313   0.971  0.2033 -0.0441 -0.1541
 4820TIP3    H114466   0.921   3.363   1.015 -1.5694  2.6489 -0.2805
 4820TIP3    H214467   0.896   3.278   0.892  1.7290  0.5558  0.3838
 4821TIP3   OH214468   3.993   1.243   4.908 -0.1612 -0.2883  0.1494
 4821TIP3    H114469   4.009   1.193   4.828 -0.0812 -0.1578  0.0830
 4821TIP3    H214470   4.020   1.185   4.979  0.8347  0.0098  0.0278
 4822TIP3   OH214471   3.107   1.500   0.926  0.0219  0.0705  0.0008
 4822TIP3    H114472   3.111   1.526   1.018  1.3441 -0.6101  0.1443
 4822TIP3    H214473   3.032   1.550   0.891  1.1517  2.4434  0.7747
 4823TIP3   OH214474   6.009   0.515   3.692  0.1644  0.1771  0.8053
 4823TIP3    H114475   5.949   0.573   3.646 -0.7890 -0.2335  1.4959
 4823TIP3    H214476   6.052   0.571   3.756 -2.5788 -0.2290  3.2355
 4824TIP3   OH214477   1.333   5.388   0.950 -0.4143 -0.0869 -0.0981
 4824TIP3    H114478   1.260   5.411   0.893  0.4176  2.7464 -0.1809
 4824TIP3    H214479   1.411   5.418   0.901  0.4434  0.7260  1.6773
 4825TIP3   OH214480   3.618   4.008   4.799 -0.3703  0.4322  0.1610
 4825TIP3    H114481   3.561   4.079   4.828  1.8032  2.3849 -0.0756
 4825TIP3    H214482   3.647   4.034   4.712  0.5997 -0.6773  0.1214
 4826TIP3   OH214483   4.268   5.748   4.872 -0.1132  0.0541  0.4113
 4826TIP3    H114484   4.214   5.825   4.888  0.1223  0.3791 -0.3254
 4826TIP3    H214485   4.243   5.719   4.784  1.1021  0.3760 -0.0577
 4827TIP3   OH214486   3.782   3.856   4.367  0.4474 -0.1851 -0.1264
 4827TIP3    H114487   3.771   3.763   4.350  1.1625 -0.7924  2.3172
 4827TIP3    H214488   3.847   3.861   4.437  0.0450  2.1203  0.1937
 4828TIP3   OH214489   4.145   5.955   1.486 -0.6874 -0.3252  0.2454
 4828TIP3    H114490   4.079   6.024   1.482 -1.5364 -1.1198  0.3493
 4828TIP3    H214491   4.200   5.971   1.409 -1.3248  0.0190 -0.1472
 4829TIP3   OH214492   0.375   0.079   0.861  0.1947 -0.2821 -0.4333
 4829TIP3    H114493   0.373   0.140   0.787  0.5558 -0.5825 -0.6980
 4829TIP3    H214494   0.427   0.124   0.928  1.4272 -0.7511 -1.0492
 4830TIP3   OH214495   0.821   1.277   1.357 -0.1202 -0.5563 -0.7858
 4830TIP3    H114496   0.827   1.359   1.405 -1.4968 -0.4217 -0.8030
 4830TIP3    H214497   0.839   1.300   1.266 -0.5479 -0.2502 -0.7981
 4831TIP3   OH214498   1.564   4.122   1.918  0.3035 -0.2661 -0.0434
 4831TIP3    H114499   1.497   4.064   1.955  0.9190 -0.4079  0.8979
 4831TIP3    H214500   1.624   4.063   1.873  1.5382 -0.5447  1.8474
 4832TIP3   OH214501   6.235   4.132   2.168  0.7354 -0.4482 -0.4868
 4832TIP3    H114502   6.166   4.091   2.221  2.1158 -1.4831  0.5773
 4832TIP3    H214503   6.207   4.223   2.158  0.1956 -0.3375  1.6404
 4833TIP3   OH214504   2.898   0.960   4.487  0.0429 -0.4922 -0.3165
 4833TIP3    H114505   2.967   0.894   4.478 -0.6756 -1.0808 -2.0516
 4833TIP3    H214506   2.818   0.909   4.504 -0.1409  0.1095  0.6808
 4834TIP3   OH214507   2.614   5.316   3.249  0.1331  0.6556 -0.3686
 4834TIP3    H114508   2.649   5.313   3.160  1.0978 -0.1919  0.0307
 4834TIP3    H214509   2.686   5.289   3.305 -0.5701  0.8274  0.6581
 4835TIP3   OH214510   5.526   2.310   2.802 -0.4557  0.0397  0.2953
 4835TIP3    H114511   5.433   2.329   2.794 -0.3898  0.2937  0.1414
 4835TIP3    H214512   5.551   2.273   2.718 -0.1111  1.2648 -0.1534
 4836TIP3   OH214513   3.597   4.273   0.560  0.0227  0.0670 -0.0917
 4836TIP3    H114514   3.508   4.307   0.552  0.1531  0.2344 -0.7951
 4836TIP3    H214515   3.613   4.227   0.478  0.2487 -0.7611  0.4051
 4837TIP3   OH214516   5.743   5.067   4.163 -0.2737  0.0617  0.0508
 4837TIP3    H114517   5.730   4.991   4.219  3.4663  0.0461  1.2286
 4837TIP3    H214518   5.706   5.140   4.213  1.1551 -0.2631  1.7072
 4838TIP3   OH214519   2.114   0.629   1.784  0.1285 -0.0984  0.2928
 4838TIP3    H114520   2.075   0.575   1.853  1.0682 -0.8045  0.2922
 4838TIP3    H214521   2.068   0.713   1.790  1.6789  0.6977  3.3052
 4839TIP3   OH214522   0.560   2.509   3.217 -0.2511 -0.8689 -0.3718
 4839TIP3    H114523   0.502   2.432   3.217 -2.7627  0.8882 -0.0679
 4839TIP3    H214524   0.548   2.547   3.304  0.8460 -0.0496 -0.5634
 4840TIP3   OH214525   2.739   4.497   3.306 -0.7781  0.1290  0.1076
 4840TIP3    H114526   2.644   4.496   3.310 -0.7403 -0.5779  2.4676
 4840TIP3    H214527   2.760   4.517   3.214 -3.1651 -0.5329 -0.6338
 4841TIP3   OH214528   3.507   0.852   0.588  0.4418  0.5140 -0.1212
 4841TIP3    H114529   3.508   0.843   0.493 -0.4251  0.6461 -0.1518
 4841TIP3    H214530   3.565   0.927   0.606  0.5710  0.5152 -0.5431
 4842TIP3   OH214531   6.238   3.557   2.899  0.1122  0.3810 -0.1682
 4842TIP3    H114532   6.242   3.585   2.990  0.8103 -1.3551  0.3754
 4842TIP3    H214533   6.330   3.542   2.875 -0.0678  0.7737 -1.1493
 4843TIP3   OH214534   1.508   2.333   3.533  0.8180 -0.0238  0.4900
 4843TIP3    H114535   1.601   2.335   3.555  0.5475 -0.3275  1.7272
 4843TIP3    H214536   1.506   2.303   3.442  2.0641  3.1393 -0.7057
 4844TIP3   OH214537   5.433   2.938   2.507 -0.9136  0.0758  0.3576
 4844TIP3    H114538   5.502   2.930   2.441  0.8812  3.4809  1.6022
 4844TIP3    H214539   5.355   2.961   2.458 -0.1865  0.2177 -0.7611
 4845TIP3   OH214540   2.303   2.847   3.787  0.3395  0.2120  0.2135
 4845TIP3    H114541   2.267   2.902   3.718 -0.0518 -1.2633 -0.7950
 4845TIP3    H214542   2.396   2.839   3.765  0.6320  1.3049  0.9631
 4846TIP3   OH214543   4.996   2.813   3.781  0.0731  0.1846  0.3926
 4846TIP3    H114544   5.054   2.744   3.814  0.5499  0.6544  0.5633
 4846TIP3    H214545   4.913   2.799   3.826  0.2895 -0.0406  0.7241
 4847TIP3   OH214546   2.883   5.974   5.040  0.0917  0.5439 -0.1103
 4847TIP3    H114547   2.967   6.013   5.016  0.3227  0.2382  0.1920
 4847TIP3    H214548   2.902   5.881   5.048 -0.5069  0.3288 -1.0481
 4848TIP3   OH214549   4.359   1.824   1.589  0.3857 -0.5076 -0.9364
 4848TIP3    H114550   4.315   1.804   1.672  0.8978  2.7455  0.2452
 4848TIP3    H214551   4.287   1.839   1.527 -0.0039 -2.3595 -0.9932
 4849TIP3   OH214552   4.262   2.348   2.712 -0.7225 -0.0333 -0.8709
 4849TIP3    H114553   4.251   2.339   2.807  0.3892  1.1022 -0.6002
 4849TIP3    H214554   4.335   2.410   2.703 -1.3247  0.4835 -2.4664
 4850TIP3   OH214555   1.709   1.932   1.850 -0.8682 -0.9270 -0.1846
 4850TIP3    H114556   1.765   1.864   1.887 -0.3052 -1.2792 -1.6484
 4850TIP3    H214557   1.654   1.960   1.924  0.6424 -1.1600  1.0746
 4851TIP3   OH214558   1.618   0.552   2.310 -0.2627  0.4771 -0.1975
 4851TIP3    H114559   1.546   0.609   2.282  0.4309  1.3009 -0.3205
 4851TIP3    H214560   1.676   0.548   2.234  0.8550  1.4924  0.5772
 4852TIP3   OH214561   4.640   0.298   2.120 -0.1328 -0.0286  0.0427
 4852TIP3    H114562   4.632   0.356   2.045 -2.3854  1.0089  0.9834
 4852TIP3    H214563   4.550   0.271   2.139  0.5326 -1.3723  1.5137
 4853TIP3   OH214564   6.198   2.575   0.230 -0.3586 -0.2933 -0.4318
 4853TIP3    H114565   6.248   2.641   0.277  0.8162 -0.5474 -1.2601
 4853TIP3    H214566   6.209   2.598   0.137 -1.8897 -0.3027 -0.6425
 4854TIP3   OH214567   2.079   1.196   2.023 -0.5172 -0.1093 -0.1362
 4854TIP3    H114568   2.079   1.158   2.111  0.9481  1.0244  0.3988
 4854TIP3    H214569   2.075   1.291   2.038 -1.1962  0.0660 -1.3266
 4855TIP3   OH214570   0.336   4.438   4.871  0.2501  0.8405 -0.0804
 4855TIP3    H114571   0.430   4.456   4.866  0.5375 -0.7857 -1.1044
 4855TIP3    H214572   0.328   4.345   4.851 -1.3778  0.3249  2.4520
 4856TIP3   OH214573   2.045   5.861   1.305 -0.0429 -0.1098 -0.0006
 4856TIP3    H114574   2.100   5.880   1.381  1.1424 -1.6098 -0.4183
 4856TIP3    H214575   2.079   5.918   1.236 -1.3745  1.5397  0.6339
 4857TIP3   OH214576   4.807   2.483   0.452  0.3044  0.5479  0.4394
 4857TIP3    H114577   4.738   2.462   0.516  0.1325  0.1499  0.1238
 4857TIP3    H214578   4.772   2.453   0.368  0.6703  0.7711  0.2048
 4858TIP3   OH214579   2.361   4.413   0.261 -0.7249 -0.5852 -0.2748
 4858TIP3    H114580   2.339   4.429   0.352 -1.8823 -0.8992 -0.4859
 4858TIP3    H214581   2.277   4.405   0.216 -0.1804 -0.8826 -1.2954
 4859TIP3   OH214582   5.252   4.176   3.425 -0.3962  0.3264  0.2459
 4859TIP3    H114583   5.201   4.095   3.425 -0.9517  0.6645 -0.3395
 4859TIP3    H214584   5.318   4.163   3.492 -0.5764 -0.5555  0.2627
 4860TIP3   OH214585   1.777   2.281   2.181  0.2631  0.0760  0.0492
 4860TIP3    H114586   1.863   2.251   2.154  0.5498  0.1661  0.8557
 4860TIP3    H214587   1.735   2.205   2.220 -1.7011 -1.2689 -4.0249
 4861TIP3   OH214588   6.106   0.999   1.441  0.4776  1.0038  0.0229
 4861TIP3    H114589   6.086   1.010   1.348 -0.9655 -0.7922  0.0677
 4861TIP3    H214590   6.023   1.017   1.485  1.2256  2.1723  1.0291
 4862TIP3   OH214591   0.576   2.927   1.601 -0.2996  0.5930 -0.4817
 4862TIP3    H114592   0.620   2.937   1.517 -2.2862 -0.4188 -1.7387
 4862TIP3    H214593   0.487   2.959   1.585  0.0379  3.2120  2.1115
 4863TIP3   OH214594   0.852   2.919   1.764 -0.1283 -0.0677  0.3786
 4863TIP3    H114595   0.848   2.951   1.674 -0.7070 -0.8459  0.1167
 4863TIP3    H214596   0.774   2.955   1.806 -0.5408 -0.7519  0.2078
 4864TIP3   OH214597   0.337   3.001   1.497  0.4389  0.0991 -0.2407
 4864TIP3    H114598   0.330   3.088   1.537  0.3045 -0.4117  0.8740
 4864TIP3    H214599   0.257   2.956   1.523  1.2948 -0.9438  0.6569
 4865TIP3   OH214600   3.445   5.094   2.189  0.3609 -0.0818  0.0644
 4865TIP3    H114601   3.538   5.109   2.169 -0.0730  0.4022 -1.7337
 4865TIP3    H214602   3.438   4.999   2.197  1.3745 -0.0248  2.3384
 4866TIP3   OH214603   4.245   2.964   0.285  0.4592 -0.2462  0.5991
 4866TIP3    H114604   4.333   2.992   0.263  1.5229 -3.2375  0.5254
 4866TIP3    H214605   4.255   2.913   0.365 -1.4990  0.6915  1.5152
 4867TIP3   OH214606   5.324   3.877   4.765 -0.2148 -0.3100 -0.4423
 4867TIP3    H114607   5.250   3.938   4.762  0.6539  0.8160  0.0890
 4867TIP3    H214608   5.352   3.868   4.674 -1.0431 -0.8105 -0.6567
 4868TIP3   OH214609   5.956   1.133   4.290 -0.3012  0.2161 -0.2216
 4868TIP3    H114610   5.980   1.196   4.222 -0.4628 -1.8540 -2.3395
 4868TIP3    H214611   6.028   1.069   4.289 -1.2479 -0.8886  0.1603
 4869TIP3   OH214612   2.794   5.641   0.619  0.5968  0.2889 -0.0480
 4869TIP3    H114613   2.882   5.669   0.592  1.5119 -0.9704  1.4865
 4869TIP3    H214614   2.799   5.546   0.623 -0.7351  0.2182  0.4370
 4870TIP3   OH214615   3.111   1.245   4.258  0.6624  0.1620 -0.1684
 4870TIP3    H114616   3.048   1.228   4.327  0.6268 -0.5458 -0.3680
 4870TIP3    H214617   3.102   1.171   4.198  1.4114  0.2428 -0.3933
 4871TIP3   OH214618   2.745   4.194   3.667  0.3332  0.1884 -0.2074
 4871TIP3    H114619   2.836   4.173   3.647 -0.1511 -1.7200 -0.5112
 4871TIP3    H214620   2.698   4.111   3.661 -1.4140  1.0952  0.1209
 4872TIP3   OH214621   1.688   4.507   4.022  0.7766  0.0962 -0.3633
 4872TIP3    H114622   1.729   4.485   4.106 -0.0492  0.8311  0.2624
 4872TIP3    H214623   1.710   4.599   4.008  2.6654 -0.5280 -2.0332
 4873TIP3   OH214624   6.280   4.938   0.719  0.0113 -0.3796  0.1092
 4873TIP3    H114625   6.360   4.891   0.696  1.3720  1.8409  0.0257
 4873TIP3    H214626   6.287   4.954   0.813 -0.8952 -1.0623  0.3199
 4874TIP3   OH214627   3.620   3.502   3.165 -0.1341 -0.4663  0.0101
 4874TIP3    H114628   3.653   3.442   3.232  0.2956 -0.0439  0.1837
 4874TIP3    H214629   3.666   3.584   3.181 -0.2314 -0.2774 -0.6282
 4875TIP3   OH214630   5.181   0.566   3.760  0.0197 -0.6021  0.6285
 4875TIP3    H114631   5.103   0.593   3.713 -0.2325 -1.0792  0.7577
 4875TIP3    H214632   5.254   0.605   3.712 -0.3211  0.2007  0.7594
 4876TIP3   OH214633   1.348   2.451   4.030 -0.5469  0.1307 -0.1981
 4876TIP3    H114634   1.263   2.426   4.065 -1.5568  2.1397 -1.0255
 4876TIP3    H214635   1.336   2.451   3.935  0.8214 -0.9138 -0.4028
 4877TIP3   OH214636   1.120   5.116   0.642  0.5399  0.0553  0.2359
 4877TIP3    H114637   1.102   5.129   0.549 -1.2729  0.0218  0.5373
 4877TIP3    H214638   1.126   5.021   0.652 -1.7822 -0.1405  0.4917
 4878TIP3   OH214639   4.117   1.867   4.664  0.0053 -0.2438 -0.1606
 4878TIP3    H114640   4.211   1.882   4.665  0.0228 -0.3577  0.5757
 4878TIP3    H214641   4.103   1.805   4.592  0.3092  0.8637 -1.2090
 4879TIP3   OH214642   6.293   4.063   1.577  0.2041 -0.8230  0.2697
 4879TIP3    H114643   6.258   3.990   1.627 -0.0452 -0.2155  1.0027
 4879TIP3    H214644   6.387   4.047   1.573  0.2950 -0.6206  1.3734
 4880TIP3   OH214645   1.462   4.461   0.115  0.4554 -0.5507  0.6555
 4880TIP3    H114646   1.508   4.484   0.034 -1.4075 -2.8364 -1.1910
 4880TIP3    H214647   1.439   4.546   0.154 -0.0800  0.6931 -2.1183
 4881TIP3   OH214648   5.210   0.724   4.744 -0.5908 -0.8064  0.0708
 4881TIP3    H114649   5.253   0.656   4.794 -0.1660 -0.1140  0.6729
 4881TIP3    H214650   5.263   0.802   4.759 -0.5231 -0.5523 -1.3735
 4882TIP3   OH214651   5.998   2.556   0.887 -0.0212  0.3712  0.2942
 4882TIP3    H114652   6.044   2.472   0.880 -0.4820  0.1501 -0.1388
 4882TIP3    H214653   6.021   2.603   0.807  0.4175  0.7522  0.6429
 4883TIP3   OH214654   3.217   5.261   3.460  0.3961  0.4644  0.4943
 4883TIP3    H114655   3.164   5.240   3.384  1.0989 -0.5898  0.2820
 4883TIP3    H214656   3.215   5.357   3.464 -1.3853  0.4587  0.4247
 4884TIP3   OH214657   0.487   4.285   0.812  0.2375  0.2038 -0.2216
 4884TIP3    H114658   0.555   4.334   0.766  1.3539  0.0910  1.2162
 4884TIP3    H214659   0.495   4.314   0.903 -0.4758 -1.1109  0.2790
 4885TIP3   OH214660   4.502   4.373   4.541 -0.0190 -0.0290 -0.6691
 4885TIP3    H114661   4.481   4.459   4.577 -0.3280  0.0120 -0.9348
 4885TIP3    H214662   4.419   4.342   4.505 -0.2874 -1.1523  0.8662
 4886TIP3   OH214663   2.404   1.212   2.691 -0.3777  0.3366 -0.0348
 4886TIP3    H114664   2.343   1.143   2.719 -0.0787  0.7717  1.8868
 4886TIP3    H214665   2.359   1.294   2.712 -1.0436  0.8268 -2.9860
 4887TIP3   OH214666   4.089   4.655   4.401  0.0349  0.1857 -0.8968
 4887TIP3    H114667   4.049   4.714   4.337 -0.6240 -0.1594 -0.8115
 4887TIP3    H214668   4.035   4.577   4.398 -0.4660  0.4519  0.6290
 4888TIP3   OH214669   3.460   2.268   1.140 -0.0988  0.9524  0.9419
 4888TIP3    H114670   3.521   2.267   1.066 -0.6374  1.5766  0.4779
 4888TIP3    H214671   3.414   2.184   1.134  0.4234  0.6479  1.0621
 4889TIP3   OH214672   3.176   3.143   4.609 -0.2375  0.0273 -0.4319
 4889TIP3    H114673   3.153   3.142   4.516  1.0388 -0.4304 -0.7581
 4889TIP3    H214674   3.271   3.131   4.611 -0.3749 -1.0824  0.9723
 4890TIP3   OH214675   0.149   1.403   4.926 -0.1714  0.0765  0.0770
 4890TIP3    H114676   0.227   1.403   4.981  0.6704 -1.3582 -1.0353
 4890TIP3    H214677   0.090   1.340   4.968 -0.6841  1.0198  0.8122
 4891TIP3   OH214678   4.922   1.177   0.645 -0.1335  0.2722 -0.2374
 4891TIP3    H114679   4.934   1.120   0.569 -0.0996  0.4196 -0.3427
 4891TIP3    H214680   5.011   1.206   0.667 -0.2615  1.1947 -0.8875
 4892TIP3   OH214681   0.747   3.369   2.958 -0.0124 -0.1686  0.3129
 4892TIP3    H114682   0.710   3.315   3.028  0.4786 -1.2842 -0.2574
 4892TIP3    H214683   0.784   3.306   2.896  0.6916  0.8331 -0.3239
 4893TIP3   OH214684   5.926   4.219   0.477  0.1828 -0.4767 -0.4162
 4893TIP3    H114685   5.854   4.186   0.531  0.0357 -1.7099 -1.3033
 4893TIP3    H214686   6.005   4.187   0.520  0.1719  0.3969  0.2524
 4894TIP3   OH214687   5.495   1.254   0.248 -0.2927 -0.4150 -0.3888
 4894TIP3    H114688   5.506   1.349   0.253 -0.5024 -0.3702 -0.7631
 4894TIP3    H214689   5.462   1.238   0.160 -1.0931 -0.7554 -0.0422
 4895TIP3   OH214690   4.115   1.076   0.389  0.3931  0.1231  0.0313
 4895TIP3    H114691   4.151   1.109   0.471  0.5970  0.1418 -0.0643
 4895TIP3    H214692   4.191   1.044   0.340  0.5483  1.8797 -0.9723
 4896TIP3   OH214693   5.507   0.138   0.082  0.1931 -0.5828 -0.0329
 4896TIP3    H114694   5.419   0.145   0.118 -0.0319  0.7890 -0.7683
 4896TIP3    H214695   5.513   0.049   0.048 -1.1179 -0.5017 -0.5061
 4897TIP3   OH214696   4.536   4.135   2.970 -0.4638 -0.0114  0.6539
 4897TIP3    H114697   4.532   4.120   2.876 -1.6419  0.0830  0.6821
 4897TIP3    H214698   4.611   4.193   2.982  1.0224 -1.6976  0.0164
 4898TIP3   OH214699   2.851   5.024   0.777  0.2085 -0.1477 -0.2396
 4898TIP3    H114700   2.900   5.094   0.733  0.0163 -0.1783 -0.5091
 4898TIP3    H214701   2.761   5.037   0.748  0.3480 -1.1903 -1.1866
 4899TIP3   OH214702   2.942   2.959   3.034  0.0184 -0.8832  0.1298
 4899TIP3    H114703   2.997   2.958   3.113 -0.9529  0.2999  0.8636
 4899TIP3    H214704   2.856   2.990   3.065  0.4350  2.8384 -1.8671
 4900TIP3   OH214705   4.939   6.029   1.018  0.7833 -0.8749  0.3262
 4900TIP3    H114706   4.974   5.951   1.060  2.3504 -1.4018 -1.7796
 4900TIP3    H214707   4.875   5.995   0.955  0.9014 -0.4029 -0.0559
 4901TIP3   OH214708   2.211   3.046   3.429 -0.5088  0.0610  0.2645
 4901TIP3    H114709   2.175   3.129   3.401  0.4134  0.2281 -0.4790
 4901TIP3    H214710   2.181   3.036   3.520 -2.0154  0.3823 -0.1693
 4902TIP3   OH214711   1.247   5.045   3.438 -0.2236 -0.1422  0.3753
 4902TIP3    H114712   1.258   4.966   3.492  0.6278 -0.6205 -0.4670
 4902TIP3    H214713   1.314   5.105   3.470  0.1923 -0.3743 -0.0663
 4903TIP3   OH214714   2.449   3.736   0.607 -0.1936  0.2337  0.0085
 4903TIP3    H114715   2.403   3.807   0.652 -0.0376  0.2553  0.1347
 4903TIP3    H214716   2.535   3.772   0.586 -0.4250  0.3827 -0.7315
 4904TIP3   OH214717   2.185   1.588   3.334  0.3681 -0.3936 -0.3405
 4904TIP3    H114718   2.185   1.545   3.248 -1.2106 -1.2839  0.0670
 4904TIP3    H214719   2.093   1.592   3.359  0.7395  0.5617  0.9813
 4905TIP3   OH214720   0.059   3.670   1.643  0.5378  0.3604 -0.8956
 4905TIP3    H114721   0.155   3.673   1.635  0.6473  0.3643  0.1836
 4905TIP3    H214722   0.028   3.737   1.583  1.2376  0.6145 -0.9896
 4906TIP3   OH214723   1.572   2.039   0.590 -0.2744 -0.2202 -0.1581
 4906TIP3    H114724   1.479   2.018   0.596 -0.4170  0.6150  0.6937
 4906TIP3    H214725   1.593   2.079   0.674  0.3164  1.7199 -1.1670
 4907TIP3   OH214726   3.906   5.590   2.251  0.1567  0.0976 -0.1018
 4907TIP3    H114727   3.823   5.619   2.290 -0.3829 -0.7250 -0.5927
 4907TIP3    H214728   3.965   5.580   2.325 -0.5587 -0.4920  0.4070
 4908TIP3   OH214729   2.355   4.121   4.876  0.0604  0.3891  0.1794
 4908TIP3    H114730   2.405   4.154   4.951 -0.5036  2.2848 -0.2040
 4908TIP3    H214731   2.341   4.199   4.822  0.8193 -0.9819 -2.1396
 4909TIP3   OH214732   4.518   3.123   0.252  0.4531  0.4867 -0.5696
 4909TIP3    H114733   4.608   3.145   0.276 -0.1259  0.3182  2.1931
 4909TIP3    H214734   4.468   3.202   0.274 -0.3731 -0.2750  0.4237
 4910TIP3   OH214735   5.852   3.192   3.365  0.0153 -0.0087  0.2880
 4910TIP3    H114736   5.822   3.135   3.294  0.2446 -1.2351  1.1390
 4910TIP3    H214737   5.910   3.137   3.417 -2.0927 -0.0240  2.8790
 4911TIP3   OH214738   1.102   0.728   0.153  0.0066  0.2055 -0.6792
 4911TIP3    H114739   1.152   0.716   0.072  1.6633 -0.2320  0.3541
 4911TIP3    H214740   1.112   0.645   0.200 -0.7070  0.5402  0.1037
 4912TIP3   OH214741   4.856   2.614   2.692  0.1763 -0.3863  0.2276
 4912TIP3    H114742   4.836   2.520   2.693 -0.3743 -0.2864  1.5380
 4912TIP3    H214743   4.842   2.641   2.602  1.9001 -1.8676 -0.5587
 4913TIP3   OH214744   4.836   3.993   3.404 -0.2375  0.3131  0.4089
 4913TIP3    H114745   4.927   3.983   3.434 -0.1475  1.6766  0.6668
 4913TIP3    H214746   4.839   3.972   3.311  0.3202  0.2279  0.4395
 4914TIP3   OH214747   2.847   2.030   3.585 -0.0357 -0.1542 -1.0518
 4914TIP3    H114748   2.806   2.116   3.585  1.1642  0.4293 -1.5309
 4914TIP3    H214749   2.841   2.001   3.676  1.5114  1.4098 -0.4052
 4915TIP3   OH214750   4.949   4.039   1.965 -0.1038  0.4725  0.0833
 4915TIP3    H114751   4.913   3.979   2.031 -0.0509  1.3398  0.9146
 4915TIP3    H214752   5.027   3.994   1.932 -1.8004 -1.4202 -1.6934
 4916TIP3   OH214753   1.740   5.531   1.236 -0.2473  0.4003 -0.0077
 4916TIP3    H114754   1.705   5.494   1.316  0.5151 -0.6685 -0.1451
 4916TIP3    H214755   1.835   5.536   1.251 -0.3536  2.7384  0.1704
 4917TIP3   OH214756   1.372   4.459   2.332  0.3542 -0.1178 -0.1052
 4917TIP3    H114757   1.389   4.401   2.258 -0.7364  0.9415 -1.2290
 4917TIP3    H214758   1.325   4.404   2.395  0.6312 -0.8379 -0.5140
 4918TIP3   OH214759   0.519   4.892   3.576 -0.2374 -0.2072 -0.8297
 4918TIP3    H114760   0.608   4.922   3.558  0.6135 -2.3225 -0.4576
 4918TIP3    H214761   0.526   4.797   3.582 -2.1837 -0.3137  1.0767
 4919TIP3   OH214762   1.144   4.714   4.313 -0.0405 -0.3256  0.0226
 4919TIP3    H114763   1.073   4.653   4.334 -2.3779  1.6763 -1.4481
 4919TIP3    H214764   1.211   4.697   4.379 -2.8084 -0.8293  2.9522
 4920TIP3   OH214765   1.005   2.275   1.130  0.2955 -0.2295  0.2828
 4920TIP3    H114766   0.966   2.189   1.113 -0.9864  0.4024 -0.0711
 4920TIP3    H214767   1.029   2.272   1.223 -0.1016 -0.8233  0.3737
 4921TIP3   OH214768   6.122   0.737   1.744 -0.6246  0.5513 -0.0443
 4921TIP3    H114769   6.162   0.802   1.803  1.2161 -0.0845 -0.5280
 4921TIP3    H214770   6.168   0.748   1.661 -0.0198 -1.5453 -0.0583
 4922TIP3   OH214771   4.960   0.888   4.721  0.0292  0.3478  0.0803
 4922TIP3    H114772   4.922   0.905   4.635  0.9485  1.6264 -0.1024
 4922TIP3    H214773   5.027   0.820   4.705 -0.2989  0.0584 -0.0729
 4923TIP3   OH214774   2.871   4.973   1.553  0.3053 -0.1523  0.2437
 4923TIP3    H114775   2.889   4.919   1.630 -1.5574  1.1808  1.6856
 4923TIP3    H214776   2.828   5.051   1.587  0.5768  1.0934 -2.0368
 4924TIP3   OH214777   0.672   1.955   4.474 -0.2806 -0.5311 -0.0803
 4924TIP3    H114778   0.601   1.934   4.412 -0.6808  1.6942 -0.4708
 4924TIP3    H214779   0.630   2.006   4.543  1.0199  1.6280 -0.7784
 4925TIP3   OH214780   3.389   0.634   1.064  0.1897 -0.3926 -0.6935
 4925TIP3    H114781   3.326   0.695   1.104  1.2070  0.3408 -0.1602
 4925TIP3    H214782   3.427   0.683   0.992 -0.0039 -0.9152 -1.1532
 4926TIP3   OH214783   0.338   5.322   0.889 -0.2846 -0.5329  0.2147
 4926TIP3    H114784   0.430   5.327   0.917 -0.3065 -0.1074  0.2292
 4926TIP3    H214785   0.334   5.244   0.834  0.0454 -0.6612  0.3638
 4927TIP3   OH214786   4.833   5.198   2.038  0.1886 -0.1147 -0.1095
 4927TIP3    H114787   4.863   5.108   2.027  1.3115  0.2873 -0.5656
 4927TIP3    H214788   4.741   5.197   2.012  0.0516 -1.2197  0.3783
 4928TIP3   OH214789   1.767   4.217   2.978 -0.6905  0.1813  0.2755
 4928TIP3    H114790   1.697   4.159   2.948 -0.0192 -0.0323 -0.9528
 4928TIP3    H214791   1.748   4.301   2.937 -0.5243  0.2550  0.3495
 4929TIP3   OH214792   0.392   2.251   0.262 -0.7466  0.0898 -0.0501
 4929TIP3    H114793   0.313   2.286   0.220  0.1573 -0.1933 -2.1094
 4929TIP3    H214794   0.387   2.157   0.246  0.5010  0.1866 -1.1343
 4930TIP3   OH214795   3.627   4.626   2.005  0.4645  0.0084  0.0897
 4930TIP3    H114796   3.699   4.642   2.066  1.4559 -1.5014 -0.6055
 4930TIP3    H214797   3.668   4.579   1.932 -1.3285 -1.4660 -0.0373
 4931TIP3   OH214798   5.547   3.345   1.910  0.0799 -0.3905 -0.2986
 4931TIP3    H114799   5.568   3.381   1.996 -0.0451  0.0077 -0.4308
 4931TIP3    H214800   5.632   3.317   1.875  0.0204 -1.4020  0.3179
 4932TIP3   OH214801   3.199   2.052   2.761  0.3340 -0.2205  0.4766
 4932TIP3    H114802   3.254   1.997   2.706 -1.4811  0.9054 -2.6854
 4932TIP3    H214803   3.258   2.118   2.797  1.4066 -0.3480 -1.0055
 4933TIP3   OH214804   6.197   2.559   5.083 -0.5517 -0.0325 -0.1853
 4933TIP3    H114805   6.272   2.502   5.098 -0.9640 -0.1108  1.9042
 4933TIP3    H214806   6.126   2.500   5.058 -0.6866 -0.3167  0.8471
 4934TIP3   OH214807   2.418   4.401   0.937 -0.0673 -0.1594  0.4497
 4934TIP3    H114808   2.446   4.434   0.851  0.1346  2.1113  1.3099
 4934TIP3    H214809   2.453   4.465   0.999 -0.9487 -1.2758  2.1670
 4935TIP3   OH214810   4.642   3.868   2.128 -0.3943  0.4777 -0.2040
 4935TIP3    H114811   4.689   3.819   2.195  1.5012 -1.8746 -2.9751
 4935TIP3    H214812   4.595   3.801   2.078 -0.6184  1.9012 -2.0260
 4936TIP3   OH214813   4.204   1.837   4.050 -0.1185 -0.1973 -0.2100
 4936TIP3    H114814   4.280   1.800   4.005 -0.2787 -0.0461 -0.6061
 4936TIP3    H214815   4.130   1.814   3.994 -0.3975 -0.5371  0.2840
 4937TIP3   OH214816   6.098   1.547   2.798 -0.3088  0.4831  0.4591
 4937TIP3    H114817   6.175   1.526   2.850  0.0658 -0.0133 -0.2687
 4937TIP3    H214818   6.117   1.510   2.712 -2.3816 -1.8532  0.8943
 4938TIP3   OH214819   0.927   1.146   0.323 -0.3214  0.0564  0.0915
 4938TIP3    H114820   1.016   1.136   0.358  0.5620  0.1864 -1.9644
 4938TIP3    H214821   0.886   1.061   0.337  0.5165 -0.3589  0.0871
 4939TIP3   OH214822   3.333   3.282   3.346 -0.2089  0.2334 -0.2626
 4939TIP3    H114823   3.393   3.279   3.421 -0.5119 -0.5252 -0.0369
 4939TIP3    H214824   3.253   3.321   3.381 -0.3159 -0.0257 -0.2223
 4940TIP3   OH214825   3.675   3.804   1.523  0.7866  0.6350  0.5850
 4940TIP3    H114826   3.658   3.887   1.478 -1.0686  0.2328  0.4690
 4940TIP3    H214827   3.763   3.779   1.495  1.3500  2.5129  0.5712
 4941TIP3   OH214828   4.501   1.336   4.428 -0.1177  0.4785 -0.2389
 4941TIP3    H114829   4.440   1.408   4.412  0.4307  0.9285 -0.3670
 4941TIP3    H214830   4.533   1.350   4.518 -1.4119 -0.6895  0.4391
 4942TIP3   OH214831   2.655   5.214   0.059  0.1117  0.7635 -0.2107
 4942TIP3    H114832   2.590   5.212   0.129 -0.6488  1.2034 -0.8911
 4942TIP3    H214833   2.641   5.298   0.016 -0.1169  0.0524 -1.5494
 4943TIP3   OH214834   1.507   2.237   4.105 -0.0865  0.2526  0.6554
 4943TIP3    H114835   1.560   2.239   4.025  2.2975  0.7746  2.1493
 4943TIP3    H214836   1.436   2.298   4.087  0.7302  0.8358 -0.8654
 4944TIP3   OH214837   6.160   3.461   4.296  0.4558  0.0434 -0.2847
 4944TIP3    H114838   6.106   3.494   4.224  1.2828 -0.1159 -0.9911
 4944TIP3    H214839   6.116   3.491   4.375 -0.3262  0.4422 -0.8608
 4945TIP3   OH214840   2.959   4.394   3.445 -0.5317  0.0022 -0.0105
 4945TIP3    H114841   3.014   4.471   3.459 -0.3204 -0.0681 -0.4489
 4945TIP3    H214842   2.898   4.420   3.376 -0.3328 -0.2907 -0.2958
 4946TIP3   OH214843   1.466   0.741   3.984  0.0079 -0.1998 -0.2823
 4946TIP3    H114844   1.521   0.770   4.057 -1.0868  1.5795 -0.0968
 4946TIP3    H214845   1.429   0.658   4.013 -0.8408  0.7390  1.4682
 4947TIP3   OH214846   4.335   0.987   0.847  0.8741  0.1729  0.1407
 4947TIP3    H114847   4.315   0.977   0.941  0.5245  0.3382  0.0874
 4947TIP3    H214848   4.270   0.931   0.804  0.2572  1.0155 -0.0562
 4948TIP3   OH214849   5.386   5.258   1.575 -0.0421  0.1596  0.2680
 4948TIP3    H114850   5.311   5.212   1.612 -0.3035  2.3796  2.7919
 4948TIP3    H214851   5.358   5.349   1.568  2.3357  1.0351  1.1450
 4949TIP3   OH214852   1.422   0.406  -0.022  0.4375 -0.4793  0.4256
 4949TIP3    H114853   1.409   0.416   0.073  1.1756 -0.8437  0.5760
 4949TIP3    H214854   1.394   0.316  -0.040  0.6299 -0.5280  0.3653
 4950TIP3   OH214855   0.665   4.754   0.543  0.0331  0.7021 -0.4555
 4950TIP3    H114856   0.644   4.681   0.485 -1.1654 -0.6079  1.5214
 4950TIP3    H214857   0.759   4.744   0.561 -0.0850 -0.2708 -0.3358
 4951TIP3   OH214858   2.016   3.645   4.449  0.3561 -0.7284 -0.0476
 4951TIP3    H114859   2.036   3.608   4.363  0.6562 -1.2265  0.2349
 4951TIP3    H214860   2.072   3.723   4.455  0.0777 -0.4935 -0.4440
 4952TIP3   OH214861   2.455   2.485   2.081 -0.0619  0.1626  0.6021
 4952TIP3    H114862   2.468   2.557   2.143  0.1166 -0.4433  1.2870
 4952TIP3    H214863   2.460   2.526   1.995  1.1025  0.7918  0.9538
 4953TIP3   OH214864   5.927   2.155   0.255 -0.2969 -0.7538 -0.3337
 4953TIP3    H114865   6.014   2.119   0.276 -0.6171 -2.7416 -2.1538
 4953TIP3    H214866   5.892   2.183   0.340  1.9681 -0.1758  0.4835
 4954TIP3   OH214867   1.327   1.833   1.784  0.5606 -0.3610  0.9271
 4954TIP3    H114868   1.248   1.884   1.803  0.4430 -0.5940  1.0793
 4954TIP3    H214869   1.372   1.883   1.716  1.4014  0.9086  2.3643
 4955TIP3   OH214870   5.217   4.028   1.825  0.9365  0.2474  0.3509
 4955TIP3    H114871   5.256   4.063   1.744  2.7407  0.9156  1.4435
 4955TIP3    H214872   5.190   3.939   1.802 -1.3651  1.3720 -1.7929
 4956TIP3   OH214873   5.178   1.751   3.865  0.3218 -0.4740 -0.4933
 4956TIP3    H114874   5.247   1.723   3.925 -1.2744 -2.2141  0.6370
 4956TIP3    H214875   5.167   1.678   3.804  0.9658  0.7049 -2.0984
 4957TIP3   OH214876   2.028   2.085   0.688  0.1554  0.4857  0.6682
 4957TIP3    H114877   1.972   2.015   0.722  0.0669  0.4774  0.5047
 4957TIP3    H214878   2.076   2.116   0.765  0.8814 -0.3714  0.5749
 4958TIP3   OH214879   2.649   4.503   1.397 -0.0859  0.0730  0.4394
 4958TIP3    H114880   2.682   4.585   1.434 -0.2399  0.0200  0.6927
 4958TIP3    H214881   2.563   4.491   1.438  0.0136 -0.3106  0.5396
 4959TIP3   OH214882   2.864   0.612   4.901 -0.3603  0.2075  0.0038
 4959TIP3    H114883   2.885   0.629   4.809  0.5391 -0.5258  0.0603
 4959TIP3    H214884   2.867   0.698   4.943  0.0380  0.4345 -0.4904
 4960TIP3   OH214885   1.137   0.922   5.076  0.2182 -0.5008  0.5490
 4960TIP3    H114886   1.066   0.931   5.140 -1.3972 -0.7451 -1.1301
 4960TIP3    H214887   1.140   0.828   5.056 -0.7253 -0.1802 -1.2394
 4961TIP3   OH214888   2.270   3.261   1.760 -0.0934 -0.0012 -0.4701
 4961TIP3    H114889   2.216   3.186   1.782  0.6472  0.2673  2.7173
 4961TIP3    H214890   2.359   3.234   1.781  0.2230  1.6099  0.4761
 4962TIP3   OH214891   5.413   5.069   5.182  0.0451  0.1142 -0.2813
 4962TIP3    H114892   5.369   5.055   5.098 -0.6570 -3.2823  0.4756
 4962TIP3    H214893   5.496   5.022   5.174 -0.4241 -1.0251  1.1635
 4963TIP3   OH214894   3.916   1.917   0.164  0.0224  0.0513  0.1669
 4963TIP3    H114895   3.965   1.836   0.181  0.2098  0.2251  0.4643
 4963TIP3    H214896   3.835   1.887   0.123  1.1026 -0.1345 -1.9706
 4964TIP3   OH214897   1.325   5.384   0.205 -0.1247  0.0034  0.2904
 4964TIP3    H114898   1.348   5.373   0.297  3.0471  0.0907 -0.3748
 4964TIP3    H214899   1.406   5.365   0.158 -1.8732 -0.9946 -2.5883
 4965TIP3   OH214900   6.070   2.674   1.429  0.6709 -0.5988  0.0732
 4965TIP3    H114901   6.159   2.702   1.409  0.4711 -0.8283 -1.2578
 4965TIP3    H214902   6.016   2.752   1.413  0.6400 -0.4281  0.9848
 4966TIP3   OH214903   2.189   2.844   4.672 -0.1813 -0.1676  0.2448
 4966TIP3    H114904   2.213   2.926   4.715  0.8909 -0.2683 -0.1418
 4966TIP3    H214905   2.096   2.855   4.650 -0.6969  0.0002  2.2953
 4967TIP3   OH214906   0.580   1.289   4.365 -0.0071  0.2319  0.0155
 4967TIP3    H114907   0.518   1.222   4.392  1.2445 -0.4674  1.2617
 4967TIP3    H214908   0.529   1.348   4.310 -1.8136 -0.2173  1.1410
 4968TIP3   OH214909   3.500   5.809   3.901 -0.0746  0.8410  0.5879
 4968TIP3    H114910   3.518   5.899   3.928  2.3114  0.1386  1.5971
 4968TIP3    H214911   3.523   5.756   3.977  0.0942 -0.7481 -0.5249
 4969TIP3   OH214912   1.706   5.497   0.503 -0.1796  0.0752 -0.0651
 4969TIP3    H114913   1.721   5.586   0.536  1.5333  0.1772 -0.9920
 4969TIP3    H214914   1.745   5.439   0.568  0.8952  0.1513 -0.6154
 4970TIP3   OH214915   0.439   1.840   2.137  0.1398  0.5095  0.3162
 4970TIP3    H114916   0.364   1.889   2.102 -0.6516 -0.1798  0.9840
 4970TIP3    H214917   0.483   1.804   2.061 -1.3967 -0.7561 -0.0237
 4971TIP3   OH214918   3.544   0.561   2.866 -0.1813 -0.3599  0.2153
 4971TIP3    H114919   3.526   0.467   2.864 -1.8079 -0.0884 -1.9061
 4971TIP3    H214920   3.624   0.571   2.815 -0.1299 -0.5764  0.2509
 4972TIP3   OH214921   1.884   2.710   1.528  0.2918  0.1870  0.2376
 4972TIP3    H114922   1.939   2.632   1.521 -1.8167 -1.3068 -0.6676
 4972TIP3    H214923   1.835   2.698   1.609 -0.3156  0.3862 -0.0956
 4973TIP3   OH214924   3.307   0.896   1.892 -0.2717  0.1343 -0.3241
 4973TIP3    H114925   3.283   0.821   1.947 -0.3363 -0.5764 -1.2947
 4973TIP3    H214926   3.332   0.964   1.954  0.5935 -0.9570  0.5648
 4974TIP3   OH214927   0.168   5.473   3.404  0.0363 -1.1097  0.3532
 4974TIP3    H114928   0.159   5.378   3.414  2.3876 -1.2993  1.2748
 4974TIP3    H214929   0.215   5.501   3.483 -0.9487  0.8951  0.2777
 4975TIP3   OH214930   1.333   3.331   1.519  0.4077  0.6304  0.4239
 4975TIP3    H114931   1.263   3.266   1.523  0.8772  0.0630 -0.2700
 4975TIP3    H214932   1.414   3.280   1.515  0.7313  1.2135 -1.2042
 4976TIP3   OH214933   2.350   3.514   0.820  0.3919  0.1743  0.0907
 4976TIP3    H114934   2.310   3.591   0.861 -0.5126 -0.8762  1.2896
 4976TIP3    H214935   2.411   3.549   0.755 -2.1034  1.8912 -1.4949
 4977TIP3   OH214936   1.125   1.210   4.870 -0.2138 -0.3739  0.1138
 4977TIP3    H114937   1.054   1.246   4.923 -0.3919 -1.1502  0.4104
 4977TIP3    H214938   1.194   1.276   4.874 -0.2381 -0.3986  1.2770
 4978TIP3   OH214939   1.353   3.449   4.361 -0.5876 -0.1667  0.6720
 4978TIP3    H114940   1.362   3.488   4.448  0.5693 -0.2810  0.6125
 4978TIP3    H214941   1.435   3.404   4.346  0.7586  2.7515 -1.8968
 4979TIP3   OH214942   6.002   2.539   4.420  0.2974  0.0208  0.0582
 4979TIP3    H114943   6.038   2.514   4.506  0.8437 -0.0380 -0.1803
 4979TIP3    H214944   5.994   2.457   4.372  2.4338  0.2826 -0.8518
 4980TIP3   OH214945   0.402   4.769   2.256 -0.2177 -0.1644  0.4125
 4980TIP3    H114946   0.421   4.827   2.329  2.6151 -1.3198  0.7218
 4980TIP3    H214947   0.360   4.692   2.296 -0.7479  0.1512  0.4746
 4981TIP3   OH214948   3.605   5.809   0.038 -0.2017  0.1234 -0.6914
 4981TIP3    H114949   3.625   5.740  -0.026 -1.5498 -0.5915 -0.3819
 4981TIP3    H214950   3.514   5.833   0.020 -0.8237 -0.5249  1.2981
 4982TIP3   OH214951   5.225   5.615   3.450 -0.1903 -0.5699  0.2877
 4982TIP3    H114952   5.252   5.593   3.361 -0.4934  0.1458  0.0130
 4982TIP3    H214953   5.180   5.699   3.442  0.0599 -0.3391  1.1585
 4983TIP3   OH214954   5.967   0.754   3.543 -0.2373 -0.1360 -0.2415
 4983TIP3    H114955   6.033   0.695   3.506  0.7296 -1.5372  3.3163
 4983TIP3    H214956   6.018   0.824   3.585 -1.2691  1.3288 -1.2931
 4984TIP3   OH214957   0.541   5.239   4.449  0.3245  0.1571  0.0602
 4984TIP3    H114958   0.589   5.259   4.369 -2.4538 -1.7131 -2.2968
 4984TIP3    H214959   0.485   5.316   4.464  0.1169  0.1059 -0.4362
 4985TIP3   OH214960   5.218   2.280   1.733 -0.0159 -0.2302  0.0068
 4985TIP3    H114961   5.271   2.344   1.686 -1.2615 -0.3888 -1.6736
 4985TIP3    H214962   5.229   2.199   1.683 -1.7497 -0.2871 -0.3250
 4986TIP3   OH214963   3.646   5.577   1.971 -0.5558  0.5256  0.0039
 4986TIP3    H114964   3.626   5.520   2.046  0.7489  0.2134  0.1424
 4986TIP3    H214965   3.736   5.553   1.947 -1.1244  0.2322 -2.0061
 4987TIP3   OH214966   0.352   3.552   2.380  0.8017 -0.0017  0.1587
 4987TIP3    H114967   0.362   3.485   2.447  1.3542  1.0688  1.1809
 4987TIP3    H214968   0.260   3.547   2.354 -0.0408  1.0852  2.6696
 4988TIP3   OH214969   6.138   5.268   3.085 -0.8083 -0.0418  0.0123
 4988TIP3    H114970   6.172   5.314   3.162  0.8520 -0.0889 -0.6531
 4988TIP3    H214971   6.122   5.338   3.022 -2.1178 -0.0100  0.3472
 4989TIP3   OH214972   2.851   2.327   2.924  0.0352  0.0646 -0.0867
 4989TIP3    H114973   2.829   2.236   2.904 -0.3533  0.6492 -2.6957
 4989TIP3    H214974   2.770   2.365   2.958 -0.1402 -0.2792 -0.1155
 4990TIP3   OH214975   1.337   2.728   1.823  0.0961 -0.4147  0.2078
 4990TIP3    H114976   1.357   2.821   1.818 -0.0643 -0.3623  0.5365
 4990TIP3    H214977   1.334   2.708   1.916 -1.1734 -0.4542  0.1847
 4991TIP3   OH214978   0.467   0.385   4.145 -0.0441 -0.5087 -0.6958
 4991TIP3    H114979   0.452   0.479   4.155  2.1379 -0.2636  1.1168
 4991TIP3    H214980   0.504   0.376   4.057 -0.1541  0.3594 -0.8435
 4992TIP3   OH214981   3.605   3.023   4.138  0.2214 -0.5183  0.0716
 4992TIP3    H114982   3.539   3.032   4.207 -1.0825 -2.3389 -0.8310
 4992TIP3    H214983   3.674   3.084   4.162 -0.1438 -1.1014  3.0278
 4993TIP3   OH214984   0.539   5.234   3.993 -0.6070 -0.5616 -0.1588
 4993TIP3    H114985   0.567   5.280   3.914  0.3688 -1.1115 -0.1495
 4993TIP3    H214986   0.589   5.275   4.064 -3.8859  2.2717  0.7884
 4994TIP3   OH214987   2.782   4.616   4.808 -0.1572  0.0788 -0.3086
 4994TIP3    H114988   2.767   4.682   4.875 -0.6876 -0.7972  0.4779
 4994TIP3    H214989   2.875   4.598   4.812 -0.3671 -0.8991  1.1511
 4995TIP3   OH214990   3.706   5.451   3.414  0.1001 -0.3461  0.1429
 4995TIP3    H114991   3.649   5.491   3.349 -1.6723 -0.2043  1.6852
 4995TIP3    H214992   3.698   5.357   3.398  1.9623 -0.2553 -1.6227
 4996TIP3   OH214993   2.441   0.226  -0.029  0.3667 -0.0463  0.2246
 4996TIP3    H114994   2.429   0.303   0.026 -1.5167 -0.4403  0.4521
 4996TIP3    H214995   2.506   0.173   0.017  0.0857  0.4280  1.1822
 4997TIP3   OH214996   4.906   4.782   2.875 -0.1620  0.1422 -0.1909
 4997TIP3    H114997   4.816   4.811   2.859  0.4167  2.3482  0.2483
 4997TIP3    H214998   4.944   4.851   2.929  1.8115 -0.7608 -0.3504
 4998TIP3   OH214999   0.079   5.958   1.366  0.6816 -0.0508  0.1977
 4998TIP3    H115000   0.141   5.900   1.410  1.3737  0.0744 -0.6026
 4998TIP3    H215001   0.056   6.023   1.433  0.9943 -0.4148  0.6647
 4999TIP3   OH215002   4.333   5.252   3.369  0.2817  0.2820  0.5797
 4999TIP3    H115003   4.243   5.278   3.353 -0.0413 -0.5423  0.9748
 4999TIP3    H215004   4.334   5.157   3.353  1.0836  0.2918  0.5242
 5000TIP3   OH215005   4.953   2.215   0.813  0.2741 -0.2605 -0.0641
 5000TIP3    H115006   5.016   2.225   0.884  0.1545 -0.5085  0.0800
 5000TIP3    H215007   4.967   2.290   0.756  0.2028  0.0711  0.3544
 5001TIP3   OH215008   1.894   4.221   1.527 -0.2866  0.4902  0.1377
 5001TIP3    H115009   1.969   4.167   1.501  0.2645  1.6180 -0.6980
 5001TIP3    H215010   1.914   4.248   1.617 -0.1852 -0.0247  0.2754
 5002TIP3   OH215011   4.122   2.098   0.998 -0.2913 -0.0217 -0.4159
 5002TIP3    H115012   4.114   2.178   0.945  0.0745 -0.7404 -1.5990
 5002TIP3    H215013   4.076   2.031   0.947 -2.3509 -0.1689  1.5068
 5003TIP3   OH215014   5.516   3.021   2.917  0.2073  0.3112 -0.0702
 5003TIP3    H115015   5.565   3.017   2.835  0.0607  1.7548 -0.2491
 5003TIP3    H215016   5.575   3.066   2.978 -0.6830  1.6205 -0.1496
 5004TIP3   OH215017   2.696   4.758   1.005 -0.0889 -0.0462 -0.6954
 5004TIP3    H115018   2.735   4.838   1.041 -0.2046 -0.4889  0.4528
 5004TIP3    H215019   2.765   4.720   0.951  1.6348 -1.4664  2.2622
 5005TIP3   OH215020   5.671   3.815   0.015 -0.0103  0.2576  0.1400
 5005TIP3    H115021   5.608   3.884  -0.004  0.2871  0.1945 -1.1655
 5005TIP3    H215022   5.631   3.765   0.087 -2.0715 -0.5482 -1.4565
 5006TIP3   OH215023   4.077   5.929   4.989  0.4838 -0.0440  0.5959
 5006TIP3    H115024   3.982   5.934   5.003  0.4573 -1.3908  1.0510
 5006TIP3    H215025   4.098   6.008   4.938 -1.1905 -0.6369 -1.1450
 5007TIP3   OH215026   1.877   3.693   2.514 -0.3788  0.0413  0.2669
 5007TIP3    H115027   1.811   3.628   2.539 -0.7048 -0.2100 -1.1525
 5007TIP3    H215028   1.883   3.685   2.419 -0.8477  2.4791 -0.0327
 5008TIP3   OH215029   0.604   5.063   2.263 -0.0028  0.6223  0.0122
 5008TIP3    H115030   0.529   5.035   2.316 -1.3223 -1.4955 -2.7441
 5008TIP3    H215031   0.674   5.003   2.287 -0.1394  0.6163  0.4056
 5009TIP3   OH215032   3.903   3.549   3.317 -0.4702 -0.0069 -0.0373
 5009TIP3    H115033   3.934   3.470   3.272 -0.4748  0.0938 -0.2186
 5009TIP3    H215034   3.830   3.519   3.371 -2.2371  0.2941 -2.1015
 5010TIP3   OH215035   0.640   5.345   2.366  0.2839  0.0848  0.1189
 5010TIP3    H115036   0.581   5.399   2.313 -1.7098 -0.9272  1.2126
 5010TIP3    H215037   0.646   5.262   2.319  0.2061 -0.0880  0.4138
 5011TIP3   OH215038   0.938   4.602   1.336 -0.3981 -0.0347 -0.2547
 5011TIP3    H115039   0.897   4.678   1.295 -2.1661 -1.4780 -1.3353
 5011TIP3    H215040   1.006   4.575   1.274  0.1222  0.5347  0.0543
 5012TIP3   OH215041   3.642   3.403   2.183  0.0661  0.5702 -0.5686
 5012TIP3    H115042   3.597   3.349   2.117 -1.4240  1.2435 -0.1441
 5012TIP3    H215043   3.711   3.447   2.134 -1.0454  1.0929 -1.7191
 5013TIP3   OH215044   1.832   5.040   2.994 -0.6234  0.2318 -0.0401
 5013TIP3    H115045   1.830   5.135   2.993 -1.1630  0.2167 -0.8761
 5013TIP3    H215046   1.910   5.016   2.944 -0.1888  0.2321  0.6214
 5014TIP3   OH215047   4.387   5.697   2.983  0.5819 -0.3271  0.4208
 5014TIP3    H115048   4.360   5.787   2.998 -1.9236 -1.1692  1.3882
 5014TIP3    H215049   4.365   5.651   3.063  0.2518 -2.1259 -0.6441
 5015TIP3   OH215050   4.563   1.640   2.375  0.2175 -0.0112 -0.3648
 5015TIP3    H115051   4.608   1.557   2.388  0.0135 -0.4290 -2.0691
 5015TIP3    H215052   4.554   1.677   2.463  0.3804 -1.7438  0.4084
 5016TIP3   OH215053   4.125   3.685   0.567 -0.5631 -0.4203 -0.0879
 5016TIP3    H115054   4.128   3.631   0.646  0.6010 -0.5590 -0.2059
 5016TIP3    H215055   4.135   3.623   0.495  0.3150 -0.1183 -0.2430
 5017TIP3   OH215056   3.852   5.296   1.104  0.0748 -0.1533  0.0210
 5017TIP3    H115057   3.860   5.267   1.195  1.4337  0.1513  0.0157
 5017TIP3    H215058   3.789   5.369   1.108  0.1110 -0.1564  0.7100
 5018TIP3   OH215059   3.337   2.668   5.067  0.3906  0.2661 -0.2053
 5018TIP3    H115060   3.415   2.616   5.047 -0.5962 -1.1557 -0.5194
 5018TIP3    H215061   3.321   2.652   5.160 -0.0004 -0.1483 -0.3371
 5019TIP3   OH215062   1.142   3.332   4.212 -0.2012  0.0669 -0.0393
 5019TIP3    H115063   1.177   3.262   4.158  0.4967 -0.7870  1.4439
 5019TIP3    H215064   1.218   3.368   4.257 -0.8039  0.4295  0.7210
 5020TIP3   OH215065   1.612   2.789   2.245 -0.5797  0.6621  0.1260
 5020TIP3    H115066   1.559   2.861   2.210 -0.3399  1.0617  0.5787
 5020TIP3    H215067   1.552   2.740   2.301  0.0214  2.3447  2.3603
 5021TIP3   OH215068   0.898   0.204   4.979 -0.7175  0.2463 -0.4360
 5021TIP3    H115069   0.924   0.144   5.048 -2.3896 -0.2218 -0.1549
 5021TIP3    H215070   0.978   0.220   4.929  0.4488  0.3262  1.3748
 5022TIP3   OH215071   3.219   4.196   0.151 -0.8194 -0.2355 -0.4905
 5022TIP3    H115072   3.220   4.101   0.163 -0.8267 -0.0223  1.4646
 5022TIP3    H215073   3.271   4.211   0.072  0.8728 -1.7291  0.2754
 5023TIP3   OH215074   4.967   3.432   4.174 -0.5553 -0.2209 -0.0307
 5023TIP3    H115075   4.996   3.383   4.251 -1.2330  0.1433  0.4670
 5023TIP3    H215076   4.877   3.404   4.160 -0.2052 -0.8599 -1.1698
 5024TIP3   OH215077   6.219   1.353   5.080 -0.1590 -0.1063  0.1768
 5024TIP3    H115078   6.151   1.310   5.027 -0.7031  0.9732 -0.0321
 5024TIP3    H215079   6.274   1.281   5.110 -0.7209 -0.8976 -0.6085
 5025TIP3   OH215080   3.381   1.036   5.115 -0.3838  0.0626  0.1198
 5025TIP3    H115081   3.382   1.113   5.058 -1.0698  0.5285  0.7103
 5025TIP3    H215082   3.289   1.009   5.117 -0.4774  0.4224  1.4705
 5026TIP3   OH215083   0.248   5.039   1.624  0.4573 -0.0201  0.4762
 5026TIP3    H115084   0.285   4.952   1.638 -1.5002 -0.8085  1.0576
 5026TIP3    H215085   0.315   5.099   1.657  2.1301 -1.2342 -0.5233
 5027TIP3   OH215086   1.118   3.864   2.279  0.2400 -0.8378 -0.3845
 5027TIP3    H115087   1.157   3.936   2.230  0.3791  0.8779  2.1016
 5027TIP3    H215088   1.032   3.851   2.239  0.1441  0.8225 -0.7551
 5028TIP3   OH215089   2.313   5.963   2.262  0.1440 -0.4097 -0.1189
 5028TIP3    H115090   2.334   5.913   2.341  1.6778  1.6690  0.8875
 5028TIP3    H215091   2.218   5.955   2.253  0.1512 -2.1177  0.9203
 5029TIP3   OH215092   2.224   5.198   1.477  0.4580 -0.2035  0.0199
 5029TIP3    H115093   2.315   5.215   1.502  1.2506 -2.8055 -0.7987
 5029TIP3    H215094   2.198   5.123   1.530 -0.9123 -0.0676 -0.4219
 5030TIP3   OH215095   3.904   3.676   0.179  0.1016  0.2723 -0.5875
 5030TIP3    H115096   3.996   3.662   0.157  0.0696 -3.0420  0.8428
 5030TIP3    H215097   3.859   3.680   0.094  1.3578  0.1747 -1.2791
 5031TIP3   OH215098   5.658   3.886   0.958 -0.0373 -1.0481  0.0797
 5031TIP3    H115099   5.745   3.873   0.997 -1.1600 -1.6746  2.5209
 5031TIP3    H215100   5.623   3.963   1.003 -0.5833 -0.4915 -1.2604
 5032TIP3   OH215101   2.684   5.706   1.424  0.1250 -0.4941  0.5361
 5032TIP3    H115102   2.629   5.743   1.493  1.1107 -1.4667  1.9147
 5032TIP3    H215103   2.726   5.782   1.383  0.3123  0.0648  1.7180
 5033TIP3   OH215104   1.640   3.356   3.973 -0.0694 -0.4689  0.6121
 5033TIP3    H115105   1.735   3.347   3.975  0.0681  0.8237  0.5848
 5033TIP3    H215106   1.613   3.313   3.892  0.6646  0.5725 -0.2047
 5034TIP3   OH215107   6.329   5.699   1.835 -0.0129  0.3187 -0.2763
 5034TIP3    H115108   6.421   5.708   1.859  0.2667 -0.6635 -0.9711
 5034TIP3    H215109   6.317   5.759   1.761  0.6230 -1.1586 -1.6186
 5035TIP3   OH215110   0.513   0.797   0.232 -0.5270  0.3712  0.1765
 5035TIP3    H115111   0.556   0.782   0.147  0.0154 -0.2986  0.5605
 5035TIP3    H215112   0.524   0.715   0.279 -1.7361  0.3938  0.5162
 5036TIP3   OH215113   1.999   0.182   4.290 -0.3204 -0.0113 -0.0568
 5036TIP3    H115114   1.973   0.273   4.294 -0.1668  0.1904 -2.3998
 5036TIP3    H215115   2.017   0.158   4.381 -3.6564  1.2496  1.0800
 5037TIP3   OH215116   0.507   0.373   3.181  0.2340 -0.1823  0.7031
 5037TIP3    H115117   0.522   0.309   3.111  2.2382 -0.0692  0.9979
 5037TIP3    H215118   0.417   0.356   3.208  0.2823 -2.0069 -0.1084
 5038TIP3   OH215119   1.048   5.177   1.629 -0.0896  0.2587 -0.5417
 5038TIP3    H115120   0.965   5.164   1.674 -1.3194 -0.1295 -2.7873
 5038TIP3    H215121   1.057   5.272   1.622 -0.2096  0.3058 -0.1000
 5039TIP3   OH215122   4.461   1.895   2.232 -0.3710 -0.3545 -0.0644
 5039TIP3    H115123   4.479   1.804   2.253  0.4498  0.0761  1.2001
 5039TIP3    H215124   4.370   1.908   2.259 -0.1282 -0.4980  0.8501
 5040TIP3   OH215125   4.934   1.838   3.425  0.8225  0.4319  0.1152
 5040TIP3    H115126   4.982   1.874   3.500  0.1522  2.8630 -0.5453
 5040TIP3    H215127   4.996   1.842   3.352  0.7886  0.0945  0.0666
 5041TIP3   OH215128   1.199   2.309   5.068  0.9964  0.1049  0.3308
 5041TIP3    H115129   1.270   2.339   5.012 -0.2097  0.8544 -0.8507
 5041TIP3    H215130   1.193   2.376   5.137  0.7849  0.5892 -0.1494
 5042TIP3   OH215131   3.040   3.981   1.259 -0.0822 -0.4581  0.5787
 5042TIP3    H115132   3.034   4.060   1.204  2.2237 -1.1548 -0.8349
 5042TIP3    H215133   3.046   3.909   1.196  0.0028 -1.5603  1.8128
 5043TIP3   OH215134   0.468   1.600   2.669  0.7418  0.1731  0.0439
 5043TIP3    H115135   0.458   1.507   2.690  2.3512 -0.0122  0.1195
 5043TIP3    H215136   0.391   1.642   2.708 -0.6637 -1.2686 -1.1001
 5044TIP3   OH215137   1.547   4.205   0.249 -0.2698 -0.2719  0.1791
 5044TIP3    H115138   1.639   4.219   0.225  0.1405 -0.4603  1.5932
 5044TIP3    H215139   1.502   4.283   0.217  0.7841  0.9633  1.6056
 5045TIP3   OH215140   5.874   4.775   4.293  0.3251  0.3752 -0.4309
 5045TIP3    H115141   5.869   4.854   4.348 -1.2199  0.8334 -1.1630
 5045TIP3    H215142   5.960   4.780   4.252  0.2295  1.7561 -0.5291
 5046TIP3   OH215143   2.208   5.709   4.168  0.0017 -0.0318  0.2490
 5046TIP3    H115144   2.168   5.741   4.249  0.4425 -0.0467  0.4777
 5046TIP3    H215145   2.231   5.789   4.120  1.0642  0.0139  0.8013
 5047TIP3   OH215146   5.127   5.141   1.148  0.0091 -0.1416 -0.1818
 5047TIP3    H115147   5.073   5.141   1.228 -1.6148 -0.5244 -1.2280
 5047TIP3    H215148   5.201   5.198   1.169 -1.6889  1.8592  0.7480
 5048TIP3   OH215149   3.348   1.548   1.187 -0.3576 -0.1019 -0.2412
 5048TIP3    H115150   3.380   1.630   1.149  0.1252  1.0829  2.4656
 5048TIP3    H215151   3.253   1.551   1.175 -0.3081  0.6854 -0.4780
 5049TIP3   OH215152   2.352   5.527   0.517 -0.1037  0.0798 -0.0865
 5049TIP3    H115153   2.396   5.548   0.435 -1.8352  3.3163 -0.3402
 5049TIP3    H215154   2.403   5.571   0.585 -2.4083  3.5270 -0.3461
 5050TIP3   OH215155   2.515   2.622   1.590 -0.0255 -0.4401  0.4946
 5050TIP3    H115156   2.442   2.572   1.627 -0.3316 -1.0237 -0.8674
 5050TIP3    H215157   2.473   2.691   1.539  0.3866 -0.3392  0.2905
 5051TIP3   OH215158   5.672   5.205   5.029  0.2818 -0.3395 -0.4738
 5051TIP3    H115159   5.654   5.295   5.055  0.0544 -0.1096 -1.4205
 5051TIP3    H215160   5.728   5.212   4.952  1.0962 -1.0214  0.0316
 5052TIP3   OH215161   3.195   3.424   5.015  0.1701  0.0472 -0.0017
 5052TIP3    H115162   3.220   3.356   4.952  1.9879 -0.2597  0.9866
 5052TIP3    H215163   3.250   3.407   5.091 -1.4804  0.8385  1.4324
 5053TIP3   OH215164   2.749   5.267   3.843 -0.6594  0.9316 -0.1633
 5053TIP3    H115165   2.819   5.251   3.780 -0.0509  2.0732  0.1852
 5053TIP3    H215166   2.793   5.306   3.919 -1.5508  0.8122  0.4409
 5054TIP3   OH215167   4.877   3.434   3.809  0.0110 -0.0896  0.2610
 5054TIP3    H115168   4.810   3.503   3.806  0.2812  0.1556 -2.2962
 5054TIP3    H215169   4.960   3.482   3.814  0.1293 -0.2978  0.2755
 5055TIP3   OH215170   3.827   4.116   4.243 -0.0864 -0.2738 -0.7543
 5055TIP3    H115171   3.760   4.177   4.273  0.1371  0.1898 -1.1796
 5055TIP3    H215172   3.816   4.039   4.299  0.0136  0.3794  0.1957
 5056TIP3   OH215173   4.267   4.725   2.892 -0.0880  0.1182 -0.1100
 5056TIP3    H115174   4.217   4.644   2.903  0.2896 -0.1982 -0.6584
 5056TIP3    H215175   4.347   4.697   2.848  0.1882  0.7464 -0.0108
 5057TIP3   OH215176   4.425   5.099   2.374  0.1607 -0.2036  0.2176
 5057TIP3    H115177   4.469   5.042   2.310 -0.2315 -1.7291  1.2426
 5057TIP3    H215178   4.420   5.184   2.331  0.9589 -0.8823 -1.3068
 5058TIP3   OH215179   1.560   3.721   5.184 -0.0935 -0.2889 -0.5113
 5058TIP3    H115180   1.487   3.689   5.131 -0.7248 -0.5042  0.4650
 5058TIP3    H215181   1.635   3.671   5.154 -0.0283  0.8728 -2.4765
 5059TIP3   OH215182   5.129   1.249   0.079  0.1420 -0.1536 -0.5005
 5059TIP3    H115183   5.066   1.265   0.149 -0.8864  0.5583 -1.5411
 5059TIP3    H215184   5.172   1.334   0.067 -0.2574 -0.0504 -1.2505
 5060TIP3   OH215185   4.862   2.999   4.443  0.3880  0.6177 -0.9311
 5060TIP3    H115186   4.924   3.054   4.491 -0.7715  0.2670  1.1198
 5060TIP3    H215187   4.776   3.026   4.476 -0.3512 -0.8735 -1.5422
 5061TIP3   OH215188   1.960   4.704   0.639 -0.5618  0.0562 -0.4974
 5061TIP3    H115189   1.983   4.710   0.546 -2.7329 -0.2932 -1.0908
 5061TIP3    H215190   1.869   4.674   0.640 -0.6322  0.2006  1.7475
 5062TIP3   OH215191   3.825   0.713   2.788  0.3937  0.9522 -0.2435
 5062TIP3    H115192   3.740   0.749   2.765  0.8664  0.3857 -3.3753
 5062TIP3    H215193   3.881   0.732   2.712  1.9418 -2.1060 -0.0604
 5063TIP3   OH215194   0.012   4.645   5.080  0.1748 -0.0612  0.1232
 5063TIP3    H115195  -0.006   4.587   5.007 -2.1949 -0.1145  0.6681
 5063TIP3    H215196   0.080   4.705   5.048 -1.2498  0.3446 -2.3571
 5064TIP3   OH215197   2.734   2.169   1.098  0.3055 -0.0389 -0.1960
 5064TIP3    H115198   2.682   2.224   1.157  1.0962  0.5326 -0.0139
 5064TIP3    H215199   2.822   2.169   1.136  0.0774 -2.5043  0.5506
 5065TIP3   OH215200   6.036   5.731   1.855 -0.2334  0.1328  0.2870
 5065TIP3    H115201   6.125   5.725   1.888 -0.3410 -1.1882  0.3974
 5065TIP3    H215202   6.033   5.815   1.809  1.3943 -0.2949 -0.6908
 5066TIP3   OH215203   3.071   4.882   1.303 -0.1413 -0.5043 -0.5099
 5066TIP3    H115204   3.079   4.966   1.348 -1.1295  0.3354 -1.8284
 5066TIP3    H215205   2.986   4.848   1.332 -0.0134 -0.7594 -0.4376
 5067TIP3   OH215206   5.611   5.029   1.181  0.0787  0.1461  0.4916
 5067TIP3    H115207   5.595   4.978   1.102  3.1808 -0.5982  0.2465
 5067TIP3    H215208   5.705   5.023   1.196  0.2238  3.5718  1.9962
 5068TIP3   OH215209   2.721   1.118   4.839 -0.0811 -0.4778  0.6985
 5068TIP3    H115210   2.680   1.095   4.922 -0.2176  0.3653  0.8741
 5068TIP3    H215211   2.813   1.130   4.861  0.0157 -0.9703  0.5795
 5069TIP3   OH215212   6.039   1.544   1.034 -1.0807 -0.6022 -0.2931
 5069TIP3    H115213   6.051   1.589   1.117  0.5818 -0.5039 -0.5447
 5069TIP3    H215214   6.125   1.549   0.991 -1.4503 -2.0581 -1.3015
 5070TIP3   OH215215  -0.029   3.548   0.053 -0.0946  0.3189 -0.0790
 5070TIP3    H115216   0.026   3.503  -0.012 -1.0680  0.6002 -1.1284
 5070TIP3    H215217   0.011   3.635   0.061  0.1043  0.2410 -0.1946
 5071TIP3   OH215218   0.465   5.212   1.281 -0.0313  0.0089 -0.0588
 5071TIP3    H115219   0.387   5.265   1.296  0.5877  0.6223  1.0821
 5071TIP3    H215220   0.533   5.276   1.258  0.5594 -0.3310  0.6944
 5072TIP3   OH215221   5.651   4.439   4.423 -0.0994  0.2485  0.0951
 5072TIP3    H115222   5.644   4.534   4.436  3.3531  0.8013 -1.1498
 5072TIP3    H215223   5.658   4.403   4.511  0.1959  1.3328  0.5270
 5073TIP3   OH215224   3.410   0.335   3.911  0.4743  0.1659  0.5492
 5073TIP3    H115225   3.453   0.250   3.903 -2.4575 -1.3162 -0.6772
 5073TIP3    H215226   3.457   0.391   3.849  2.2138 -0.5859  1.1046
 5074TIP3   OH215227   1.367   3.601   2.652 -0.2063 -0.2466 -0.5419
 5074TIP3    H115228   1.300   3.535   2.633 -1.8001  0.9938  0.4638
 5074TIP3    H215229   1.403   3.624   2.567 -1.8597 -0.1755 -1.2649
 5075TIP3   OH215230   5.667   5.146   0.369  0.3605 -0.1473 -0.0916
 5075TIP3    H115231   5.649   5.052   0.358 -1.8669  0.1845  0.3716
 5075TIP3    H215232   5.739   5.163   0.307  0.0590 -1.9144 -1.0131
 5076TIP3   OH215233   3.307   2.619   4.570  0.1556 -0.3125 -0.1825
 5076TIP3    H115234   3.293   2.610   4.664  0.9818 -0.1828 -0.0395
 5076TIP3    H215235   3.372   2.552   4.549  0.1931 -0.1461 -0.6091
 5077TIP3   OH215236   2.735   5.570   2.024 -0.6041 -0.0854  0.0639
 5077TIP3    H115237   2.721   5.541   1.933 -0.3417 -1.5169  0.4476
 5077TIP3    H215238   2.690   5.654   2.029  0.6807  0.8003 -1.8124
 5078TIP3   OH215239   1.252   1.283   3.447  0.2061  0.0741 -0.0047
 5078TIP3    H115240   1.237   1.361   3.393  1.2007 -0.0190 -0.4500
 5078TIP3    H215241   1.203   1.299   3.527 -1.9195 -0.0973 -1.2141
 5079TIP3   OH215242   4.108   1.274   3.831  0.3484  0.3014 -0.6535
 5079TIP3    H115243   4.167   1.316   3.769  0.1912 -1.1850 -1.8718
 5079TIP3    H215244   4.131   1.181   3.827 -0.8868 -0.0670  0.1658
 5080TIP3   OH215245   6.250   2.914   1.254  0.1626 -0.2274  0.3542
 5080TIP3    H115246   6.289   2.988   1.207 -0.5085  0.1667  0.3992
 5080TIP3    H215247   6.209   2.862   1.185  1.2198 -0.9462  0.2392
 5081TIP3   OH215248   4.676   5.320   1.713  0.5934  0.1461  0.5311
 5081TIP3    H115249   4.654   5.226   1.714 -0.3851  0.3426 -0.2941
 5081TIP3    H215250   4.612   5.358   1.653  0.9907  1.3496  0.8531
 5082TIP3   OH215251   5.758   3.643   5.166 -0.8321 -0.0469  0.1149
 5082TIP3    H115252   5.828   3.589   5.201 -1.5063 -0.3377  1.0422
 5082TIP3    H215253   5.786   3.733   5.182 -0.0461 -0.1194 -0.7702
 5083TIP3   OH215254   5.153   1.495   1.823 -0.6194  0.7576 -0.3642
 5083TIP3    H115255   5.197   1.526   1.743  1.3201 -1.2342 -0.1714
 5083TIP3    H215256   5.074   1.451   1.791  0.7021 -1.0211 -1.3965
 5084TIP3   OH215257   3.076   5.778   1.322 -0.3757  0.1372  0.3474
 5084TIP3    H115258   3.000   5.836   1.318  0.3718  1.0755 -0.9525
 5084TIP3    H215259   3.138   5.815   1.259 -0.1444 -2.4912 -1.0916
 5085TIP3   OH215260   5.195   4.514   0.047  0.0129  0.1370 -0.0678
 5085TIP3    H115261   5.121   4.564   0.013  0.6826  0.6742 -0.8021
 5085TIP3    H215262   5.262   4.523  -0.021  1.3430  1.1005  1.2982
 5086TIP3   OH215263   0.762   2.841   0.605  0.9886 -0.5341 -0.0644
 5086TIP3    H115264   0.764   2.774   0.537 -0.4975 -0.9193  0.2289
 5086TIP3    H215265   0.848   2.883   0.600  0.8465 -0.3718 -2.3573
 5087TIP3   OH215266   5.709   5.594   0.305  0.1440 -0.1647 -0.4726
 5087TIP3    H115267   5.736   5.526   0.244 -0.8124 -1.7853  0.8429
 5087TIP3    H215268   5.724   5.556   0.392  0.7643  1.7824  0.3516
 5088TIP3   OH215269   2.076   1.442   2.093  0.0764 -0.0197  0.1605
 5088TIP3    H115270   1.994   1.490   2.101  0.4274  0.6045  0.0920
 5088TIP3    H215271   2.144   1.507   2.110  0.5823 -0.3773 -0.4432
 5089TIP3   OH215272   2.489   0.194   4.013  0.1888 -0.3700 -0.5270
 5089TIP3    H115273   2.428   0.212   4.084  0.1741  0.2843 -0.6965
 5089TIP3    H215274   2.488   0.274   3.960 -0.0134 -0.9467 -1.4171
 5090TIP3   OH215275   0.189   2.704   2.119  0.0862 -0.1615 -0.1470
 5090TIP3    H115276   0.224   2.757   2.190 -0.7972  1.0399 -0.5795
 5090TIP3    H215277   0.183   2.616   2.156  2.8667 -0.3088  0.1509
 5091TIP3   OH215278   3.518   4.736   1.604  0.0228  0.1957 -0.2848
 5091TIP3    H115279   3.578   4.695   1.541  0.0404 -1.9526  1.0423
 5091TIP3    H215280   3.473   4.662   1.646 -1.9050  1.6725  0.3757
 5092TIP3   OH215281   5.888   1.995   4.481  0.1605 -0.3778 -0.3535
 5092TIP3    H115282   5.963   2.041   4.518 -0.6802  0.1992  0.6895
 5092TIP3    H215283   5.830   2.065   4.450 -0.7028 -0.7491  0.3814
 5093TIP3   OH215284   1.632   1.291   1.580  0.4660  0.0270 -0.3474
 5093TIP3    H115285   1.709   1.273   1.526  0.6645  0.7057 -0.3024
 5093TIP3    H215286   1.590   1.206   1.592  1.4608 -0.4298  0.0017
 5094TIP3   OH215287   0.688   4.006   4.605  0.1809 -0.0898 -0.2336
 5094TIP3    H115288   0.731   3.925   4.577 -1.6064 -1.3896  0.6061
 5094TIP3    H215289   0.692   4.063   4.528  0.9392 -1.1786 -1.0329
 5095TIP3   OH215290   3.851   1.163   2.395 -0.1323 -0.1507  0.1206
 5095TIP3    H115291   3.879   1.122   2.477  0.9271  1.4582  0.6148
 5095TIP3    H215292   3.806   1.243   2.423 -0.1103  0.2155 -0.8615
 5096TIP3   OH215293   2.025   1.961   3.827  0.0978  0.0890  0.1205
 5096TIP3    H115294   1.973   2.028   3.871 -1.1349  0.4756 -1.8259
 5096TIP3    H215295   2.112   1.999   3.819 -0.0005  0.5304  1.0063
 5097TIP3   OH215296   4.961   5.276   1.795 -0.1820 -0.1341 -0.5371
 5097TIP3    H115297   4.942   5.228   1.876 -0.1465 -1.7700 -1.4468
 5097TIP3    H215298   4.890   5.338   1.786  0.0399  0.3798  0.9649
 5098TIP3   OH215299   3.740   1.286   4.807  0.1205  0.7541  0.3438
 5098TIP3    H115300   3.695   1.202   4.810 -0.2321  0.8747 -1.0315
 5098TIP3    H215301   3.824   1.269   4.850 -0.0761 -0.2098  0.3769
 5099TIP3   OH215302   6.305   3.802   0.665  0.1692 -0.6782 -0.2841
 5099TIP3    H115303   6.297   3.822   0.758  2.3356 -1.7647  0.1963
 5099TIP3    H215304   6.245   3.728   0.651  0.8665 -1.4220  0.5767
 5100TIP3   OH215305   0.623   4.404   3.912  0.5574 -0.0014  0.4734
 5100TIP3    H115306   0.567   4.455   3.854  0.9566  0.0577  0.1325
 5100TIP3    H215307   0.647   4.464   3.982  0.1451 -0.0470  0.6575
 5101TIP3   OH215308   0.669   3.679   3.569  0.4922  0.0685 -0.3405
 5101TIP3    H115309   0.717   3.619   3.626 -0.4411  0.0639  0.4768
 5101TIP3    H215310   0.678   3.765   3.610  2.0494  0.5864 -1.6499
 5102TIP3   OH215311   4.924   1.252   1.761 -0.2122  0.4549  0.2717
 5102TIP3    H115312   4.938   1.279   1.670 -0.9116 -1.1703 -0.3615
 5102TIP3    H215313   4.836   1.283   1.783  0.1963  1.3972  0.6317
 5103TIP3   OH215314   5.485   2.110   3.205  0.4202 -0.3211  0.0521
 5103TIP3    H115315   5.471   2.028   3.252  0.3374 -1.1212 -1.3173
 5103TIP3    H215316   5.399   2.152   3.202  0.0948 -1.0305 -0.7550
 5104TIP3   OH215317   1.119   0.248   3.603  0.5572  0.3872  0.2450
 5104TIP3    H115318   1.117   0.154   3.620  0.9441  0.2952 -0.1907
 5104TIP3    H215319   1.053   0.285   3.661  1.8701  0.1128  1.9851
 5105TIP3   OH215320   0.876   0.928   1.946  0.2836 -0.4839 -0.1531
 5105TIP3    H115321   0.805   0.893   2.000 -0.4711 -0.4470 -1.0765
 5105TIP3    H215322   0.836   1.003   1.901  0.8305 -0.6173 -0.8783
 5106TIP3   OH215323   2.882   4.005   4.352  0.0943 -0.6309  0.6531
 5106TIP3    H115324   2.967   4.002   4.308  1.0333 -0.5962  2.3721
 5106TIP3    H215325   2.904   4.017   4.445 -1.8156  2.1639  0.8750
 5107TIP3   OH215326   5.509   5.774   1.864 -0.7928  0.0541 -0.6122
 5107TIP3    H115327   5.418   5.803   1.854 -0.6646  0.1934 -1.5038
 5107TIP3    H215328   5.543   5.827   1.936 -1.3205  0.2501 -0.5012
 5108TIP3   OH215329   5.109   0.641   5.038 -0.0961 -0.3869  0.3660
 5108TIP3    H115330   5.018   0.670   5.035 -0.2906 -1.0481 -0.3648
 5108TIP3    H215331   5.136   0.657   5.129 -0.8286  0.1412  0.4967
 5109TIP3   OH215332   4.444   2.677   0.897  0.0900 -0.4020 -0.4589
 5109TIP3    H115333   4.491   2.598   0.924  0.9477  0.2568  0.0451
 5109TIP3    H215334   4.373   2.646   0.841  0.9828 -1.4538 -1.0329
 5110TIP3   OH215335   5.789   0.779   4.009 -0.1318 -0.6115  0.1021
 5110TIP3    H115336   5.736   0.735   3.942 -1.8668  0.6703  0.5322
 5110TIP3    H215337   5.768   0.733   4.091 -0.8553  0.0809  0.3218
 5111TIP3   OH215338   2.378   4.970   4.524  0.1072  0.0037  0.3386
 5111TIP3    H115339   2.386   5.013   4.440 -0.4270 -1.0656 -0.2832
 5111TIP3    H215340   2.466   4.975   4.562  1.5382 -3.0265 -2.0908
 5112TIP3   OH215341   1.921   3.863   3.766 -0.4131  0.7062  0.1598
 5112TIP3    H115342   1.867   3.788   3.792  0.5384  0.2519  0.8782
 5112TIP3    H215343   1.858   3.934   3.753 -1.3149 -0.1588 -0.3561
 5113TIP3   OH215344   5.586   5.439   3.531 -1.0119  0.3258  0.1787
 5113TIP3    H115345   5.529   5.393   3.469  1.8329 -1.8632 -1.0636
 5113TIP3    H215346   5.641   5.495   3.477 -0.6317  0.8865  1.1139
 5114TIP3   OH215347   6.207   2.417   3.921  0.0652 -0.0362 -0.2515
 5114TIP3    H115348   6.227   2.421   3.827  0.3167  0.8045 -0.1730
 5114TIP3    H215349   6.257   2.490   3.959 -0.4881 -0.0115  0.4456
 5115TIP3   OH215350   6.294   0.535   4.605  0.0983  0.0665 -0.1282
 5115TIP3    H115351   6.249   0.483   4.671 -1.3204  1.9681  0.4826
 5115TIP3    H215352   6.246   0.618   4.602  1.6150  0.9639 -1.7990
 5116TIP3   OH215353   0.266   5.904   0.154  0.2924  0.3837 -0.1877
 5116TIP3    H115354   0.308   5.919   0.240 -1.0486  1.0384  0.3789
 5116TIP3    H215355   0.323   5.950   0.092  0.4090  1.2917  0.5683
 5117TIP3   OH215356   1.429   5.234   3.559  0.2388  0.3420 -0.5373
 5117TIP3    H115357   1.365   5.304   3.551 -0.1038 -0.0979 -2.0792
 5117TIP3    H215358   1.453   5.233   3.652 -0.1062  2.1477 -0.3966
 5118TIP3   OH215359   1.903   5.036   1.553 -0.3041  0.1341  0.1829
 5118TIP3    H115360   1.903   5.112   1.494 -0.7473  0.1821  0.2407
 5118TIP3    H215361   1.924   4.962   1.496  1.4566  0.4498  0.3495
 5119TIP3   OH215362   4.412   4.421   1.919  0.2130 -0.0960 -0.2166
 5119TIP3    H115363   4.470   4.380   1.854 -0.5111  0.4373 -1.2307
 5119TIP3    H215364   4.398   4.353   1.985  0.0756 -1.0475 -1.1924
 5120TIP3   OH215365   5.689   3.522   4.484 -0.1954 -0.1726  0.2009
 5120TIP3    H115366   5.629   3.448   4.473  0.8916 -1.0043 -0.3023
 5120TIP3    H215367   5.693   3.563   4.398 -1.1717  0.8059  0.5909
 5121TIP3   OH215368   5.646   5.183   1.607 -0.4509 -0.2011  0.1344
 5121TIP3    H115369   5.557   5.210   1.585 -0.1692  1.0736  0.4651
 5121TIP3    H215370   5.659   5.102   1.558 -1.1311  0.5833 -1.4129
 5122TIP3   OH215371   0.980   2.678   2.865  0.3096 -0.2203 -0.1184
 5122TIP3    H115372   0.892   2.641   2.864 -0.0987  0.6981 -0.1333
 5122TIP3    H215373   1.013   2.662   2.953 -0.3469  0.4716  0.2574
 5123TIP3   OH215374   3.153   3.696   2.486 -0.0280 -0.1881  0.3740
 5123TIP3    H115375   3.206   3.683   2.564 -0.7107 -1.6167  0.6446
 5123TIP3    H215376   3.068   3.725   2.518  0.2392  1.0173  0.0216
 5124TIP3   OH215377   0.676   2.881   2.604 -0.2465 -0.7350  0.1181
 5124TIP3    H115378   0.661   2.833   2.522  0.7197 -2.3987  0.8739
 5124TIP3    H215379   0.691   2.813   2.669  1.1903  0.5988  1.2572
 5125TIP3   OH215380   1.739   5.738   2.770 -0.1120  0.3367  0.3387
 5125TIP3    H115381   1.815   5.778   2.728  0.8862 -2.7573 -1.0974
 5125TIP3    H215382   1.772   5.711   2.856 -0.4955  1.5343  0.8921
 5126TIP3   OH215383   2.475   2.122   3.690 -0.0167  0.7585  0.3173
 5126TIP3    H115384   2.510   2.206   3.659  0.9455  0.5579  0.8104
 5126TIP3    H215385   2.450   2.075   3.610 -0.7674  1.5804  0.0436
 5127TIP3   OH215386   4.151   3.238   3.901  0.1376  0.0547 -0.0508
 5127TIP3    H115387   4.097   3.191   3.837 -0.1488  0.3643 -0.0395
 5127TIP3    H215388   4.107   3.222   3.985  0.3268 -0.0757  0.0245
 5128TIP3   OH215389   0.271   0.688   3.889 -0.3030 -0.0552 -0.0305
 5128TIP3    H115390   0.185   0.695   3.847 -0.5779  0.6808  0.6271
 5128TIP3    H215391   0.257   0.724   3.977  0.9560  1.1510 -0.3038
 5129TIP3   OH215392   0.279   1.208   2.354 -0.0622 -0.6031 -0.0463
 5129TIP3    H115393   0.249   1.290   2.394 -0.7403 -0.7356 -0.2819
 5129TIP3    H215394   0.335   1.168   2.421  1.0711  0.5052 -0.2846
 5130TIP3   OH215395   3.477   0.296   2.845  0.0678 -0.0547  0.2976
 5130TIP3    H115396   3.530   0.219   2.822  0.8704  0.5491  0.1059
 5130TIP3    H215397   3.412   0.302   2.775  0.5639 -0.0413 -0.1695
 5131TIP3   OH215398   6.041   5.639   4.063  0.2252  0.3433 -0.0136
 5131TIP3    H115399   5.967   5.676   4.014 -0.2827  0.1620  0.5915
 5131TIP3    H215400   6.089   5.588   3.999 -0.8536 -0.5064 -0.1779
 5132TIP3   OH215401   1.557   2.283   4.379  0.4092 -0.3025 -0.0367
 5132TIP3    H115402   1.556   2.378   4.378 -0.2106 -0.3090 -0.1146
 5132TIP3    H215403   1.527   2.257   4.292  0.1478 -0.5729  0.1323
 5133TIP3   OH215404   6.003   1.726   2.317 -0.6623 -0.0009  0.2236
 5133TIP3    H115405   5.915   1.691   2.306 -0.4168 -0.7129  0.4804
 5133TIP3    H215406   6.015   1.734   2.411 -0.0735 -0.9062  0.2333
 5134TIP3   OH215407   4.008   0.427   1.927 -0.1002 -0.0461 -0.2313
 5134TIP3    H115408   4.030   0.335   1.943  0.2200  0.0885  0.1355
 5134TIP3    H215409   4.068   0.476   1.984  0.4964  0.4227 -1.2422
 5135TIP3   OH215410   2.242   0.802   2.135  0.8332  0.1622 -0.1634
 5135TIP3    H115411   2.148   0.786   2.132  0.8898 -0.0276 -1.4126
 5135TIP3    H215412   2.256   0.849   2.217 -0.3273  0.0790  0.0967
 5136TIP3   OH215413   6.120   3.898   5.132  0.2406  0.3293 -0.0876
 5136TIP3    H115414   6.061   3.933   5.065  0.9451  0.6094 -0.5688
 5136TIP3    H215415   6.075   3.916   5.214  0.9010  3.1052 -0.2437
 5137TIP3   OH215416   2.080   3.605   2.762 -0.2306 -0.1732  0.4064
 5137TIP3    H115417   2.044   3.634   2.845 -0.1959 -1.0957  0.7506
 5137TIP3    H215418   2.024   3.646   2.696 -0.7349 -0.0612  0.8960
 5138TIP3   OH215419   2.571   3.062   0.645 -0.7141 -0.3645 -1.0305
 5138TIP3    H115420   2.508   3.132   0.627 -0.4355  0.6437  1.5037
 5138TIP3    H215421   2.654   3.107   0.657 -0.5196 -1.0787  0.5906
 5139TIP3   OH215422   0.234   1.640   3.553  0.3695 -0.2488  0.0979
 5139TIP3    H115423   0.293   1.661   3.481 -0.2324 -0.2347 -0.3985
 5139TIP3    H215424   0.208   1.549   3.537 -0.7557  0.1382 -0.4319
 5140TIP3   OH215425   3.488   1.164   4.343 -0.2672  0.3193  0.1100
 5140TIP3    H115426   3.522   1.197   4.427 -2.0612 -0.8470  1.3869
 5140TIP3    H215427   3.442   1.240   4.305 -2.1348  0.1044  1.7616
 5141TIP3   OH215428   0.721   4.899   3.867  0.0272 -0.5302 -0.2861
 5141TIP3    H115429   0.627   4.917   3.866  0.2872  1.5151  1.9276
 5141TIP3    H215430   0.751   4.933   3.952  2.2782 -3.8969  0.4639
 5142TIP3   OH215431   3.452   2.561   1.822  0.3244 -0.0525  0.7193
 5142TIP3    H115432   3.367   2.594   1.792  0.7529  0.6035  0.1778
 5142TIP3    H215433   3.433   2.517   1.905 -0.8313 -1.4381 -0.2200
 5143TIP3   OH215434   3.344   0.944   3.197  0.1470  0.5557 -0.2684
 5143TIP3    H115435   3.364   0.995   3.119  1.6476 -0.2187 -0.4209
 5143TIP3    H215436   3.378   0.997   3.269  1.3447 -0.0267 -0.3932
 5144TIP3   OH215437   3.101   3.522   4.653 -0.3155 -0.7587  0.2275
 5144TIP3    H115438   3.099   3.429   4.676 -0.5830 -0.5495  1.0630
 5144TIP3    H215439   3.040   3.563   4.713 -1.2242 -0.2221 -1.0283
 5145TIP3   OH215440   4.461   2.022   4.937 -0.4499 -0.0446 -0.1186
 5145TIP3    H115441   4.388   2.076   4.906 -0.2801  0.1611 -0.1645
 5145TIP3    H215442   4.420   1.942   4.971 -0.6540 -0.1726 -0.6598
 5146TIP3   OH215443   6.202   3.091   4.101  0.3892  0.1791  0.0343
 5146TIP3    H115444   6.148   3.170   4.107 -1.5137 -1.0844  0.4857
 5146TIP3    H215445   6.140   3.019   4.111  2.1319 -1.3794  0.1416
 5147TIP3   OH215446   0.757   5.923   0.750  0.3562 -0.0674  0.3903
 5147TIP3    H115447   0.756   5.876   0.834 -0.8089 -0.9687 -0.0961
 5147TIP3    H215448   0.776   5.855   0.685  0.1542  0.4195 -0.1828
 5148TIP3   OH215449   1.766   2.146   4.465 -0.0037  0.2793  0.2898
 5148TIP3    H115450   1.687   2.196   4.443  0.3480  0.3987 -0.7747
 5148TIP3    H215451   1.741   2.094   4.542 -1.4892 -0.5006 -0.6640
 5149TIP3   OH215452   2.437   4.891   3.375  0.7459  0.2569 -0.1016
 5149TIP3    H115453   2.433   4.867   3.282  0.0106 -0.1330  0.0224
 5149TIP3    H215454   2.452   4.986   3.374  0.6436  0.2724 -0.6173
 5150TIP3   OH215455   6.025   2.291   4.295  0.4300 -0.2029 -0.0636
 5150TIP3    H115456   6.102   2.330   4.254  0.7905 -1.4704 -0.6672
 5150TIP3    H215457   6.060   2.231   4.361  0.0769 -1.9164 -1.3523
 5151TIP3   OH215458   2.807   4.952   3.982  0.0810 -0.3893 -0.6553
 5151TIP3    H115459   2.883   5.004   3.955 -0.3590  0.4763 -0.2499
 5151TIP3    H215460   2.773   4.915   3.900  0.2683  0.1433 -0.9764
 5152TIP3   OH215461   5.604   1.122   2.639 -0.3062  0.0056  0.0258
 5152TIP3    H115462   5.662   1.154   2.708 -3.0239  0.9318  2.0630
 5152TIP3    H215463   5.551   1.055   2.680 -0.7741 -0.7695 -1.7312
 5153TIP3   OH215464   0.938   3.536   3.088  0.1679  0.1863  0.3444
 5153TIP3    H115465   0.866   3.479   3.060  0.0469  1.2336 -1.7043
 5153TIP3    H215466   0.895   3.612   3.126  0.1760  0.6060 -0.4601
 5154TIP3   OH215467   2.486   3.660   5.173 -0.2850  0.6179  0.1090
 5154TIP3    H115468   2.529   3.672   5.088  0.8504  0.9256  0.7148
 5154TIP3    H215469   2.533   3.589   5.215 -0.4249  0.8886  0.7459
 5155TIP3   OH215470   0.179   0.923   1.497 -0.0774  0.3123  0.2662
 5155TIP3    H115471   0.236   0.854   1.533  0.9444  0.2119 -1.4195
 5155TIP3    H215472   0.239   0.982   1.451 -1.1798  1.1415 -0.1535
 5156TIP3   OH215473   1.979   4.184   4.261  0.2581  0.1051 -0.5649
 5156TIP3    H115474   2.026   4.140   4.332  0.2912 -0.5667 -0.9910
 5156TIP3    H215475   2.048   4.211   4.200  0.1199 -0.8207 -1.1565
 5157TIP3   OH215476   2.892   3.621   0.502 -0.2234  0.6131  0.0649
 5157TIP3    H115477   2.940   3.673   0.566  1.0997 -0.4855  0.0150
 5157TIP3    H215478   2.939   3.538   0.498 -1.6101 -0.1847 -0.6771
 5158TIP3   OH215479   5.431   1.199   0.922 -0.1426  0.4003 -0.1071
 5158TIP3    H115480   5.382   1.252   0.859  0.5258  2.3675  0.9391
 5158TIP3    H215481   5.396   1.225   1.008  0.4574 -0.6068  0.4675
 5159TIP3   OH215482   0.971   0.590   0.586 -0.4870  0.5250  0.2977
 5159TIP3    H115483   1.002   0.598   0.676  1.4943 -0.2990 -0.2465
 5159TIP3    H215484   0.935   0.676   0.566 -2.1281  0.3669  2.2239
 5160TIP3   OH215485   0.083   1.546   2.716 -0.4762  0.4651  0.0252
 5160TIP3    H115486   0.147   1.613   2.692 -0.2079 -0.4233 -1.9307
 5160TIP3    H215487   0.022   1.590   2.774  0.7513  1.8878  0.2873
 5161TIP3   OH215488   5.735   2.668   1.604  0.1443  0.2679 -0.3849
 5161TIP3    H115489   5.799   2.735   1.577 -0.1966  0.8011  0.1126
 5161TIP3    H215490   5.752   2.594   1.545  0.5938  0.7512 -0.8753
 5162TIP3   OH215491   6.218   2.894   2.984  0.1544  0.1829 -0.2575
 5162TIP3    H115492   6.300   2.844   2.990  1.0657  1.5534 -0.8235
 5162TIP3    H215493   6.235   2.961   2.919 -1.2822  0.7964 -0.0469
 5163TIP3   OH215494   1.458   1.682   1.362  0.1232 -0.2263 -0.4771
 5163TIP3    H115495   1.552   1.669   1.351  0.1505 -0.5716  0.1379
 5163TIP3    H215496   1.428   1.603   1.407 -0.5998 -0.4726 -1.3698
 5164TIP3   OH215497   0.738   1.640   2.614 -0.0185  0.3866 -0.3012
 5164TIP3    H115498   0.645   1.623   2.632  0.1967 -2.4802 -1.4225
 5164TIP3    H215499   0.784   1.567   2.654  1.4244 -0.0350 -2.5789
 5165TIP3   OH215500   4.132   1.551   1.513 -0.2256  0.1463  0.3111
 5165TIP3    H115501   4.104   1.464   1.484  0.9983  0.1099 -0.8917
 5165TIP3    H215502   4.209   1.535   1.567  0.7985  0.5199 -0.9890
 5166TIP3   OH215503   3.546   2.176   4.251  0.0978  0.4091 -0.1683
 5166TIP3    H115504   3.476   2.199   4.190  0.2096  0.3707 -0.3126
 5166TIP3    H215505   3.620   2.230   4.223  0.3116 -0.0079 -0.4043
 5167TIP3   OH215506   0.107   1.384   4.004 -0.2955  0.3677  0.1889
 5167TIP3    H115507   0.044   1.353   4.069 -0.7321  0.1941 -0.3109
 5167TIP3    H215508   0.145   1.463   4.044 -1.1013  0.6929  0.3468
 5168TIP3   OH215509   5.356   5.347   2.791 -0.0792  0.2832 -0.2353
 5168TIP3    H115510   5.293   5.358   2.862 -2.0813  2.4442 -2.1805
 5168TIP3    H215511   5.437   5.384   2.826 -1.0952  1.6036  0.8715
 5169TIP3   OH215512   0.308   1.523   0.502  0.0667 -0.0444  0.2894
 5169TIP3    H115513   0.270   1.471   0.431 -1.3265 -1.1943  1.7743
 5169TIP3    H215514   0.236   1.578   0.533  0.8476  0.9637  0.3535
 5170TIP3   OH215515   4.217   3.492   4.088 -0.3431 -0.0194  0.0901
 5170TIP3    H115516   4.148   3.434   4.120 -0.7473  0.1385 -0.4864
 5170TIP3    H215517   4.285   3.433   4.056 -1.3897 -0.2300 -1.8990
 5171TIP3   OH215518   1.994   2.647   5.059 -0.4471  1.0287 -0.0688
 5171TIP3    H115519   2.073   2.696   5.037 -0.0712  0.8471  0.8330
 5171TIP3    H215520   2.025   2.560   5.083 -0.8981  1.0038  0.4564
 5172TIP3   OH215521   5.230   1.971   2.832 -0.4777  0.3160 -0.3506
 5172TIP3    H115522   5.135   1.960   2.820 -0.2721  0.3357 -2.2038
 5172TIP3    H215523   5.246   2.063   2.814 -0.2368  0.5926  1.1413
 5173TIP3   OH215524   2.558   4.799   1.305 -0.0026  0.2226 -0.0805
 5173TIP3    H115525   2.467   4.783   1.329 -0.0027  0.3056 -0.0238
 5173TIP3    H215526   2.561   4.892   1.281 -0.9299 -0.6892 -4.6119
 5174TIP3   OH215527   4.413   1.073   2.018 -0.0794  0.2137 -0.5557
 5174TIP3    H115528   4.509   1.081   2.018 -0.0312 -0.3242 -0.4658
 5174TIP3    H215529   4.395   1.003   2.081 -0.4046 -1.1799 -2.1379
 5175TIP3   OH215530   2.810   1.301   4.113 -0.0326  0.0521  0.3419
 5175TIP3    H115531   2.718   1.297   4.087 -0.2195  0.9188  0.8151
 5175TIP3    H215532   2.814   1.254   4.196  0.4171 -2.0337 -0.8008
 5176TIP3   OH215533   4.170   1.681   3.654  0.0475 -0.2399  0.1689
 5176TIP3    H115534   4.237   1.743   3.624 -0.7290  0.5014 -0.0802
 5176TIP3    H215535   4.209   1.595   3.640  0.2289  0.1150 -1.7477
 5177TIP3   OH215536   4.457   1.026   3.476 -0.1650 -0.3104  0.7555
 5177TIP3    H115537   4.362   1.019   3.487 -0.1651  0.3494  1.2445
 5177TIP3    H215538   4.489   0.936   3.480 -0.8487 -0.6155 -0.2292
 5178TIP3   OH215539   1.427   1.524   3.228  0.6027 -0.0332  0.0510
 5178TIP3    H115540   1.503   1.551   3.280  0.0635  0.2729  0.6985
 5178TIP3    H215541   1.352   1.543   3.285 -0.1790  2.2797 -1.6234
 5179TIP3   OH215542   5.046   2.410   2.272 -0.3989 -0.4225  0.4995
 5179TIP3    H115543   5.056   2.489   2.325  0.1906 -0.8609  1.0562
 5179TIP3    H215544   5.050   2.442   2.181 -1.7582  0.3678  0.6989
 5180TIP3   OH215545   1.925   0.787   2.094 -0.3439  0.3454  0.0054
 5180TIP3    H115546   1.842   0.815   2.133 -1.4072 -0.2169 -1.7145
 5180TIP3    H215547   1.916   0.808   2.001  0.8806 -0.9740 -0.4531
 5181TIP3   OH215548   0.504   3.470   0.625 -0.1624  0.2106 -0.1816
 5181TIP3    H115549   0.569   3.526   0.667 -0.2489  1.3200 -1.4592
 5181TIP3    H215550   0.440   3.531   0.589 -1.1450 -0.8034 -0.2107
 5182TIP3   OH215551   5.664   2.203   4.604 -0.0857 -0.2564 -0.1197
 5182TIP3    H115552   5.747   2.213   4.650 -0.1978 -0.5574  0.1470
 5182TIP3    H215553   5.673   2.258   4.526  0.1029  0.2465  0.2563
 5183TIP3   OH215554   2.176   4.290   2.146  0.0531  0.1085  0.1900
 5183TIP3    H115555   2.258   4.257   2.182 -0.5463  1.0129  2.5448
 5183TIP3    H215556   2.167   4.245   2.062  2.1158 -1.2382  0.6194
 5184TIP3   OH215557   4.258   1.114   5.046 -0.1558 -0.2666 -0.5917
 5184TIP3    H115558   4.245   1.019   5.046  0.0293 -0.2936 -0.1138
 5184TIP3    H215559   4.305   1.131   4.964  0.4608 -0.6821 -0.3383
 5185TIP3   OH215560   6.057   4.284   4.115  0.4934  0.1950  0.1282
 5185TIP3    H115561   5.980   4.327   4.151  0.5916  0.5281 -0.0563
 5185TIP3    H215562   6.129   4.315   4.170  0.3098 -1.2792  1.2627
 5186TIP3   OH215563   4.437   4.486   3.601  0.7327 -0.0848  0.5543
 5186TIP3    H115564   4.510   4.484   3.539  0.9972 -0.5727  0.8745
 5186TIP3    H215565   4.472   4.532   3.678  0.4351  0.4369  0.3823
 5187TIP3   OH215566   0.741   1.543   2.060 -0.2642 -0.2243  0.7586
 5187TIP3    H115567   0.758   1.461   2.015  0.5695  0.0817  0.4923
 5187TIP3    H215568   0.679   1.521   2.129 -0.4448 -0.9721  0.3579
 5188TIP3   OH215569   2.818   4.796   1.370 -0.3479 -0.1470  0.5820
 5188TIP3    H115570   2.813   4.863   1.437 -0.4357 -0.0063  0.4333
 5188TIP3    H215571   2.729   4.790   1.334 -0.2559 -0.0870  0.3450
 5189TIP3   OH215572   3.258   0.873   4.009  0.1692 -0.5227 -0.5132
 5189TIP3    H115573   3.260   0.782   4.039 -1.6808 -0.7078 -0.8271
 5189TIP3    H215574   3.176   0.907   4.043  0.3207  0.7053 -1.3323
 5190TIP3   OH215575   5.247   5.833   1.860  0.0036 -0.2528  0.0772
 5190TIP3    H115576   5.191   5.757   1.880  0.5810 -0.6150  0.3441
 5190TIP3    H215577   5.209   5.870   1.780  0.7445 -1.8701 -1.0700
 5191TIP3   OH215578   2.158   5.928   1.542 -0.4196 -0.2661 -0.1792
 5191TIP3    H115579   2.247   5.893   1.548  0.1362  1.2382  0.8526
 5191TIP3    H215580   2.160   6.007   1.595 -2.7011 -0.8309  0.8539
 5192TIP3   OH215581   2.418   2.782   1.825  0.0756  0.1122 -0.1663
 5192TIP3    H115582   2.340   2.775   1.880 -1.3519  0.3646 -2.0541
 5192TIP3    H215583   2.394   2.845   1.757  1.2706 -1.1523 -1.8413
 5193TIP3   OH215584   2.820   0.318   0.679  0.0742  0.1965 -0.7029
 5193TIP3    H115585   2.753   0.268   0.633  0.4786 -2.8680  1.7238
 5193TIP3    H215586   2.823   0.279   0.767  1.9658  3.1773  0.7205
 5194TIP3   OH215587   3.527   2.805   1.766  0.0335  0.2467  0.6268
 5194TIP3    H115588   3.479   2.728   1.736  2.4431 -1.2746  0.3806
 5194TIP3    H215589   3.523   2.866   1.693  0.6812 -0.9436 -0.4609
 5195TIP3   OH215590   3.094   1.537   1.667  0.1710 -0.0052 -0.4454
 5195TIP3    H115591   3.058   1.593   1.736  1.7582  1.6268 -0.8631
 5195TIP3    H215592   3.125   1.459   1.714 -0.6237  0.1624  0.3858
 5196TIP3   OH215593   0.753   3.275   4.435  0.0056 -0.4658  0.9968
 5196TIP3    H115594   0.727   3.205   4.494 -1.5111 -1.1726 -0.4520
 5196TIP3    H215595   0.757   3.235   4.349 -0.1560  1.0507  0.2391
 5197TIP3   OH215596   3.993   1.704   1.164 -0.1180  0.3470 -0.4750
 5197TIP3    H115597   3.993   1.779   1.224 -1.4403  0.5831 -0.7234
 5197TIP3    H215598   3.940   1.638   1.209 -1.5248  0.6973 -1.5359
 5198TIP3   OH215599   6.214   5.239   0.437 -0.5095 -0.1057 -0.5767
 5198TIP3    H115600   6.250   5.185   0.366  1.6540 -0.7131  0.8594
 5198TIP3    H215601   6.170   5.176   0.495  0.1757 -0.0640  0.0112
 5199TIP3   OH215602   1.164   4.617   2.465  0.1281  0.1354 -0.0704
 5199TIP3    H115603   1.198   4.528   2.478  0.6854 -0.0698 -2.4526
 5199TIP3    H215604   1.241   4.668   2.440 -0.3625  1.0871  0.3225
 5200TIP3   OH215605   4.724   0.542   4.685 -0.1820 -0.7185  0.7233
 5200TIP3    H115606   4.647   0.486   4.695 -1.0222  0.4041  0.7161
 5200TIP3    H215607   4.694   0.616   4.633  1.2707 -0.9207 -0.4813
 5201TIP3   OH215608   4.895   0.135   3.787 -0.3179  0.0664 -0.4009
 5201TIP3    H115609   4.924   0.044   3.794  0.3485  0.3121  0.1808
 5201TIP3    H215610   4.828   0.144   3.855 -3.7292 -1.1611 -3.2424
 5202TIP3   OH215611   5.848   5.206   2.620 -0.2164  0.8647  0.3463
 5202TIP3    H115612   5.845   5.293   2.661 -0.3960  1.7549 -1.4610
 5202TIP3    H215613   5.879   5.222   2.531 -2.2619 -0.6336 -0.7260
 5203TIP3   OH215614   1.391   1.359   2.301  0.0033 -0.6055 -0.1723
 5203TIP3    H115615   1.472   1.410   2.313 -0.3951 -0.1464  0.6923
 5203TIP3    H215616   1.335   1.417   2.250  0.8281 -1.6154 -2.3138
 5204TIP3   OH215617   5.481   0.713   3.199  0.0864  0.3066 -0.0280
 5204TIP3    H115618   5.436   0.783   3.246 -0.6928 -0.7259  0.8040
 5204TIP3    H215619   5.567   0.706   3.241 -0.0741  0.3426  0.3047
 5205TIP3   OH215620   4.742   2.424   1.153  0.3567  0.3433  0.6502
 5205TIP3    H115621   4.671   2.424   1.088  1.8121 -2.0040 -1.0995
 5205TIP3    H215622   4.818   2.456   1.105  1.7486 -2.5533  0.7162
 5206TIP3   OH215623   0.953   5.238   1.103 -0.0994 -0.0060  0.4119
 5206TIP3    H115624   0.947   5.215   1.196  0.2164 -0.2286  0.3819
 5206TIP3    H215625   1.043   5.270   1.092  0.0828 -0.6061  0.0531
 5207TIP3   OH215626   4.129   0.144   4.383 -0.1237  0.0247 -0.5079
 5207TIP3    H115627   4.163   0.178   4.300 -0.8872  0.2521 -0.7359
 5207TIP3    H215628   4.071   0.213   4.415  0.4209  0.0769  0.3845
 5208TIP3   OH215629   5.977   4.662   0.569  0.4032  0.2141 -0.0233
 5208TIP3    H115630   6.054   4.715   0.585  1.2462 -0.0706 -2.7009
 5208TIP3    H215631   6.001   4.575   0.600  0.7339  0.3552  0.1236
 5209TIP3   OH215632   5.583   1.265   3.118  0.4973 -0.2877 -0.1969
 5209TIP3    H115633   5.673   1.266   3.084  0.2317 -2.0634 -1.0610
 5209TIP3    H215634   5.529   1.242   3.043 -0.7763  1.2402  0.1955
 5210TIP3   OH215635   4.594   1.840   4.066  0.3218  0.2079  0.2077
 5210TIP3    H115636   4.528   1.825   3.999  0.7387 -0.8759  0.0100
 5210TIP3    H215637   4.650   1.762   4.062  1.4675  0.9964  0.5307
 5211TIP3   OH215638   3.923   3.752   3.739  0.6716 -0.0115 -1.4110
 5211TIP3    H115639   3.929   3.784   3.649 -1.6339  1.3724 -1.1746
 5211TIP3    H215640   3.846   3.797   3.775  0.8238 -1.4200  0.8923
 5212TIP3   OH215641   6.321   4.966   0.254 -0.3820  0.2836 -0.3079
 5212TIP3    H115642   6.237   4.952   0.210 -0.3843  0.7342 -0.4538
 5212TIP3    H215643   6.381   4.991   0.184 -0.3045  0.6748 -0.1050
 5213TIP3   OH215644   4.220   0.832   3.989 -0.0589  0.3592  0.5226
 5213TIP3    H115645   4.127   0.854   4.001 -0.4674  0.7274 -2.4138
 5213TIP3    H215646   4.267   0.913   4.008 -0.4457  0.5130  0.8410
 5214TIP3   OH215647   1.767   5.196   2.592 -0.5649  0.2793 -0.5273
 5214TIP3    H115648   1.674   5.176   2.602 -0.4803  0.3095  0.3240
 5214TIP3    H215649   1.789   5.251   2.666  0.0036  0.7654 -1.0410
 5215TIP3   OH215650   1.816   5.194   1.351  0.1289 -0.0382  0.5944
 5215TIP3    H115651   1.726   5.168   1.335 -0.1299  1.0920  0.1104
 5215TIP3    H215652   1.861   5.179   1.268  0.0545  0.6748  0.4140
 5216TIP3   OH215653   5.232   5.342   3.016  0.0283  0.5139 -0.0536
 5216TIP3    H115654   5.261   5.296   3.095  2.5063  1.3120 -0.4117
 5216TIP3    H215655   5.241   5.435   3.037  0.5275  0.7439 -1.1917
 5217TIP3   OH215656   1.974   2.075   1.823 -0.5517 -0.1205 -0.1220
 5217TIP3    H115657   2.040   2.063   1.755  0.4805 -1.4773  1.0582
 5217TIP3    H215658   1.904   2.013   1.800 -0.1775 -0.6204  0.0673
 5218TIP3   OH215659   0.762   2.774   3.315 -0.1120  0.0765  0.0485
 5218TIP3    H115660   0.801   2.688   3.328  1.4227  0.6455 -0.6174
 5218TIP3    H215661   0.733   2.774   3.224  0.5865  0.5152 -0.1824
 5219TIP3   OH215662   2.077   0.398   5.108  0.0964 -0.1305  0.0320
 5219TIP3    H115663   2.164   0.359   5.100  0.3558  0.4768 -0.0963
 5219TIP3    H215664   2.070   0.457   5.033 -0.9024 -1.0867 -0.6593
 5220TIP3   OH215665   5.282   3.304   0.247 -0.6961  0.4777 -0.1178
 5220TIP3    H115666   5.234   3.334   0.324 -1.0459 -0.3075 -0.0271
 5220TIP3    H215667   5.356   3.255   0.282 -1.0035 -0.1090 -0.2734
 5221TIP3   OH215668   0.347   4.794   1.723  0.0832 -0.1991  0.1121
 5221TIP3    H115669   0.391   4.784   1.807  0.8663 -1.2143 -0.4093
 5221TIP3    H215670   0.255   4.777   1.742 -0.0014  1.1123  1.0418
 5222TIP3   OH215671   0.326   1.953   1.283  0.0457 -0.2397 -0.3030
 5222TIP3    H115672   0.297   1.997   1.204 -0.1030  1.6085  0.7244
 5222TIP3    H215673   0.270   1.989   1.352  0.6787 -1.2295  0.7564
 5223TIP3   OH215674   2.294   1.607   2.553 -0.3903  0.1407  0.1577
 5223TIP3    H115675   2.249   1.681   2.592 -0.3924  0.3601 -0.2521
 5223TIP3    H215676   2.385   1.617   2.578 -1.0027 -2.5484  4.6162
 5224TIP3   OH215677   3.396   5.963   1.872 -0.3156  0.2430 -0.1893
 5224TIP3    H115678   3.301   5.975   1.878 -0.1476  0.8768  3.2810
 5224TIP3    H215679   3.407   5.869   1.860 -1.3793  0.0400  0.3077
 5225TIP3   OH215680   4.549   3.861   2.490  0.4364  0.0392 -0.1685
 5225TIP3    H115681   4.609   3.790   2.511  0.6010  0.7733  2.1298
 5225TIP3    H215682   4.601   3.940   2.498  0.0200  0.5303 -1.7875
 5226TIP3   OH215683   2.113   1.658   0.083 -0.0667 -0.9079  0.0435
 5226TIP3    H115684   2.138   1.737   0.034 -1.5132 -0.1684  0.4668
 5226TIP3    H215685   2.020   1.667   0.099 -0.2899 -2.7603  0.0544
 5227TIP3   OH215686   5.547   5.324   3.099 -0.0795  0.0356  0.1843
 5227TIP3    H115687   5.533   5.232   3.076  0.0393  0.4147 -1.5059
 5227TIP3    H215688   5.566   5.367   3.016 -1.5416  1.8571  0.7317
 5228TIP3   OH215689   3.021   4.429   2.520  0.5296 -0.0741  0.8110
 5228TIP3    H115690   2.926   4.431   2.514  0.4034 -1.4395  1.9121
 5228TIP3    H215691   3.051   4.411   2.430 -0.3284 -1.1632  0.7307
 5229TIP3   OH215692   0.550   2.743   4.864  0.3086 -0.1956  0.3447
 5229TIP3    H115693   0.576   2.755   4.773 -0.0097 -0.0959  0.2655
 5229TIP3    H215694   0.477   2.804   4.876  0.1932 -0.3841  0.5987
 5230TIP3   OH215695   5.790   2.862   0.735  0.6437  1.0865 -0.2543
 5230TIP3    H115696   5.845   2.837   0.661  0.6301 -1.2414  0.4310
 5230TIP3    H215697   5.709   2.812   0.722  0.3699  1.1812  0.9317
 5231TIP3   OH215698   1.037   1.292   2.608 -0.8087 -0.4962 -0.0587
 5231TIP3    H115699   1.129   1.267   2.599 -0.4439  0.5577  0.5620
 5231TIP3    H215700   1.002   1.286   2.519  0.7187  2.2706 -0.9646
 5232TIP3   OH215701   0.555   1.249   1.614 -0.4286  0.1697 -0.5729
 5232TIP3    H115702   0.546   1.292   1.530 -1.2961  1.2740  0.0618
 5232TIP3    H215703   0.541   1.156   1.595  1.1233  0.1577 -1.9009
 5233TIP3   OH215704   4.099   0.561   3.693  0.2575 -0.0460  0.4469
 5233TIP3    H115705   4.092   0.536   3.785 -0.1231  2.5824  1.2352
 5233TIP3    H215706   4.022   0.524   3.651  1.0720 -2.3247  0.8649
 5234TIP3   OH215707   2.006   2.533   3.381  0.2375 -0.2817 -0.4669
 5234TIP3    H115708   2.049   2.608   3.339  2.1672  0.1809  2.0917
 5234TIP3    H215709   1.925   2.569   3.418  0.1498  0.0556 -0.9726
 5235TIP3   OH215710   3.061   5.423   0.075 -0.7520  0.2822 -0.1730
 5235TIP3    H115711   3.013   5.379   0.005 -1.1318 -0.8898  0.7985
 5235TIP3    H215712   3.013   5.402   0.155  0.2044  0.8187  0.5719
 5236TIP3   OH215713   5.832   3.185   2.410 -1.1691  0.6668  0.3935
 5236TIP3    H115714   5.884   3.168   2.489 -0.5405  1.4557  0.1644
 5236TIP3    H215715   5.776   3.259   2.434 -1.3907  0.5282  0.2937
 5237TIP3   OH215716   6.322   4.801   4.810 -0.0040  0.2048  0.0623
 5237TIP3    H115717   6.330   4.813   4.716  0.3042 -0.0998  0.0479
 5237TIP3    H215718   6.412   4.805   4.843 -0.1186  0.4198  0.3571
 5238TIP3   OH215719   5.258   5.647   1.129 -0.0279 -0.4783  0.2299
 5238TIP3    H115720   5.294   5.644   1.041 -2.8305 -0.0417 -1.0253
 5238TIP3    H215721   5.286   5.731   1.164  0.6881 -0.4422 -0.4241
 5239TIP3   OH215722   6.204   1.499   0.419  0.2180  0.0826  0.2135
 5239TIP3    H115723   6.186   1.472   0.329 -0.6084 -1.2229  0.7428
 5239TIP3    H215724   6.275   1.442   0.447  0.0311  0.0468  0.6101
 5240TIP3   OH215725   5.754   4.888   1.955  0.6120  0.7814  0.5169
 5240TIP3    H115726   5.777   4.974   1.920  3.6588 -1.0328 -2.6381
 5240TIP3    H215727   5.686   4.856   1.897  2.1435 -0.2728 -0.8046
 5241TIP3   OH215728   1.962   0.624   0.621  0.1622  0.1244  0.5258
 5241TIP3    H115729   1.908   0.552   0.654 -0.2787  0.0468 -0.3433
 5241TIP3    H215730   2.006   0.587   0.544 -0.0180  0.7656  0.1125
 5242TIP3   OH215731   0.005   0.326   1.059 -0.4719 -0.4551 -0.0463
 5242TIP3    H115732   0.066   0.346   0.988  0.3650  0.4909  0.9083
 5242TIP3    H215733   0.006   0.404   1.115 -1.2341 -1.1110  0.9267
 5243TIP3   OH215734   5.815   5.392   1.697 -0.0436 -0.6570 -0.6044
 5243TIP3    H115735   5.823   5.369   1.789  1.3592  0.4298 -0.4180
 5243TIP3    H215736   5.759   5.324   1.660  1.1195 -2.3700  0.6118
 5244TIP3   OH215737   2.897   5.864   3.826 -0.0613 -0.3241  0.1218
 5244TIP3    H115738   2.990   5.862   3.847 -0.3212  0.3535  1.4285
 5244TIP3    H215739   2.872   5.772   3.816  1.0608 -0.4772 -1.8697
 5245TIP3   OH215740   3.448   3.197   3.964 -0.3317  0.1413  0.5645
 5245TIP3    H115741   3.511   3.135   4.001 -0.0475 -1.1499 -1.8644
 5245TIP3    H215742   3.365   3.149   3.962  0.0691 -0.6357 -2.1174
 5246TIP3   OH215743   4.941   0.530   4.336  0.2721  0.0837  0.4662
 5246TIP3    H115744   4.898   0.615   4.324  1.2024  0.3848 -0.9807
 5246TIP3    H215745   5.006   0.545   4.404 -0.7120  0.0652  1.4421
 5247TIP3   OH215746   1.547   2.367   0.221  0.2483 -0.6207 -0.4809
 5247TIP3    H115747   1.566   2.423   0.145  1.0252 -0.0838  0.0897
 5247TIP3    H215748   1.570   2.421   0.297  0.6634 -1.5742  0.1011
 5248TIP3   OH215749   1.933   2.570   2.041 -0.2530  0.0108  0.1576
 5248TIP3    H115750   1.840   2.593   2.030  0.4341  3.4684  0.6034
 5248TIP3    H215751   1.952   2.588   2.133  0.5856 -2.0824  0.4486
 5249TIP3   OH215752   2.571   0.574   4.812 -0.0527  0.3188 -0.4361
 5249TIP3    H115753   2.554   0.513   4.741 -1.4486 -0.4498  0.4988
 5249TIP3    H215754   2.659   0.607   4.795 -0.2789  0.0350 -2.3931
 5250TIP3   OH215755   6.170   0.396   2.806 -0.5419  0.1489 -0.1382
 5250TIP3    H115756   6.193   0.418   2.715  1.7762 -0.0171  0.3398
 5250TIP3    H215757   6.095   0.337   2.798 -0.8323  0.6787 -1.8941
 5251TIP3   OH215758   3.260   4.667   0.869  0.0089  0.1898 -0.2432
 5251TIP3    H115759   3.205   4.742   0.891  1.2080  0.7361  1.0735
 5251TIP3    H215760   3.271   4.620   0.951  1.1180 -0.1628 -0.5733
 5252TIP3   OH215761   1.428   0.955   2.568 -0.4829 -0.0644 -0.9084
 5252TIP3    H115762   1.505   0.937   2.514 -0.4935 -1.9883 -0.3777
 5252TIP3    H215763   1.365   0.888   2.543 -1.2742  0.3175 -0.0049
 5253TIP3   OH215764   1.317   2.074   1.376  0.2281  0.6243  0.5557
 5253TIP3    H115765   1.353   2.019   1.446 -2.1745 -1.5425  0.2283
 5253TIP3    H215766   1.371   2.053   1.300 -0.7493 -1.5482  0.3905
 5254TIP3   OH215767   2.943   1.444   4.876  0.0315 -0.7208 -0.0372
 5254TIP3    H115768   2.968   1.493   4.954  0.7043 -1.3973  0.1840
 5254TIP3    H215769   2.848   1.456   4.870  0.2837  1.4201 -0.5700
 5255TIP3   OH215770   5.617   4.654   2.517 -0.1140 -0.0575  0.5800
 5255TIP3    H115771   5.556   4.617   2.453 -0.8842 -0.4232  1.5101
 5255TIP3    H215772   5.567   4.661   2.598  0.7188  0.8165  1.0442
 5256TIP3   OH215773   4.004   3.040   4.992  0.1863 -0.3480  0.7807
 5256TIP3    H115774   4.035   3.115   5.043 -0.6940 -0.1267  1.0110
 5256TIP3    H215775   3.950   2.990   5.053 -1.6777  0.4256 -0.1460
 5257TIP3   OH215776   3.442   2.169   1.892  0.2337 -0.2546 -0.1304
 5257TIP3    H115777   3.378   2.101   1.915 -0.9604  1.1927  0.9959
 5257TIP3    H215778   3.524   2.122   1.883 -0.6875 -1.9590 -0.0817
 5258TIP3   OH215779   5.764   1.467   2.964 -0.1093 -0.4685  0.0008
 5258TIP3    H115780   5.728   1.484   3.051 -2.6404 -1.9951 -0.6470
 5258TIP3    H215781   5.737   1.542   2.912  1.6633  0.5946  0.5150
 5259TIP3   OH215782   1.144   5.908   3.141  0.2161  0.2497  0.0396
 5259TIP3    H115783   1.223   5.854   3.145 -0.1270 -0.2289  0.4391
 5259TIP3    H215784   1.077   5.856   3.185  0.0468  1.2690  1.0516
 5260TIP3   OH215785   3.475   3.065   0.358  0.5530 -0.3318 -0.1718
 5260TIP3    H115786   3.544   3.121   0.394 -0.5350  1.6484 -1.0254
 5260TIP3    H215787   3.454   3.104   0.273 -2.2068 -0.3033  0.4197
 5261TIP3   OH215788   2.546   4.554   1.112  0.0819  0.0051  0.2705
 5261TIP3    H115789   2.574   4.530   1.200  0.9209 -1.2709 -0.3239
 5261TIP3    H215790   2.606   4.624   1.086  2.0701 -1.8861 -0.5268
 5262TIP3   OH215791   2.751   3.173   5.106 -0.4847  0.2490  0.0394
 5262TIP3    H115792   2.787   3.138   5.025 -1.0132  2.4622 -1.2442
 5262TIP3    H215793   2.778   3.265   5.106 -0.7018  0.3609  2.2825
 5263TIP3   OH215794   4.760   1.170   4.679 -0.7036  0.3635  0.2084
 5263TIP3    H115795   4.726   1.258   4.693  1.5638  1.0943  1.8155
 5263TIP3    H215796   4.820   1.155   4.753  2.5743 -0.6395 -2.3630
 5264TIP3   OH215797   6.157   2.062   0.327  0.0052 -0.4352  0.3775
 5264TIP3    H115798   6.146   2.091   0.417  0.2392  0.1571  0.2222
 5264TIP3    H215799   6.150   1.967   0.331 -1.1452 -0.3392  0.8454
 5265TIP3   OH215800   0.111   3.016   2.211  0.0459  0.1893 -0.0508
 5265TIP3    H115801   0.172   3.027   2.283 -1.2564  1.6621  0.8771
 5265TIP3    H215802   0.025   3.035   2.248 -1.0668 -2.0650 -1.2464
 5266TIP3   OH215803   2.098   5.871   2.888 -0.0032  0.8407 -0.0244
 5266TIP3    H115804   2.025   5.857   2.947  0.5998 -1.6787  0.2179
 5266TIP3    H215805   2.058   5.897   2.805 -0.9642  2.3678  0.8749
 5267TIP3   OH215806   4.969   0.929   3.137 -0.2506 -0.1573 -0.5096
 5267TIP3    H115807   4.880   0.962   3.121 -1.5676 -2.7425  0.9093
 5267TIP3    H215808   4.964   0.836   3.115  0.8859 -1.3422  3.4376
 5268TIP3   OH215809   3.350   0.739   2.799 -0.2502  0.2263 -0.6618
 5268TIP3    H115810   3.380   0.816   2.849 -0.2934  0.8284 -1.5335
 5268TIP3    H215811   3.416   0.672   2.816  0.2578  0.7394 -0.5866
 5269TIP3   OH215812   0.076   5.688   3.703  0.4285  0.4191  0.5085
 5269TIP3    H115813   0.126   5.632   3.763  1.9934  1.4258  0.2226
 5269TIP3    H215814   0.142   5.721   3.641 -1.0278 -0.1020 -1.4015
 5270TIP3   OH215815   2.883   2.940   1.641  0.0090 -0.2333 -0.0293
 5270TIP3    H115816   2.827   2.903   1.709  0.1092  0.3080  0.3517
 5270TIP3    H215817   2.862   2.889   1.562 -1.1717  0.0978  0.0548
 5271TIP3   OH215818   6.210   5.404   5.215 -0.0998 -0.5167 -0.2008
 5271TIP3    H115819   6.256   5.432   5.137  0.9938 -1.6968 -0.0283
 5271TIP3    H215820   6.216   5.308   5.213  0.0558 -0.5719  1.3660
 5272TIP3   OH215821   4.000   3.076   0.307 -0.3164 -0.3050  0.6489
 5272TIP3    H115822   4.000   3.134   0.383 -2.4545  0.1653  0.3514
 5272TIP3    H215823   4.087   3.037   0.307  0.7730  1.9308  1.5961
 5273TIP3   OH215824   3.503   2.075   3.609  0.4430  0.4794 -0.2986
 5273TIP3    H115825   3.436   2.134   3.642  0.1975  0.1906 -0.2734
 5273TIP3    H215826   3.535   2.116   3.529  0.1000  0.5263 -0.4134
 5274TIP3   OH215827   4.504   5.249   3.591 -0.7340 -0.7028 -0.3846
 5274TIP3    H115828   4.428   5.255   3.533 -0.5445 -0.8349 -0.6501
 5274TIP3    H215829   4.467   5.241   3.678 -1.0322  0.7910 -0.3430
 5275TIP3   OH215830   2.815   0.328   0.189 -0.4866  0.5011  0.1291
 5275TIP3    H115831   2.817   0.384   0.111  1.7666 -0.8050 -0.8340
 5275TIP3    H215832   2.762   0.377   0.252 -1.0969  2.3045 -1.6849
 5276TIP3   OH215833   2.799   2.476   4.485  0.1277  0.4708  0.4451
 5276TIP3    H115834   2.763   2.564   4.495 -0.2413  0.3889 -0.1444
 5276TIP3    H215835   2.878   2.476   4.540 -0.0765  1.0444  0.7470
 5277TIP3   OH215836   2.300   1.308   3.236 -0.6725 -0.9737  0.5499
 5277TIP3    H115837   2.221   1.343   3.276 -2.0777 -1.4893 -1.6139
 5277TIP3    H215838   2.348   1.267   3.309 -0.6604  2.2216  2.5266
 5278TIP3   OH215839   2.310   4.149   1.643  0.2737 -0.0209 -0.2795
 5278TIP3    H115840   2.241   4.094   1.606 -0.3054  0.3189  0.2771
 5278TIP3    H215841   2.383   4.141   1.581 -0.1967 -0.5323 -0.7751
 5279TIP3   OH215842   4.825   5.264   0.745 -0.0751 -0.2895 -0.2210
 5279TIP3    H115843   4.762   5.331   0.771  0.8053 -0.2149  1.8812
 5279TIP3    H215844   4.905   5.286   0.794  1.4574 -0.6795 -2.3863
 5280TIP3   OH215845   2.129   3.459   5.015  0.2091 -0.0939  0.0754
 5280TIP3    H115846   2.123   3.503   4.930 -0.4108  0.4618  0.3991
 5280TIP3    H215847   2.209   3.407   5.010  0.0627 -0.2441 -0.9350
 5281TIP3   OH215848   6.290   1.278   3.567 -0.3129  0.0436  0.0695
 5281TIP3    H115849   6.245   1.314   3.644  2.1288  0.5749  1.3544
 5281TIP3    H215850   6.224   1.280   3.498 -2.4517  0.0802  1.9750
 5282TIP3   OH215851   3.490   1.916   0.340  0.5602  0.1593 -0.0768
 5282TIP3    H115852   3.494   2.010   0.324 -1.7495  0.3990  0.3554
 5282TIP3    H215853   3.528   1.876   0.262 -0.4878  1.4339 -1.2984
 5283TIP3   OH215854   2.152   4.968   0.612  0.1348  0.1986  0.0137
 5283TIP3    H115855   2.085   4.900   0.621  0.5137 -0.0737  0.8665
 5283TIP3    H215856   2.168   4.998   0.701 -0.8762  2.2657 -0.4413
 5284TIP3   OH215857   4.081   1.366   0.385 -0.5762  0.2129  0.2086
 5284TIP3    H115858   4.025   1.360   0.307  1.2165 -0.9028 -1.0616
 5284TIP3    H215859   4.062   1.286   0.433  0.5542 -0.6327 -0.7028
 5285TIP3   OH215860   1.851   3.562   0.537  0.0655 -0.0103 -0.0653
 5285TIP3    H115861   1.878   3.526   0.452  0.8033  0.4228 -0.0279
 5285TIP3    H215862   1.777   3.620   0.517 -0.0588 -0.2652 -0.3492
 5286TIP3   OH215863   2.513   1.404   3.054 -0.0739 -0.4389 -0.1224
 5286TIP3    H115864   2.568   1.439   3.124  1.5064 -0.1060 -1.4716
 5286TIP3    H215865   2.439   1.363   3.100 -0.5764  2.1632  1.6425
 5287TIP3   OH215866   1.833   1.684   0.047 -0.3373  0.1100 -0.1017
 5287TIP3    H115867   1.849   1.591   0.034  0.4655 -0.4316  3.5485
 5287TIP3    H215868   1.747   1.688   0.088 -1.7167  1.3718 -2.8466
 5288TIP3   OH215869   0.188   4.178   4.234  0.1204 -0.3918 -0.7955
 5288TIP3    H115870   0.263   4.223   4.193  0.2165 -0.7912 -1.0684
 5288TIP3    H215871   0.205   4.085   4.218  0.9631 -0.6913  1.5233
 5289TIP3   OH215872   1.069   5.129   0.373  0.3149 -0.1838  0.0892
 5289TIP3    H115873   1.068   5.183   0.294 -2.1088 -1.2559 -0.6915
 5289TIP3    H215874   1.094   5.042   0.343 -1.1809 -0.7320  0.3519
 5290TIP3   OH215875   1.586   4.487   1.360 -0.5117  0.1935  0.4524
 5290TIP3    H115876   1.617   4.492   1.451  2.7373  3.2514 -0.6021
 5290TIP3    H215877   1.661   4.452   1.312 -1.7675 -0.2530 -1.2471
 5291TIP3   OH215878   0.895   2.351   1.693 -0.3563 -0.4482 -0.6211
 5291TIP3    H115879   0.950   2.419   1.731 -3.3709  0.7661  2.0809
 5291TIP3    H215880   0.945   2.270   1.704  1.5774  0.7637  0.0291
 5292TIP3   OH215881   1.550   4.538   1.058  0.0445 -0.1046  0.4009
 5292TIP3    H115882   1.469   4.578   1.026  0.1283 -0.0361  0.2736
 5292TIP3    H215883   1.521   4.472   1.120 -0.2570 -2.0757 -1.7166
 5293TIP3   OH215884   5.540   3.629   0.979 -0.0268 -0.2562  0.5134
 5293TIP3    H115885   5.588   3.561   1.025  0.0660  0.2316  1.1480
 5293TIP3    H215886   5.602   3.701   0.970  0.0694 -0.4711 -0.6958
 5294TIP3   OH215887   6.065   3.639   4.489 -0.1027 -0.0703  0.1148
 5294TIP3    H115888   6.131   3.708   4.493 -0.1148  0.1694 -2.2020
 5294TIP3    H215889   5.998   3.675   4.430 -1.8710 -0.6812  1.6465
 5295TIP3   OH215890   2.155   5.146   1.842  0.2816  0.0777 -0.0355
 5295TIP3    H115891   2.190   5.173   1.928 -1.4957  0.2062  0.6955
 5295TIP3    H215892   2.141   5.229   1.796 -0.5202  0.1294  0.2889
 5296TIP3   OH215893   4.608   3.713   0.582  0.7850  0.3530  0.4176
 5296TIP3    H115894   4.544   3.783   0.593 -0.6920 -0.6260 -1.3830
 5296TIP3    H215895   4.668   3.724   0.656  0.0534  2.8904  0.7361
 5297TIP3   OH215896   0.573   5.654   0.357  0.1449  0.5066  0.5319
 5297TIP3    H115897   0.605   5.574   0.316 -0.6531  0.2556  0.3970
 5297TIP3    H215898   0.650   5.711   0.360  0.4607  0.1439 -0.3640
 5298TIP3   OH215899   1.762   0.848   3.322  0.1913  0.3520 -0.0442
 5298TIP3    H115900   1.800   0.921   3.273  0.6310 -0.5280 -1.0522
 5298TIP3    H215901   1.676   0.835   3.283  0.4292 -0.1700 -0.4077
 5299TIP3   OH215902   4.750   2.631   4.710 -0.4389  0.3277 -0.1264
 5299TIP3    H115903   4.680   2.580   4.752 -0.2138 -1.0965 -1.3918
 5299TIP3    H215904   4.821   2.632   4.774 -0.0069 -2.0058 -0.4883
 5300TIP3   OH215905   3.322   5.515   1.226  0.1693 -0.0118  1.1396
 5300TIP3    H115906   3.388   5.480   1.286  0.3799 -0.5331  0.6135
 5300TIP3    H215907   3.347   5.606   1.215  1.5175 -0.4818  0.0261
 5301TIP3   OH215908   6.339   3.429   1.416 -0.2103 -0.2634  0.7681
 5301TIP3    H115909   6.277   3.381   1.362 -0.6507  0.6930  0.4047
 5301TIP3    H215910   6.414   3.445   1.359 -0.7389  0.8826  0.3529
 5302TIP3   OH215911   5.813   2.063   2.547 -0.3014 -0.6484 -0.1295
 5302TIP3    H115912   5.718   2.071   2.554 -0.5431 -1.0958 -2.1870
 5302TIP3    H215913   5.836   2.109   2.467  1.1519 -1.0356  0.0225
 5303TIP3   OH215914   4.585   3.127   4.593  0.4475  0.0417 -0.6287
 5303TIP3    H115915   4.624   3.067   4.656  0.2426  0.7631  0.2007
 5303TIP3    H215916   4.527   3.183   4.645 -0.5245 -0.0216 -1.6103
 5304TIP3   OH215917   2.018   5.079   2.606  0.2857 -0.1031 -0.6464
 5304TIP3    H115918   1.926   5.104   2.605  0.1460 -0.5999 -1.1512
 5304TIP3    H215919   2.058   5.132   2.537  0.4814  0.4849 -0.0797
 5305TIP3   OH215920   3.622   5.055   2.799 -0.1380 -0.0267 -0.2553
 5305TIP3    H115921   3.616   5.081   2.707 -0.6857  3.2556  0.5760
 5305TIP3    H215922   3.716   5.052   2.817  0.1048 -3.3199 -1.4524
 5306TIP3   OH215923   0.415   2.248   3.242 -0.0331  0.0146  0.7612
 5306TIP3    H115924   0.334   2.244   3.292 -1.1389 -0.2528 -0.9904
 5306TIP3    H215925   0.466   2.173   3.272 -1.0886 -0.7094  0.7774
 5307TIP3   OH215926   5.981   3.559   3.563  0.0118  0.2598 -0.1158
 5307TIP3    H115927   5.992   3.519   3.476 -0.5934  0.7604 -0.4385
 5307TIP3    H215928   6.016   3.494   3.624 -0.5953 -0.6006 -0.6529
 5308TIP3   OH215929   4.825   1.772   2.351 -0.3288  0.5312  0.2485
 5308TIP3    H115930   4.823   1.745   2.443  1.9892  0.0511  0.2109
 5308TIP3    H215931   4.871   1.701   2.306 -2.5986  0.0769 -1.6000
 5309TIP3   OH215932   2.203   2.559   4.775 -0.4622  0.0950  0.4252
 5309TIP3    H115933   2.285   2.529   4.735 -0.9968  0.1573 -0.7506
 5309TIP3    H215934   2.202   2.653   4.758 -0.0554  0.3659  1.7970
 5310TIP3   OH215935   5.720   5.704   2.919 -0.3093  0.6395 -0.3108
 5310TIP3    H115936   5.787   5.761   2.881  0.8129  0.5825  1.4697
 5310TIP3    H215937   5.672   5.761   2.979 -0.1320  0.0890  0.3748
 5311TIP3   OH215938   4.784   2.807   3.366 -0.0839 -0.2458  0.7246
 5311TIP3    H115939   4.703   2.812   3.416  0.4577  0.5731  1.5538
 5311TIP3    H215940   4.760   2.836   3.278 -0.8674 -0.8680  0.7217
 5312TIP3   OH215941   5.064   5.416   0.394  0.3068 -0.7368  0.1073
 5312TIP3    H115942   5.006   5.489   0.372  0.3252 -0.6784  0.2553
 5312TIP3    H215943   5.098   5.387   0.309  1.0762  0.0659  0.1208
 5313TIP3   OH215944   3.930   0.998   0.189  0.3251 -0.1276  0.3856
 5313TIP3    H115945   3.842   1.008   0.225 -0.0505  0.5339 -0.6753
 5313TIP3    H215946   3.988   1.016   0.262 -0.4201  0.6306  0.8055
 5314TIP3   OH215947   1.474   5.788   0.262 -0.1489 -0.3840  0.5321
 5314TIP3    H115948   1.553   5.741   0.239  0.6583  0.9748  0.4392
 5314TIP3    H215949   1.504   5.866   0.309 -1.4614 -0.1795  1.0993
 5315TIP3   OH215950   5.571   2.899   0.397  0.3336 -0.0476  0.3432
 5315TIP3    H115951   5.559   2.804   0.407  0.8157 -0.1865 -0.3619
 5315TIP3    H215952   5.664   2.909   0.376  0.1369  0.5309 -0.2458
 5316TIP3   OH215953   1.041   4.257   1.187 -0.4748 -0.2783  0.1290
 5316TIP3    H115954   1.099   4.186   1.160  0.5243  0.1798  1.0193
 5316TIP3    H215955   1.040   4.252   1.282  0.3017  1.4105  0.2616
 5317TIP3   OH215956   3.100   4.187   0.833 -0.4041  0.8166  0.0379
 5317TIP3    H115957   3.106   4.200   0.928  2.2961  1.7834 -0.1707
 5317TIP3    H215958   3.141   4.102   0.818 -0.3766  0.8887 -0.2985
 5318TIP3   OH215959   2.112   0.919   1.597  0.1935 -0.1224  0.5807
 5318TIP3    H115960   2.156   0.903   1.514 -1.1757 -1.0056  0.0012
 5318TIP3    H215961   2.111   1.014   1.606  2.5821 -0.0487  0.8535
 5319TIP3   OH215962   0.576   1.676   4.398 -0.3473  0.1488 -0.4556
 5319TIP3    H115963   0.662   1.670   4.438 -0.1220 -0.8210 -1.0452
 5319TIP3    H215964   0.516   1.633   4.460  0.2601 -2.9563 -1.7861
 5320TIP3   OH215965   0.533   4.608   4.577 -0.4626 -0.5129 -0.6515
 5320TIP3    H115966   0.615   4.627   4.531 -0.1605 -1.1896 -0.4104
 5320TIP3    H215967   0.488   4.544   4.521 -0.2836 -1.0249 -0.2211
 5321TIP3   OH215968   0.382   5.268   2.995 -0.1022 -0.6155 -0.0495
 5321TIP3    H115969   0.437   5.248   2.919  0.8369  2.3280 -0.2701
 5321TIP3    H215970   0.303   5.217   2.981  0.3664 -0.7723 -2.6310
 5322TIP3   OH215971   0.256   4.906   4.587  0.5236  0.0127  0.2489
 5322TIP3    H115972   0.260   4.812   4.605  1.2650  0.1691  0.9430
 5322TIP3    H215973   0.200   4.940   4.656  0.2305  0.0797 -0.0211
 5323TIP3   OH215974   1.509   3.450   2.167  0.3243  0.3823  0.3504
 5323TIP3    H115975   1.524   3.420   2.257  0.4268 -1.3935 -0.2249
 5323TIP3    H215976   1.597   3.458   2.130  0.2358 -1.4704 -0.3582
 5324TIP3   OH215977   4.915   0.668   0.625 -0.3364 -0.1157 -0.6375
 5324TIP3    H115978   4.872   0.678   0.710  2.0893  1.4628  0.5266
 5324TIP3    H215979   4.869   0.730   0.568  0.1067  1.3437  0.5040
 5325TIP3   OH215980   3.203   0.278   3.640  0.3616 -0.0173 -0.0270
 5325TIP3    H115981   3.295   0.303   3.644  0.3345  0.3912 -1.2720
 5325TIP3    H215982   3.193   0.240   3.553 -0.6127 -0.1958  0.1519
 5326TIP3   OH215983   5.328   4.102   1.554  0.0242 -0.0116  0.2730
 5326TIP3    H115984   5.407   4.146   1.585  0.1162  0.4068 -0.5188
 5326TIP3    H215985   5.296   4.157   1.483  0.5107 -1.5645 -1.2087
 5327TIP3   OH215986   3.034   5.129   3.932 -0.1277  0.1330 -0.4995
 5327TIP3    H115987   3.114   5.102   3.886 -1.6806 -0.6763 -2.9036
 5327TIP3    H215988   3.002   5.205   3.882 -0.2444  1.2515  1.1993
 5328TIP3   OH215989   3.792   1.593   2.763  0.1217 -0.6229  0.2873
 5328TIP3    H115990   3.790   1.589   2.859  1.1411  0.8124  0.3985
 5328TIP3    H215991   3.880   1.565   2.740 -0.2453 -1.3475 -0.2777
 5329TIP3   OH215992   1.646   0.496   3.610  0.5154 -0.3095  0.0875
 5329TIP3    H115993   1.638   0.588   3.637  0.9350  0.1250 -1.2282
 5329TIP3    H215994   1.555   0.465   3.605  0.3474  0.1896  0.0174
 5330TIP3   OH215995   3.248   1.116   2.118 -0.2820  0.7306  0.4859
 5330TIP3    H115996   3.316   1.179   2.094 -0.4071  0.6986  0.0404
 5330TIP3    H215997   3.265   1.096   2.210  0.4603  0.5325  0.3094
 5331TIP3   OH215998   5.202   2.662   3.881  0.5355 -0.0453 -0.9459
 5331TIP3    H115999   5.289   2.643   3.846  1.0853 -0.6114  0.6341
 5331TIP3    H216000   5.180   2.584   3.932  0.6303  1.4498  1.5389
 5332TIP3   OH216001   5.564   2.371   2.005  0.9549  0.2148 -0.8605
 5332TIP3    H116002   5.557   2.284   1.966  1.7643 -0.1072 -0.3054
 5332TIP3    H216003   5.491   2.377   2.065  0.7415  0.0221 -1.1010
 5333TIP3   OH216004   0.153   0.952   1.195 -0.3285 -0.1272  0.2857
 5333TIP3    H116005   0.132   0.871   1.241  0.8137 -1.2398 -1.0525
 5333TIP3    H216006   0.196   1.007   1.260 -0.3613 -0.9257  0.9914
 5334TIP3   OH216007   3.863   0.456   3.543 -0.1669 -0.7587 -0.5155
 5334TIP3    H116008   3.813   0.534   3.565 -0.0093 -0.4834 -1.0996
 5334TIP3    H216009   3.809   0.409   3.480 -0.7628 -1.7070  0.6727
 5335TIP3   OH216010   1.543   2.122   2.258 -0.6061 -0.0585  0.6466
 5335TIP3    H116011   1.470   2.064   2.282 -0.5167 -0.5382 -0.2083
 5335TIP3    H216012   1.516   2.208   2.290 -0.9620 -0.4687  1.4947
 5336TIP3   OH216013   0.120   3.036   0.122 -0.2901 -0.1875  0.2407
 5336TIP3    H116014   0.145   3.122   0.157  0.4340  0.5829 -1.9607
 5336TIP3    H216015   0.197   2.981   0.138 -0.7566 -0.4706  1.6610
 5337TIP3   OH216016   5.893   3.939   1.111 -0.1181 -0.5406 -0.6092
 5337TIP3    H116017   5.962   3.918   1.174 -0.7227 -1.1705 -0.1463
 5337TIP3    H216018   5.937   3.993   1.045  0.7896 -0.8321 -0.2608
 5338TIP3   OH216019   1.257   5.159   1.112 -0.4154  0.3084 -0.0146
 5338TIP3    H116020   1.232   5.161   1.205  1.7040 -1.4084  0.6624
 5338TIP3    H216021   1.294   5.246   1.096  1.6087 -0.2058  1.5311
 5339TIP3   OH216022   1.912   4.101   0.748  0.0158  0.3236  1.0502
 5339TIP3    H116023   1.983   4.166   0.746  1.0373 -0.6764  2.5333
 5339TIP3    H216024   1.889   4.095   0.841  0.1441 -1.6033  0.9901
 5340TIP3   OH216025   2.453   4.589   3.645  0.1337 -0.4116 -0.2774
 5340TIP3    H116026   2.391   4.517   3.629  0.0187 -0.6717  1.2301
 5340TIP3    H216027   2.538   4.553   3.621 -0.0318 -0.7377 -0.3872
 5341TIP3   OH216028   5.521   5.906   4.554  0.3054  0.1498 -0.2461
 5341TIP3    H116029   5.498   5.814   4.561  0.8814  0.0128 -0.0904
 5341TIP3    H216030   5.568   5.925   4.636 -0.1285  0.6725 -0.1140
 5342TIP3   OH216031   3.051   1.061   0.236 -0.2978 -0.2286  0.0703
 5342TIP3    H116032   3.028   0.974   0.204  1.1644 -1.2999  1.7115
 5342TIP3    H216033   2.973   1.090   0.284 -0.3346 -1.2346  0.6448
 5343TIP3   OH216034   2.713   2.744   4.532  0.2799  0.8894  0.5360
 5343TIP3    H116035   2.798   2.778   4.505  0.5084  0.2940  0.4928
 5343TIP3    H216036   2.658   2.822   4.544  0.7085  1.2529  0.1553
 5344TIP3   OH216037   4.197   0.638   4.631  0.0963  0.3144  0.1472
 5344TIP3    H116038   4.269   0.628   4.569 -1.2937  0.5234 -1.5868
 5344TIP3    H216039   4.209   0.568   4.695  2.9749  1.5852  1.1423
 5345TIP3   OH216040   3.471   3.251   1.566 -0.1140 -0.2411  0.0437
 5345TIP3    H116041   3.475   3.217   1.477  0.0128  0.4262 -0.2105
 5345TIP3    H216042   3.556   3.228   1.604  0.5277  1.0136 -0.5864
 5346TIP3   OH216043   2.416   4.083   0.939 -0.8040 -0.6220 -0.0777
 5346TIP3    H116044   2.330   4.042   0.944 -0.6805 -1.0106 -1.0510
 5346TIP3    H216045   2.398   4.177   0.931 -1.1391 -0.7059 -0.3146
 5347TIP3   OH216046   5.895   0.454   4.520  0.4336 -0.0208 -0.0760
 5347TIP3    H116047   5.809   0.450   4.479  0.7514 -0.2702 -0.7282
 5347TIP3    H216048   5.944   0.517   4.466  0.8784 -0.4064 -0.1244
 5348TIP3   OH216049   5.420   2.294   4.286 -0.2481 -0.2522 -0.7438
 5348TIP3    H116050   5.330   2.317   4.308  0.0952 -1.3423  2.1872
 5348TIP3    H216051   5.413   2.213   4.237 -0.8775  0.0388 -1.1430
 5349TIP3   OH216052   1.696   3.409   4.722 -0.2365  0.2716  0.1347
 5349TIP3    H116053   1.602   3.409   4.739 -0.4328  1.3419 -0.8482
 5349TIP3    H216054   1.706   3.351   4.646 -0.1464  0.4274  0.0284
 5350TIP3   OH216055   1.588   1.106   2.123 -0.1460 -0.4879  0.0174
 5350TIP3    H116056   1.633   1.031   2.163  1.5541  0.3123 -0.2902
 5350TIP3    H216057   1.495   1.084   2.128  0.2761 -2.3220  0.5045
 5351TIP3   OH216058   5.920   5.257   2.349 -0.1544  0.0608 -0.5423
 5351TIP3    H116059   5.998   5.261   2.294 -1.1141  1.1035 -1.8701
 5351TIP3    H216060   5.857   5.314   2.306 -0.6617  1.6755  2.1212
 5352TIP3   OH216061   5.083   4.901   2.247  0.1387  0.2892  0.4068
 5352TIP3    H116062   5.012   4.905   2.183  0.1419  1.1729  0.4380
 5352TIP3    H216063   5.154   4.855   2.203 -0.3724 -0.3970  0.2931
 5353TIP3   OH216064   1.968   5.781   1.717 -0.3848 -0.1470 -0.3224
 5353TIP3    H116065   2.021   5.844   1.670  1.1147 -0.8540  0.3464
 5353TIP3    H216066   1.880   5.791   1.681  0.1791  1.1221 -1.4028
 5354TIP3   OH216067   4.617   4.273  -0.026 -0.0326 -0.5323  0.2117
 5354TIP3    H116068   4.561   4.229   0.037  0.4942 -0.8710  0.4552
 5354TIP3    H216069   4.633   4.359   0.012 -0.5865 -0.3388  0.0185
 5355TIP3   OH216070   2.473   1.300   4.237  0.9135 -0.3515 -0.2936
 5355TIP3    H116071   2.505   1.331   4.152 -2.9597 -1.5830 -2.4439
 5355TIP3    H216072   2.514   1.215   4.248  0.3712 -0.8247 -1.7133
 5356TIP3   OH216073   1.449   0.413   0.266 -0.3874  0.2555  0.0809
 5356TIP3    H116074   1.539   0.427   0.236 -0.1223  1.2989  1.2703
 5356TIP3    H216075   1.437   0.477   0.337 -1.7513 -0.5020  0.5737
 5357TIP3   OH216076   2.592   4.157   0.493 -0.4049 -0.0536 -0.3521
 5357TIP3    H116077   2.617   4.175   0.584  0.5229  0.5374 -0.7116
 5357TIP3    H216078   2.512   4.208   0.480 -0.2563  0.2789 -0.0094
 5358TIP3   OH216079   2.243   5.384   3.063 -0.2188  0.5367 -0.3622
 5358TIP3    H116080   2.284   5.438   3.130  0.1459  0.1877 -0.3006
 5358TIP3    H216081   2.238   5.297   3.103  0.6091  0.1743 -1.0278
 5359TIP3   OH216082   3.007   1.660   1.427  0.0261  0.3819 -0.2180
 5359TIP3    H116083   3.057   1.597   1.480 -0.2818 -2.0282 -2.5562
 5359TIP3    H216084   2.921   1.663   1.469  0.1202 -0.6104  0.0877
 5360TIP3   OH216085   4.617   2.640   0.115  0.3190  0.1744 -0.0834
 5360TIP3    H116086   4.545   2.662   0.055  0.4000  1.4818  0.2689
 5360TIP3    H216087   4.582   2.655   0.202  0.1191 -1.9880  0.2514
 5361TIP3   OH216088   2.738   1.126   1.745  0.3793 -0.0115 -0.0854
 5361TIP3    H116089   2.796   1.201   1.728  0.4022  0.5187  2.0862
 5361TIP3    H216090   2.796   1.059   1.781  0.4827 -1.4207 -2.6147
 5362TIP3   OH216091   2.100   5.323   0.843  0.0825  0.5646 -0.4028
 5362TIP3    H116092   2.118   5.372   0.923 -0.6365  0.3757 -0.1168
 5362TIP3    H216093   2.105   5.231   0.869 -0.8777  0.5038 -0.3956
 5363TIP3   OH216094   1.120   5.630   4.027  0.0258 -0.3339  0.4809
 5363TIP3    H116095   1.046   5.586   3.984 -0.9256  1.0817  0.5840
 5363TIP3    H216096   1.088   5.719   4.042  1.1060 -0.1992  2.2130
 5364TIP3   OH216097   0.309   0.340   2.140  0.0615 -0.3946  0.0640
 5364TIP3    H116098   0.235   0.300   2.093 -1.3014  0.0739  1.6876
 5364TIP3    H216099   0.325   0.422   2.094 -0.6705 -0.3412 -0.1201
 5365TIP3   OH216100   4.619   0.161   0.357 -0.3069 -0.1347  0.3530
 5365TIP3    H116101   4.660   0.131   0.276 -0.3716 -1.8801  0.9133
 5365TIP3    H216102   4.558   0.229   0.330  0.2029 -0.1749 -0.9597
 5366TIP3   OH216103   0.183   1.462   1.198  0.8850 -0.0896 -0.2618
 5366TIP3    H116104   0.140   1.409   1.131 -0.8328  1.1261 -0.2047
 5366TIP3    H216105   0.147   1.550   1.185 -0.2121  0.0371  2.7569
 5367TIP3   OH216106   5.619   0.402   2.934  0.5780 -0.7239 -0.0169
 5367TIP3    H116107   5.595   0.331   2.994 -0.4574 -0.3147  0.0621
 5367TIP3    H216108   5.668   0.358   2.865  1.0001 -1.3366  0.6501
 5368TIP3   OH216109   0.187   1.254   2.639  0.6579  0.7226  0.3646
 5368TIP3    H116110   0.110   1.236   2.585  2.0420 -1.4025 -1.0113
 5368TIP3    H216111   0.210   1.345   2.617 -0.1369  0.6445 -0.8991
 5369TIP3   OH216112   0.593   5.544   3.851  0.0634 -0.3244 -0.1435
 5369TIP3    H116113   0.583   5.578   3.940  1.2382 -2.5698  0.9466
 5369TIP3    H216114   0.512   5.569   3.806 -0.1609  1.6394  1.2555
 5370TIP3   OH216115   4.678   1.996   0.154 -0.1234  0.6026  0.6643
 5370TIP3    H116116   4.663   2.034   0.241  0.4101 -0.2249  1.1375
 5370TIP3    H216117   4.674   1.901   0.169  0.4740  0.4481 -0.1281
 5371TIP3   OH216118   5.041   1.719   4.164  0.0988  0.3881  0.5797
 5371TIP3    H116119   5.021   1.734   4.257 -2.1863 -0.5923  0.3354
 5371TIP3    H216120   5.082   1.632   4.163  1.0144  0.8127  0.7491
 5372TIP3   OH216121   3.854   2.886   0.158  0.3865  0.5154  0.4184
 5372TIP3    H116122   3.923   2.945   0.188  0.8414 -0.2216  0.8420
 5372TIP3    H216123   3.899   2.803   0.144 -0.3030  0.1950  0.0887
 5373TIP3   OH216124   0.175   3.893   1.890 -0.2106 -0.1698 -0.3813
 5373TIP3    H116125   0.097   3.875   1.943 -0.8076  0.2029 -1.1110
 5373TIP3    H216126   0.205   3.807   1.861  0.3059 -0.4072  0.7909
 5374TIP3   OH216127   5.789   5.756   3.945 -0.0994  0.1315 -0.0704
 5374TIP3    H116128   5.826   5.834   3.986  2.1596 -0.0971 -1.5441
 5374TIP3    H216129   5.734   5.790   3.874 -2.4772  0.4431  1.7672
 5375TIP3   OH216130   3.444   5.772   1.372 -0.1820  0.0388  0.0167
 5375TIP3    H116131   3.432   5.835   1.443 -0.6770 -0.5866  0.4913
 5375TIP3    H216132   3.539   5.768   1.359 -0.1612  1.2971 -0.4060
 5376TIP3   OH216133   6.051   5.391   0.081 -0.2012 -0.0736  0.4942
 5376TIP3    H116134   6.029   5.479   0.112  2.6635  1.7760 -2.0952
 5376TIP3    H216135   6.145   5.382   0.101 -0.3495 -2.4341  0.3617
 5377TIP3   OH216136   0.569   0.173   4.313 -0.8203 -0.0184  0.1570
 5377TIP3    H116137   0.664   0.182   4.320 -0.6298 -0.8919 -1.0788
 5377TIP3    H216138   0.544   0.239   4.249 -0.9383 -0.3433 -0.1320
 5378TIP3   OH216139   3.866   4.240   3.028  0.2351  0.0131  0.7359
 5378TIP3    H116140   3.948   4.195   3.048  1.0696  1.3554  0.4325
 5378TIP3    H216141   3.864   4.246   2.933 -1.3297 -1.9593  0.5731
 5379TIP3   OH216142   1.413   4.731   2.393  0.8248 -0.0774 -0.6021
 5379TIP3    H116143   1.419   4.637   2.376 -0.8622 -0.2838 -0.2412
 5379TIP3    H216144   1.503   4.762   2.390  1.5196 -1.8907  0.3539
 5380TIP3   OH216145   3.013   1.910   1.530 -0.4854  0.2174 -0.0191
 5380TIP3    H116146   2.989   1.931   1.620  0.8994 -0.4184  0.5318
 5380TIP3    H216147   3.031   1.816   1.532  1.2439  0.5019 -0.5377
 5381TIP3   OH216148   3.554   1.311   5.153  0.4561  0.1494 -0.0681
 5381TIP3    H116149   3.488   1.336   5.088  0.1292 -1.2062 -0.2786
 5381TIP3    H216150   3.580   1.223   5.128  1.3910  0.1649  0.8017
 5382TIP3   OH216151   1.446   5.023   3.869  0.4869 -0.3474 -0.0336
 5382TIP3    H116152   1.520   4.963   3.867  1.8648  1.2973 -0.3916
 5382TIP3    H216153   1.412   5.016   3.958  1.3872 -0.7615  0.2886
 5383TIP3   OH216154   6.165   3.568   0.669  0.3673  0.6434  0.2168
 5383TIP3    H116155   6.104   3.582   0.741  1.2232  0.8143  0.9285
 5383TIP3    H216156   6.109   3.553   0.593 -0.5867 -1.3515  1.2263
 5384TIP3   OH216157   2.936   3.605   0.203 -0.1811  0.3714  0.2651
 5384TIP3    H116158   2.947   3.683   0.150  1.3685 -0.5457 -0.8360
 5384TIP3    H216159   2.999   3.614   0.274  0.6247 -0.2588 -0.3569
 5385TIP3   OH216160   3.351   0.353   1.050  0.2199 -0.0797  0.7394
 5385TIP3    H116161   3.384   0.313   1.131  0.1051  0.8663  1.2695
 5385TIP3    H216162   3.369   0.446   1.061 -0.0690  0.0961 -0.2073
 5386TIP3   OH216163   4.044   5.029   0.164 -0.0933 -0.3546 -0.0205
 5386TIP3    H116164   4.018   4.943   0.198  0.7588  0.1804  2.1330
 5386TIP3    H216165   4.133   5.017   0.132 -0.8809 -0.8490 -2.2399
 5387TIP3   OH216166   0.749   3.096   0.753 -0.0813  0.0709 -0.5351
 5387TIP3    H116167   0.685   3.126   0.688 -0.1664  1.1397  0.0352
 5387TIP3    H216168   0.828   3.145   0.733  0.1528 -0.2460 -0.3826
 5388TIP3   OH216169   5.596   2.621   0.849 -0.1431 -0.4527  0.2903
 5388TIP3    H116170   5.511   2.636   0.808 -0.6854 -0.2281  1.4540
 5388TIP3    H216171   5.630   2.543   0.804 -0.1347  0.4958 -1.4229
 5389TIP3   OH216172   5.528   4.691   0.113  0.6350 -0.1962  0.2022
 5389TIP3    H116173   5.608   4.641   0.103  0.4107 -0.1691 -2.4303
 5389TIP3    H216174   5.462   4.627   0.140  0.6367 -1.1268 -1.8801
 5390TIP3   OH216175   5.588   1.346   4.958 -0.1456 -0.1656 -0.5713
 5390TIP3    H116176   5.560   1.432   4.927  0.3193  0.5224  0.8248
 5390TIP3    H216177   5.670   1.363   5.005 -1.6187 -0.7802  2.5089
 5391TIP3   OH216178   2.842   4.846   4.660  0.5972 -0.6284  0.7878
 5391TIP3    H116179   2.913   4.836   4.723  0.8016  0.1090  0.6799
 5391TIP3    H216180   2.860   4.779   4.594  0.8975 -0.7935  1.0339
 5392TIP3   OH216181   2.454   3.181   4.109 -0.1522 -0.5426  0.0676
 5392TIP3    H116182   2.545   3.213   4.106 -0.2363 -0.3251 -2.7543
 5392TIP3    H216183   2.462   3.087   4.095 -0.3631 -0.4712 -0.5539
 5393TIP3   OH216184   2.705   3.122   4.358 -0.6295  0.1120  0.1930
 5393TIP3    H116185   2.770   3.192   4.349 -0.6032  0.1782  0.8630
 5393TIP3    H216186   2.715   3.091   4.448 -1.0423 -0.3588  0.0816
 5394TIP3   OH216187   3.048   3.770   1.051 -0.5417 -0.1975 -0.3007
 5394TIP3    H116188   2.994   3.699   1.086  0.2727 -2.4203 -3.1916
 5394TIP3    H216189   3.136   3.733   1.048  0.2376  1.5844 -0.2932
 5395TIP3   OH216190   0.533   3.257   3.569  0.0148  0.2643  0.4372
 5395TIP3    H116191   0.564   3.284   3.483 -1.5426  0.1971 -0.1656
 5395TIP3    H216192   0.571   3.170   3.582 -1.0093 -0.4126 -0.8994
 5396TIP3   OH216193   1.479   4.352   4.043 -0.1795 -0.2369  0.3569
 5396TIP3    H116194   1.558   4.404   4.026 -0.9705  1.1912  0.8427
 5396TIP3    H216195   1.501   4.264   4.013  1.3860  0.2641 -0.0659
 5397TIP3   OH216196   4.643   2.550   3.974  0.6190 -0.1553  0.0996
 5397TIP3    H116197   4.709   2.483   3.992  0.7097 -0.3769 -0.9721
 5397TIP3    H216198   4.690   2.616   3.922  0.0164 -0.3207 -0.6815
 5398TIP3   OH216199   2.885   2.505   0.301 -0.6414  0.1316 -0.3848
 5398TIP3    H116200   2.967   2.529   0.258  1.1886 -0.4947  2.4720
 5398TIP3    H216201   2.889   2.410   0.312 -3.0010 -0.3091 -2.3752
 5399TIP3   OH216202   0.300   3.542   2.666 -0.4768 -0.1230  1.2063
 5399TIP3    H116203   0.322   3.475   2.731 -1.0626 -0.5564  0.9729
 5399TIP3    H216204   0.211   3.569   2.690 -1.9578 -2.4255 -1.1135
 5400TIP3   OH216205   4.758   3.445   0.839  0.0309 -0.4212  0.1047
 5400TIP3    H116206   4.777   3.539   0.844  0.8609 -0.6651  2.1139
 5400TIP3    H216207   4.726   3.422   0.926  3.8294 -2.7755  1.1116
 5401TIP3   OH216208   6.065   2.133   1.187  0.1195  0.1143  0.2097
 5401TIP3    H116209   6.020   2.114   1.269  0.8770 -0.8941  0.4126
 5401TIP3    H216210   6.132   2.197   1.211 -1.2656  1.7615 -0.1280
 5402TIP3   OH216211   0.141   2.462   2.275  0.0779 -0.0558 -0.2123
 5402TIP3    H116212   0.098   2.486   2.358 -0.5223 -2.0751  0.1110
 5402TIP3    H216213   0.233   2.448   2.299  0.1930  0.6898 -0.1828
 5403TIP3   OH216214   4.372   1.847   3.580 -0.2941  0.0804  0.2331
 5403TIP3    H116215   4.420   1.871   3.659 -0.4373  0.6963  0.1368
 5403TIP3    H216216   4.437   1.851   3.510 -0.1685 -0.4594  0.3104
 5404TIP3   OH216217   2.975   4.121   2.215  0.5480  0.3556  0.2837
 5404TIP3    H116218   3.048   4.179   2.194 -0.0610  0.5827 -1.3882
 5404TIP3    H216219   3.013   4.053   2.271  1.8961  0.8035 -0.0626
 5405TIP3   OH216220   3.950   5.693   0.556  0.1725 -0.5228 -0.5384
 5405TIP3    H116221   3.953   5.600   0.536  0.1838 -0.5025 -0.6286
 5405TIP3    H216222   4.042   5.720   0.560  0.2439 -0.8821  1.1956
 5406TIP3   OH216223   0.077   4.164   1.994  0.7960  0.2292 -0.1568
 5406TIP3    H116224   0.022   4.238   1.969 -0.0227 -0.2999  0.0371
 5406TIP3    H216225   0.030   4.122   2.066 -0.3060 -2.1928 -2.1106
 5407TIP3   OH216226   2.520   0.854  -0.004 -0.7470  0.0170  0.6547
 5407TIP3    H116227   2.452   0.788   0.007 -1.3242  0.4864 -0.0918
 5407TIP3    H216228   2.482   0.934   0.031  0.4261 -0.2903  2.7943
 5408TIP3   OH216229   4.144   4.477   1.188  0.5301  0.0466  0.3949
 5408TIP3    H116230   4.150   4.477   1.093 -2.3579  0.1665  0.1367
 5408TIP3    H216231   4.194   4.554   1.215  0.2199  0.8241 -1.1502
 5409TIP3   OH216232   5.324   4.830   4.714  0.2248 -0.0916 -0.2136
 5409TIP3    H116233   5.349   4.812   4.804 -1.0262  1.9746  0.6278
 5409TIP3    H216234   5.263   4.760   4.691  0.4086 -0.5233  0.5903
 5410TIP3   OH216235   4.860   4.661   0.362  0.3728 -0.5323 -0.0754
 5410TIP3    H116236   4.942   4.684   0.404  0.6343 -0.6626 -0.5129
 5410TIP3    H216237   4.794   4.670   0.432  0.2521  2.6432 -0.4859
 5411TIP3   OH216238   5.820   2.608   0.560  0.3853 -0.6846 -0.3039
 5411TIP3    H116239   5.912   2.583   0.565  0.4361 -0.4102  0.2176
 5411TIP3    H216240   5.777   2.555   0.627 -0.3102 -2.7820 -2.2826
 5412TIP3   OH216241   1.516   3.418   1.862 -0.5128 -0.0710 -0.2132
 5412TIP3    H116242   1.477   3.395   1.947  1.1650  1.1764  0.9779
 5412TIP3    H216243   1.590   3.359   1.854 -0.4368  0.0807 -0.6161
 5413TIP3   OH216244   4.620   5.720   3.807 -0.4769 -0.6808 -0.0613
 5413TIP3    H116245   4.565   5.687   3.879 -0.9963  0.0573 -0.1177
 5413TIP3    H216246   4.656   5.641   3.767 -1.4637 -1.1780  0.0041
 5414TIP3   OH216247   0.686   2.295   2.771 -0.7892  0.1991  0.5179
 5414TIP3    H116248   0.674   2.281   2.677  2.2486 -0.7673  0.1492
 5414TIP3    H216249   0.662   2.386   2.785  1.0261  1.1352 -1.7464
 5415TIP3   OH216250   2.659   4.870   3.783  0.2718 -0.3789  0.2685
 5415TIP3    H116251   2.681   4.777   3.789 -0.4140 -0.6802 -1.2759
 5415TIP3    H216252   2.678   4.893   3.691  0.7069  1.0816  0.6883
 5416TIP3   OH216253   5.100   1.852   1.016 -0.0118  0.1308 -0.0208
 5416TIP3    H116254   5.039   1.796   0.969  0.4419 -0.6144  0.2469
 5416TIP3    H216255   5.156   1.791   1.064 -1.0352  0.8504  2.2281
 5417TIP3   OH216256   3.888   2.432   2.317  0.5304 -0.0800  0.4719
 5417TIP3    H116257   3.794   2.424   2.330  0.5723 -1.1080  0.2303
 5417TIP3    H216258   3.924   2.446   2.404  0.1645  0.2104  0.5773
 5418TIP3   OH216259   5.104   4.991   0.626 -0.6125 -0.0180  0.4465
 5418TIP3    H116260   5.186   5.013   0.671 -0.4575  0.1862  0.0707
 5418TIP3    H216261   5.060   5.075   0.615  0.0610  0.1767 -1.1558
 5419TIP3   OH216262   6.194   0.163   2.526 -0.1682  0.4285 -0.1815
 5419TIP3    H116263   6.179   0.069   2.534 -1.3575  0.5081 -1.0730
 5419TIP3    H216264   6.106   0.201   2.527  0.2993  1.5395  0.2016
 5420TIP3   OH216265   1.238   4.283   1.428  0.3979  0.5987  0.2432
 5420TIP3    H116266   1.274   4.328   1.505  1.9615  1.0397 -0.7012
 5420TIP3    H216267   1.150   4.257   1.455  0.9469  0.5977  2.2472
 5421TIP3   OH216268   3.586   1.020   0.293 -0.0443  0.1330 -0.1601
 5421TIP3    H116269   3.522   1.088   0.273 -1.7044 -0.8722  1.3751
 5421TIP3    H216270   3.660   1.067   0.331 -0.1830  1.2538 -1.1947
 5422TIP3   OH216271   3.799   4.079   5.011 -0.1502 -0.1983  0.2301
 5422TIP3    H116272   3.746   4.006   4.979 -1.8458  0.1004  2.1225
 5422TIP3    H216273   3.771   4.091   5.102  1.6073  1.4596  0.6364
 5423TIP3   OH216274   0.918   5.789   4.530 -0.1420  0.2654  0.6510
 5423TIP3    H116275   0.993   5.791   4.590 -0.7249  0.3119  1.3942
 5423TIP3    H216276   0.936   5.716   4.472  0.2758  0.0070  1.0948
 5424TIP3   OH216277   3.904   1.269   4.059  0.3718  0.1404 -0.6075
 5424TIP3    H116278   3.930   1.300   3.972  1.5729 -0.7631 -0.5943
 5424TIP3    H216279   3.985   1.240   4.100  0.2046  2.5635  1.7148
 5425TIP3   OH216280   2.903   1.705   5.033  0.1439 -0.2542  0.1940
 5425TIP3    H116281   2.875   1.746   4.952  1.5544 -0.8185 -0.6143
 5425TIP3    H216282   2.892   1.773   5.100  2.1312  1.3931 -1.0407
 5426TIP3   OH216283   3.803   0.547   1.779  0.3000 -0.2935  0.6081
 5426TIP3    H116284   3.873   0.515   1.835 -0.7970 -1.7628  1.2318
 5426TIP3    H216285   3.776   0.470   1.728 -1.0719  0.1248  0.6446
 5427TIP3   OH216286   1.224   0.225   4.296 -0.0411  0.3640 -0.1516
 5427TIP3    H116287   1.163   0.210   4.224 -0.9871  0.8553  0.5248
 5427TIP3    H216288   1.210   0.151   4.355  0.1046  0.4140 -0.0539
 5428TIP3   OH216289   2.101   5.094   4.054 -0.1247  0.3739  0.2992
 5428TIP3    H116290   2.113   5.011   4.099 -1.2631  0.7829  1.4179
 5428TIP3    H216291   2.185   5.111   4.011  0.6421 -0.5674  1.3811
 5429TIP3   OH216292   3.157   5.766   4.548 -0.1993  0.2331 -0.1496
 5429TIP3    H116293   3.064   5.768   4.525 -0.1788 -0.7948 -0.3602
 5429TIP3    H216294   3.186   5.679   4.523 -0.0047 -0.7684  3.1094
 5430TIP3   OH216295   2.744   0.939   0.146  0.5537 -0.4545 -0.3271
 5430TIP3    H116296   2.821   0.882   0.148  0.8545 -0.0638 -0.5907
 5430TIP3    H216297   2.690   0.902   0.076  0.6871 -0.4999 -0.4087
 5431TIP3   OH216298   3.117   3.073   1.007 -0.5107 -0.1616  0.3847
 5431TIP3    H116299   3.099   3.010   0.937  0.6542 -2.7355  2.2550
 5431TIP3    H216300   3.059   3.046   1.078 -0.7534  1.6044  0.8888
 5432TIP3   OH216301   1.433   0.558   4.685 -0.8274  0.3448  0.3742
 5432TIP3    H116302   1.434   0.646   4.722 -2.4666 -0.2650  2.0013
 5432TIP3    H216303   1.371   0.564   4.612  1.3202  1.1968 -1.4913
 5433TIP3   OH216304   3.173   3.547   1.794 -0.7115 -0.3403 -0.0509
 5433TIP3    H116305   3.152   3.454   1.803 -3.0651  0.0428 -0.8497
 5433TIP3    H216306   3.215   3.555   1.709 -1.1037 -0.5996 -0.2704
 5434TIP3   OH216307   3.675   1.063   5.098 -0.2472 -0.2575 -0.4578
 5434TIP3    H116308   3.754   1.017   5.067 -1.2247 -0.4954 -2.7597
 5434TIP3    H216309   3.629   0.998   5.151 -0.2790 -1.0605 -1.4478
 5435TIP3   OH216310   4.925   3.490   0.332 -0.9119 -0.1357 -0.3038
 5435TIP3    H116311   4.844   3.492   0.383 -1.3203 -1.4822 -0.8448
 5435TIP3    H216312   4.990   3.453   0.391 -0.0085  3.1326  0.9473
 5436TIP3   OH216313   4.492   5.349   1.506  0.7155 -0.3300 -0.0974
 5436TIP3    H116314   4.435   5.421   1.533 -0.5503 -1.6397  0.8621
 5436TIP3    H216315   4.442   5.301   1.441  1.0775 -0.9981  0.1022
 5437TIP3   OH216316   3.444   2.514   3.141 -0.5397  0.1776 -0.8192
 5437TIP3    H116317   3.448   2.419   3.130 -0.3297 -0.0480  0.9400
 5437TIP3    H216318   3.524   2.537   3.187 -0.9313  1.1040 -0.5672
 5438TIP3   OH216319   1.457   5.218   3.008  0.0343  0.3290  0.2822
 5438TIP3    H116320   1.425   5.190   2.923 -0.5856  3.3901 -0.5959
 5438TIP3    H216321   1.407   5.165   3.071 -1.6594  0.0681 -1.2095
 5439TIP3   OH216322   4.204   2.300   5.097  0.8642  0.0298  0.1071
 5439TIP3    H116323   4.199   2.358   5.021 -0.9822  1.8827  1.5219
 5439TIP3    H216324   4.142   2.231   5.079  2.5945 -1.2546 -1.3018
 5440TIP3   OH216325   5.378   4.641   3.261 -0.2035 -0.3467  0.3625
 5440TIP3    H116326   5.351   4.554   3.233 -1.8150  0.2177  0.0741
 5440TIP3    H216327   5.423   4.627   3.344 -0.4141 -1.4525  0.2950
 5441TIP3   OH216328   0.154   3.802   0.065  0.0969 -0.2339 -0.2411
 5441TIP3    H116329   0.202   3.825   0.144  1.7103 -2.3730 -0.5167
 5441TIP3    H216330   0.219   3.763   0.007 -1.5284 -1.1303 -1.5715
 5442TIP3   OH216331   5.937   5.520   0.777 -0.6841  0.1971 -0.0445
 5442TIP3    H116332   6.008   5.515   0.841 -1.1062 -2.5454  0.3399
 5442TIP3    H216333   5.969   5.583   0.712  2.2508 -1.0565  0.0005
 5443TIP3   OH216334   4.836   2.229   4.096  0.1794 -0.1153  0.1426
 5443TIP3    H116335   4.797   2.241   4.183  2.4596 -0.1443  1.2395
 5443TIP3    H216336   4.841   2.318   4.060  0.3904  0.0665  0.6036
 5444TIP3   OH216337   0.229   3.239   0.428 -0.3072 -0.0941  0.2510
 5444TIP3    H116338   0.299   3.293   0.392 -2.0329  0.8805 -1.8162
 5444TIP3    H216339   0.153   3.296   0.430 -1.2637 -1.3414  1.7552
 5445TIP3   OH216340   6.018   3.624   0.455  0.2683  0.0381 -0.2656
 5445TIP3    H116341   5.993   3.691   0.391 -0.8140  0.8677  0.9903
 5445TIP3    H216342   5.958   3.551   0.438 -0.1540  0.3375 -0.0795
 5446TIP3   OH216343   1.703   5.238   0.032 -0.0665 -0.2834 -0.1710
 5446TIP3    H116344   1.636   5.206   0.092  0.9114 -1.2022  0.4649
 5446TIP3    H216345   1.772   5.273   0.089 -0.5757  1.9852 -0.8124
 5447TIP3   OH216346   3.631   2.977   2.719  0.4296 -0.2197 -0.0923
 5447TIP3    H116347   3.613   2.944   2.631  0.9288  1.8478 -1.0233
 5447TIP3    H216348   3.552   3.027   2.742  0.7554  0.1850  0.1501
 5448TIP3   OH216349   5.369   5.783   3.937  0.0268  0.0235 -0.0305
 5448TIP3    H116350   5.324   5.753   4.016 -0.6187  1.1353  0.0339
 5448TIP3    H216351   5.383   5.703   3.886 -2.9184 -0.2863 -0.5281
 5449TIP3   OH216352   5.863   1.118   3.565 -0.1358  0.2180  0.1555
 5449TIP3    H116353   5.875   1.123   3.470  0.0068  1.7768  0.2280
 5449TIP3    H216354   5.802   1.045   3.578  0.9525 -0.9563 -0.9998
 5450TIP3   OH216355   4.528   3.473   0.186  0.1407  0.0334 -0.1834
 5450TIP3    H116356   4.549   3.480   0.279 -0.8374 -2.4271  0.2953
 5450TIP3    H216357   4.612   3.457   0.143  0.3339 -1.1405  0.5964
 5451TIP3   OH216358   3.924   3.703   0.978  0.1931 -0.2274  0.7749
 5451TIP3    H116359   3.961   3.671   0.895  1.3655  1.1732  0.7251
 5451TIP3    H216360   3.905   3.624   1.028  1.7956 -1.0481  0.1544
 5452TIP3   OH216361   4.702   4.479   1.197  0.1337 -0.6210 -0.3011
 5452TIP3    H116362   4.656   4.456   1.277  0.5791 -0.0172  0.1357
 5452TIP3    H216363   4.734   4.395   1.163  3.0613 -0.6264  2.0666
 5453TIP3   OH216364   3.718   5.012   4.320 -0.6384  0.1023  0.5201
 5453TIP3    H116365   3.633   4.985   4.357  0.2409  0.0670  2.6403
 5453TIP3    H216366   3.772   4.933   4.323 -0.4038  0.2048 -0.5338
 5454TIP3   OH216367   5.153   4.442   5.168 -0.1027  0.0389 -0.4461
 5454TIP3    H116368   5.102   4.361   5.165  1.5347 -1.0431 -0.2389
 5454TIP3    H216369   5.118   4.495   5.097  0.8173 -2.1602 -2.6940
 5455TIP3   OH216370   2.177   0.292   3.869 -0.0300 -0.3407  0.3147
 5455TIP3    H116371   2.088   0.262   3.889 -0.2671  0.2789  0.2011
 5455TIP3    H216372   2.192   0.365   3.929  0.6379 -0.8361  0.7604
 5456TIP3   OH216373   0.209   0.653   0.353  0.2802  0.1438  0.1512
 5456TIP3    H116374   0.217   0.723   0.418 -1.5084  1.1406 -0.6400
 5456TIP3    H216375   0.293   0.655   0.306  1.4172 -0.2664  2.0325
 5457TIP3   OH216376   2.392   0.745   0.606 -0.5958 -0.0386  0.1410
 5457TIP3    H116377   2.476   0.731   0.650  0.1095  2.1490 -0.3783
 5457TIP3    H216378   2.332   0.683   0.648  0.9181 -0.6105  1.5622
 5458TIP3   OH216379   4.544   4.108   0.447 -0.0835  0.0483  0.3618
 5458TIP3    H116380   4.463   4.112   0.395  0.1317  0.2373  0.0346
 5458TIP3    H216381   4.597   4.042   0.404  0.3320  0.6119 -0.0106
 5459TIP3   OH216382   1.001   1.050   3.516 -0.0860 -0.4204 -0.1111
 5459TIP3    H116383   1.019   0.970   3.467  1.3887 -0.2372  0.0748
 5459TIP3    H216384   1.058   1.044   3.593 -2.3051 -0.6777  1.6031
 5460TIP3   OH216385   0.744   0.790   1.055 -0.7442 -0.2198 -0.4452
 5460TIP3    H116386   0.735   0.779   0.960  0.7196 -0.1237 -0.6233
 5460TIP3    H216387   0.823   0.843   1.065 -0.3578 -1.0135  0.8590
 5461TIP3   OH216388   5.758   5.375   0.109  0.2259 -0.2074  0.0195
 5461TIP3    H116389   5.692   5.306   0.114 -0.5191  0.4725 -0.2521
 5461TIP3    H216390   5.836   5.331   0.074 -0.3017 -0.8685 -0.3488
 5462TIP3   OH216391   3.905   0.929   3.696 -0.1365  0.4853  0.4392
 5462TIP3    H116392   3.829   0.987   3.692  0.3563  1.0544 -1.4237
 5462TIP3    H216393   3.979   0.985   3.672  0.6570 -0.4373  0.6915
 5463TIP3   OH216394   3.464   3.537   2.354 -0.2407 -0.1266 -0.2469
 5463TIP3    H116395   3.531   3.492   2.302  0.3969 -0.4763  0.8475
 5463TIP3    H216396   3.476   3.629   2.332 -2.2205 -0.4437 -3.2827
 5464TIP3   OH216397   3.944   5.261   0.303  0.4548  0.0247 -0.0930
 5464TIP3    H116398   3.987   5.180   0.273  0.1567  0.2622 -1.2031
 5464TIP3    H216399   3.851   5.246   0.287  0.3612  0.4385  0.0593
 5465TIP3   OH216400   1.990   3.767   1.379 -0.5890 -1.1238 -0.3851
 5465TIP3    H116401   2.047   3.739   1.308 -0.1953 -1.8712  0.2102
 5465TIP3    H216402   2.044   3.759   1.458 -0.8891  0.0730 -0.0351
 5466TIP3   OH216403   5.731   5.036   2.248  0.5043 -0.0021  0.2860
 5466TIP3    H116404   5.706   5.107   2.307 -1.1547 -0.1025 -0.2509
 5466TIP3    H216405   5.720   5.072   2.160  0.9803 -0.5067  0.0079
 5467TIP3   OH216406   5.622   1.086   0.702  0.4362 -0.5186 -0.2470
 5467TIP3    H116407   5.548   1.143   0.723 -0.6887 -2.2729  0.8196
 5467TIP3    H216408   5.615   1.071   0.607  0.6750  0.9483 -0.5175
 5468TIP3   OH216409   3.229   0.876   1.358 -0.3143  0.1430 -0.0347
 5468TIP3    H116410   3.300   0.815   1.379  0.0372  0.2005 -1.0114
 5468TIP3    H216411   3.233   0.942   1.428  0.6345  0.1823 -0.1079
 5469TIP3   OH216412   1.543   3.956   3.484 -0.0809  0.5522  0.1298
 5469TIP3    H116413   1.529   4.037   3.534  1.4289  0.6629  0.4150
 5469TIP3    H216414   1.536   3.983   3.392 -0.4919  0.8175  0.2358
 5470TIP3   OH216415   2.382   4.312   3.157  0.2059 -0.0043 -0.2174
 5470TIP3    H116416   2.293   4.329   3.127  0.3448 -1.4649 -1.6566
 5470TIP3    H216417   2.396   4.373   3.230 -2.0633  0.0415  0.2518
 5471TIP3   OH216418   0.983   3.663   3.618 -0.7441 -0.6040  0.2873
 5471TIP3    H116419   0.956   3.658   3.710 -1.2649  1.0906  0.2537
 5471TIP3    H216420   0.954   3.749   3.589  0.6377 -0.5565 -1.0783
 5472TIP3   OH216421   2.110   2.298   1.098 -0.1576  0.7651  0.2383
 5472TIP3    H116422   2.193   2.311   1.145  0.8515 -0.9123 -0.9641
 5472TIP3    H216423   2.100   2.377   1.044  0.9919  0.7241 -0.0586
 5473TIP3   OH216424   2.725   3.245   0.998 -0.1022 -0.1532 -0.5176
 5473TIP3    H116425   2.773   3.248   1.081  0.9983  0.6434 -1.1597
 5473TIP3    H216426   2.648   3.301   1.013  0.6352  0.8436 -0.3440
 5474TIP3   OH216427   1.312   5.067   3.172 -0.7021 -0.3203 -0.2187
 5474TIP3    H116428   1.317   5.011   3.250 -3.1935 -1.1681 -0.5737
 5474TIP3    H216429   1.232   5.119   3.185 -0.1546  0.8639 -1.3900
 5475TIP3   OH216430   6.364   0.853   3.299 -0.6270  0.3172  0.1440
 5475TIP3    H116431   6.288   0.903   3.270 -0.2458  0.4737 -0.6233
 5475TIP3    H216432   6.417   0.915   3.349 -1.8145 -0.2301  2.1955
 5476TIP3   OH216433   4.640   5.591   2.286  0.1115 -0.0726 -0.0015
 5476TIP3    H116434   4.571   5.529   2.261 -0.4511  1.5167 -2.7174
 5476TIP3    H216435   4.716   5.566   2.234  0.4900  0.3782  0.3212
 5477TIP3   OH216436   2.434   1.180   2.248 -0.8457 -0.7649 -0.1818
 5477TIP3    H116437   2.467   1.131   2.173 -1.3628  1.7527 -2.1972
 5477TIP3    H216438   2.509   1.190   2.306  0.2292 -0.7772 -1.5249
 5478TIP3   OH216439   0.839   4.443   2.971 -0.0939 -0.1506  0.3507
 5478TIP3    H116440   0.862   4.435   2.879 -0.5308 -0.1634  0.2422
 5478TIP3    H216441   0.800   4.358   2.994 -0.2252 -0.0564  0.4787
 5479TIP3   OH216442   2.978   3.580   5.190  0.0633  0.0434  0.3519
 5479TIP3    H116443   3.025   3.547   5.266  1.2576  0.1299 -0.3309
 5479TIP3    H216444   3.035   3.561   5.115  0.0690  2.1580 -0.2496
 5480TIP3   OH216445   4.695   0.465   3.777  0.1132  0.3331 -0.1062
 5480TIP3    H116446   4.739   0.455   3.692  0.0831  0.1934 -0.1053
 5480TIP3    H216447   4.766   0.489   3.837  0.0722  0.8079 -0.2464
 5481TIP3   OH216448   3.549   1.015   2.468  0.5432  0.0949  0.3384
 5481TIP3    H116449   3.606   1.077   2.424  0.4838  0.1504  0.3398
 5481TIP3    H216450   3.473   1.066   2.495  0.2002 -0.1071 -0.2173
 5482TIP3   OH216451   1.359   2.634   0.231  0.2884 -0.1218 -0.4055
 5482TIP3    H116452   1.408   2.621   0.150 -1.7614 -0.9020 -1.5956
 5482TIP3    H216453   1.420   2.611   0.300  2.0040  0.2700 -1.7255
 5483TIP3   OH216454   5.908   4.315   2.814  0.6895 -0.1449 -0.1229
 5483TIP3    H116455   5.917   4.347   2.904  3.1475 -1.2912  0.1258
 5483TIP3    H216456   5.963   4.374   2.762  0.6975 -0.5397 -0.5696
 5484TIP3   OH216457   4.891   0.199   0.755  0.2365  0.8778 -0.2352
 5484TIP3    H116458   4.985   0.202   0.772  0.1105 -0.1247  0.6743
 5484TIP3    H216459   4.853   0.263   0.816  0.2239  0.5415  0.1068
 5485TIP3   OH216460   5.796   0.377   1.525 -0.5192 -0.9532  0.1284
 5485TIP3    H116461   5.881   0.356   1.564 -0.7943 -2.5093 -0.0622
 5485TIP3    H216462   5.754   0.436   1.588  1.2962  1.1303 -0.4911
 5486TIP3   OH216463   1.368   5.924   2.180 -0.4739  0.0587  0.4377
 5486TIP3    H116464   1.277   5.922   2.151  0.3105  0.6721 -2.3877
 5486TIP3    H216465   1.398   5.833   2.174 -0.9455 -0.1822  1.6098
 5487TIP3   OH216466   2.521   5.142   5.093 -0.7766 -0.0071 -0.2146
 5487TIP3    H116467   2.562   5.226   5.114 -1.1468  0.2360 -0.4681
 5487TIP3    H216468   2.472   5.119   5.172 -1.6156  0.5783 -0.5529
 5488TIP3   OH216469   2.261   3.430   2.432  0.7619  0.3372 -0.4998
 5488TIP3    H116470   2.347   3.432   2.390  0.0879 -0.4015 -1.9864
 5488TIP3    H216471   2.278   3.391   2.518  1.7482 -0.9528 -1.2344
 5489TIP3   OH216472   6.149   4.609   4.032  0.1270 -0.2026 -0.4074
 5489TIP3    H116473   6.179   4.621   3.942 -2.7451 -2.1256 -1.7738
 5489TIP3    H216474   6.054   4.600   4.025 -0.1824 -0.7037  2.8011
 5490TIP3   OH216475   4.108   4.776   3.197 -0.4382  0.6162 -0.2867
 5490TIP3    H116476   4.134   4.715   3.266  0.7533  3.0154  1.5396
 5490TIP3    H216477   4.148   4.741   3.117  3.2505  0.7767  1.2995
 5491TIP3   OH216478   3.220   1.278   0.378  0.4956  0.7633 -0.3022
 5491TIP3    H116479   3.251   1.223   0.450  2.5228  0.9956 -0.9402
 5491TIP3    H216480   3.167   1.219   0.324 -0.0954  0.3016  0.7607
 5492TIP3   OH216481   2.352   5.797   4.806  0.1868  0.2551 -0.3927
 5492TIP3    H116482   2.380   5.886   4.827  1.7367  0.2186 -2.0432
 5492TIP3    H216483   2.307   5.805   4.722 -2.3367 -0.1493  0.8371
 5493TIP3   OH216484   4.473   3.699   1.989  0.0965  0.2741 -0.4766
 5493TIP3    H116485   4.387   3.716   2.028  0.0283 -0.1164 -0.4502
 5493TIP3    H216486   4.456   3.692   1.895  0.2658  1.2429 -0.5892
 5494TIP3   OH216487   5.729   1.492   3.829  0.1976 -0.3309  0.0671
 5494TIP3    H116488   5.757   1.452   3.911  2.3668 -2.1532 -1.4106
 5494TIP3    H216489   5.731   1.420   3.765  0.1746  1.3099 -1.9065
 5495TIP3   OH216490   1.016   3.056   5.025  0.0650  0.6516 -0.9631
 5495TIP3    H116491   0.934   3.088   4.986 -1.1132 -0.1674  0.7205
 5495TIP3    H216492   0.997   2.965   5.050  0.9762  0.8994  0.7950
 5496TIP3   OH216493   2.033   3.201   0.549  0.2054 -0.2152 -0.7308
 5496TIP3    H116494   2.004   3.275   0.602  0.0268  0.9839 -2.4262
 5496TIP3    H216495   2.128   3.211   0.544  0.4078 -1.2178  0.5920
 5497TIP3   OH216496   3.967   0.525   5.137  0.0010  0.0753 -0.3871
 5497TIP3    H116497   3.905   0.586   5.177 -0.6263 -0.7215 -0.1197
 5497TIP3    H216498   4.047   0.534   5.189 -0.2276  0.3413 -0.0792
 5498TIP3   OH216499   0.798   1.996   2.088  0.3196 -0.7295 -0.2724
 5498TIP3    H116500   0.752   2.080   2.088  0.3191 -0.6875 -2.2767
 5498TIP3    H216501   0.884   2.015   2.126 -0.4795 -0.3503  1.4543
 5499TIP3   OH216502   2.989   1.345   4.599  0.3120  0.3775 -0.0669
 5499TIP3    H116503   2.973   1.378   4.687 -0.7907  0.8251 -0.4228
 5499TIP3    H216504   2.905   1.353   4.554  1.1758  1.4790 -1.5850
 5500TIP3   OH216505   3.441   4.188   4.925 -0.5801  0.2489  0.5639
 5500TIP3    H116506   3.417   4.110   4.976 -0.1705 -1.0007 -1.0459
 5500TIP3    H216507   3.385   4.258   4.959  0.3977 -0.2328  3.3995
 5501TIP3   OH216508   3.070   0.642   0.586  0.0674 -0.1151 -0.1867
 5501TIP3    H116509   3.077   0.633   0.681  0.5081  2.5261  0.0939
 5501TIP3    H216510   3.160   0.628   0.555  0.2599  0.6885 -0.0166
 5502TIP3   OH216511   1.450   5.055   0.935  0.7008 -0.0611  0.0439
 5502TIP3    H116512   1.393   5.122   0.974 -0.9406 -0.8999 -0.7939
 5502TIP3    H216513   1.428   5.057   0.842  0.0605 -2.2202  0.0954
 5503TIP3   OH216514   5.274   1.251   1.442  0.2931  0.0045 -0.1197
 5503TIP3    H116515   5.293   1.262   1.535  1.5787 -0.3070 -0.3278
 5503TIP3    H216516   5.190   1.206   1.440 -0.6258  1.5675  0.8533
 5504TIP3   OH216517   6.313   0.335   1.696 -0.0526  0.1445 -0.1072
 5504TIP3    H116518   6.332   0.392   1.622 -2.4978 -1.0632 -1.7960
 5504TIP3    H216519   6.306   0.394   1.771 -0.6954  1.8454 -1.4519
 5505TIP3   OH216520   4.373   4.761   3.864 -0.3167  0.5008 -0.0803
 5505TIP3    H116521   4.326   4.817   3.925  0.2787  1.1320 -0.1793
 5505TIP3    H216522   4.371   4.809   3.781 -0.5592 -0.0422 -0.3904
 5506TIP3   OH216523   0.115   3.749   4.377 -0.5829  0.0256  0.5781
 5506TIP3    H116524   0.094   3.744   4.284 -0.6073  1.0762  0.5154
 5506TIP3    H216525   0.146   3.661   4.399  1.7963  0.3754 -0.9949
 5507TIP3   OH216526   6.274   5.795   2.112  0.1955 -0.1883  0.9315
 5507TIP3    H116527   6.339   5.820   2.178  0.0913  0.2272  0.8816
 5507TIP3    H216528   6.311   5.717   2.070  1.8904  1.4419 -0.8282
 5508TIP3   OH216529   0.360   4.855   3.319 -0.6196  0.3305  0.2782
 5508TIP3    H116530   0.409   4.869   3.400 -0.1363  1.3215 -0.1720
 5508TIP3    H216531   0.334   4.763   3.323  2.7091 -0.7822 -0.1993
 5509TIP3   OH216532   4.455   2.499   3.776  0.0124  0.1109  0.5340
 5509TIP3    H116533   4.536   2.527   3.733  0.0435 -0.1944  0.3887
 5509TIP3    H216534   4.469   2.519   3.869  0.7864 -1.1468  0.7056
 5510TIP3   OH216535   5.396   5.492   3.887  0.0568 -0.3205  0.1166
 5510TIP3    H116536   5.462   5.516   3.952  1.2170 -1.0424 -0.7731
 5510TIP3    H216537   5.403   5.397   3.879 -0.5316 -0.3124 -0.6002
 5511TIP3   OH216538   1.893   5.258   3.992  0.2400 -0.1040  0.4813
 5511TIP3    H116539   1.929   5.344   4.014  1.9443 -0.4046 -0.9341
 5511TIP3    H216540   1.938   5.198   4.051  0.4911 -0.2347  0.1597
 5512TIP3   OH216541   4.917   4.338   1.411 -0.4147 -0.3273  0.0185
 5512TIP3    H116542   4.906   4.398   1.484 -0.8893 -1.6375  1.0753
 5512TIP3    H216543   4.832   4.335   1.367 -0.1071  0.5224 -0.6663
 5513TIP3   OH216544   0.809   4.146   1.734 -0.1845 -0.2692  0.1432
 5513TIP3    H116545   0.866   4.218   1.710 -2.2288  1.7365  0.9462
 5513TIP3    H216546   0.742   4.185   1.790 -1.7230 -2.6771  0.1625
 5514TIP3   OH216547   0.554   1.776   1.865 -0.5608 -0.0866 -0.0358
 5514TIP3    H116548   0.512   1.706   1.915 -1.0735 -0.5953 -1.1243
 5514TIP3    H216549   0.556   1.742   1.775 -0.2361  1.0436 -0.4685
 5515TIP3   OH216550   0.920   2.833   0.379  0.1614  0.3980 -0.5054
 5515TIP3    H116551   0.858   2.864   0.312  2.1529  3.6202 -1.1098
 5515TIP3    H216552   0.983   2.780   0.330  0.9513  1.7874 -1.0844
 5516TIP3   OH216553   4.354   4.028   4.372  0.1146  0.0094  0.1733
 5516TIP3    H116554   4.281   3.990   4.324 -1.5295  0.3283  2.3148
 5516TIP3    H216555   4.328   4.119   4.389  1.8148  0.6917 -0.5533
 5517TIP3   OH216556   3.876   4.053   1.275  0.2214 -0.6802 -0.2622
 5517TIP3    H116557   3.903   4.062   1.184  0.6062  1.7793  0.0171
 5517TIP3    H216558   3.948   4.089   1.326 -0.4601 -0.9518  0.9451
 5518TIP3   OH216559   4.987   0.632   3.577  0.5520 -0.5516  0.5515
 5518TIP3    H116560   4.945   0.549   3.556  1.3480 -0.5945 -1.0508
 5518TIP3    H216561   4.919   0.684   3.619 -0.0690 -1.8566  1.2131
 5519TIP3   OH216562   3.190   0.601   3.748  0.3128  0.2553  0.0297
 5519TIP3    H116563   3.117   0.561   3.796  0.4338  0.1090  0.0937
 5519TIP3    H216564   3.148   0.654   3.681  0.1244  1.3964  1.0308
 5520TIP3   OH216565   5.248   3.852   3.775  0.1986  0.2832 -0.3446
 5520TIP3    H116566   5.206   3.931   3.810  0.0943 -0.3556  1.0479
 5520TIP3    H216567   5.342   3.866   3.792  0.0969 -0.2747  0.7711
 5521TIP3   OH216568   4.549   1.722   3.288  0.2628  0.2574  0.1271
 5521TIP3    H116569   4.551   1.726   3.193 -1.2947  0.8569  0.0962
 5521TIP3    H216570   4.516   1.807   3.316 -1.1584 -0.5574  1.0883
 5522TIP3   OH216571   4.308   1.372   1.383 -0.0332 -0.0180 -1.1913
 5522TIP3    H116572   4.230   1.343   1.336 -0.7724  0.7096 -0.4298
 5522TIP3    H216573   4.326   1.301   1.445  1.2236 -1.2097 -2.8097
 5523TIP3   OH216574   6.321   1.268   1.905  0.6318  0.2387 -0.1931
 5523TIP3    H116575   6.391   1.225   1.854  0.1068  0.3152 -0.9969
 5523TIP3    H216576   6.334   1.236   1.994  0.1400 -1.7914 -0.7852
 5524TIP3   OH216577   4.367   1.188   4.799  0.4788 -0.0760  0.2054
 5524TIP3    H116578   4.438   1.250   4.782 -0.5508  0.8262 -0.9916
 5524TIP3    H216579   4.309   1.197   4.724  0.4223 -2.7525 -0.1872
 5525TIP3   OH216580   2.603   2.771   3.781 -0.0572 -0.1764  0.8452
 5525TIP3    H116581   2.631   2.783   3.690  0.5743 -1.5136  0.8509
 5525TIP3    H216582   2.634   2.684   3.805  0.3354  0.3996  2.5553
 5526TIP3   OH216583   3.365   2.745   0.518 -0.2802  0.1689 -0.5150
 5526TIP3    H116584   3.306   2.820   0.527  0.0626  0.4084 -0.2147
 5526TIP3    H216585   3.309   2.673   0.490 -0.5848  0.5820 -0.9777
 5527TIP3   OH216586   4.241   3.558   2.475  0.1108 -0.0697  0.7329
 5527TIP3    H116587   4.183   3.484   2.457 -1.7007  1.4551  0.0021
 5527TIP3    H216588   4.190   3.615   2.532  0.9334  1.2733  0.1711
 5528TIP3   OH216589   2.056   5.011   5.128  0.6702  0.2264  0.2984
 5528TIP3    H116590   2.040   5.078   5.062  1.7365 -0.5973 -0.8546
 5528TIP3    H216591   2.145   4.981   5.110 -0.2309 -2.4391 -0.1236
 5529TIP3   OH216592   5.095   5.807   4.813  0.3109  0.3235  0.1297
 5529TIP3    H116593   5.039   5.872   4.855 -0.8688 -0.5615 -0.0251
 5529TIP3    H216594   5.063   5.804   4.722 -0.3088 -1.1546  0.3807
 5530TIP3   OH216595   4.975   3.770   1.553 -0.2066  0.5472  0.2474
 5530TIP3    H116596   4.933   3.842   1.601 -1.3768  0.0747 -0.0236
 5530TIP3    H216597   4.978   3.800   1.462 -1.1288  0.0776  0.0545
 5531TIP3   OH216598   0.832   0.523   0.353  0.3776  0.2511  0.5769
 5531TIP3    H116599   0.851   0.434   0.323 -3.9636 -1.2323  1.5844
 5531TIP3    H216600   0.879   0.530   0.436  1.4919 -0.6879  0.0633
 5532TIP3   OH216601   3.446   4.551   3.061  0.5635  0.3067  0.0965
 5532TIP3    H116602   3.525   4.497   3.069  1.1095  1.0314 -0.2649
 5532TIP3    H216603   3.466   4.630   3.113 -1.5553 -1.2434  3.6654
 5533TIP3   OH216604   0.431   5.258   1.611  0.0781  0.1175 -0.3270
 5533TIP3    H116605   0.463   5.308   1.536 -0.9772 -0.0583 -0.9033
 5533TIP3    H216606   0.352   5.304   1.639 -0.4902 -0.7839 -0.4010
 5534TIP3   OH216607   0.183   2.269   1.520 -0.2140  0.6294  1.1085
 5534TIP3    H116608   0.203   2.347   1.468  0.5421 -0.0826  0.2887
 5534TIP3    H216609   0.161   2.202   1.455  1.1582 -0.3942  1.6466
 5535TIP3   OH216610   3.752   4.390   1.152 -0.5263 -0.1722 -0.2965
 5535TIP3    H116611   3.803   4.413   1.229 -1.3385  2.0666 -0.3425
 5535TIP3    H216612   3.816   4.358   1.088  0.6236  1.2292  0.1249
 5536TIP3   OH216613  -0.005   4.949   4.122 -0.6619  0.3214  0.1842
 5536TIP3    H116614   0.030   4.870   4.082  0.1452  1.4236 -1.4121
 5536TIP3    H216615   0.064   4.976   4.184 -1.1332 -0.4282  1.0618
 5537TIP3   OH216616   0.128   5.025   5.178  0.5940  0.5827  0.2041
 5537TIP3    H116617   0.138   4.952   5.239  0.7942  0.4983  0.0718
 5537TIP3    H216618   0.204   5.019   5.121 -0.4439 -0.3650 -1.1376
 5538TIP3   OH216619   3.131   3.039   1.670  0.1737  0.1126 -0.2374
 5538TIP3    H116620   3.037   3.027   1.681  0.0159  0.7666 -0.8231
 5538TIP3    H216621   3.163   2.952   1.646 -0.0715 -0.4109  1.1890
 5539TIP3   OH216622   0.780   0.717   3.959  0.4048 -0.3634 -0.2535
 5539TIP3    H116623   0.696   0.762   3.971 -0.2112 -1.2408 -1.1914
 5539TIP3    H216624   0.828   0.771   3.896  1.2487  1.0187  1.4559
 5540TIP3   OH216625   2.473   0.983   0.477  0.4471 -0.1793  0.2776
 5540TIP3    H116626   2.426   0.914   0.524 -0.8477 -0.0811 -0.8365
 5540TIP3    H216627   2.562   0.978   0.512 -0.2775 -0.5658  2.2375
 5541TIP3   OH216628   3.058   2.408   1.706 -0.1899  0.6612  0.0590
 5541TIP3    H116629   3.062   2.358   1.787 -0.6397  1.9516  0.8998
 5541TIP3    H216630   3.145   2.397   1.666  0.8185  1.8167  1.8268
 5542TIP3   OH216631   5.168   5.073   0.012 -0.9810 -0.3480  0.5759
 5542TIP3    H116632   5.252   5.029   0.024 -0.5445  0.7477  1.7297
 5542TIP3    H216633   5.141   5.099   0.100 -1.7277  0.7681  0.0418
 5543TIP3   OH216634   3.270   4.241   3.037 -0.2814 -0.2997  0.6011
 5543TIP3    H116635   3.185   4.199   3.028 -0.4647  0.5484 -2.3167
 5543TIP3    H216636   3.333   4.169   3.031 -0.6965 -0.9098  2.6356
 5544TIP3   OH216637   3.344   2.200   4.031 -0.1191 -0.1621 -0.0022
 5544TIP3    H116638   3.357   2.273   3.970  0.8399 -1.1356 -0.9938
 5544TIP3    H216639   3.257   2.168   4.012  0.2180 -0.5390 -0.9706
 5545TIP3   OH216640   6.298   3.032   0.675  0.0684 -0.0527  0.2571
 5545TIP3    H116641   6.267   3.066   0.591 -0.1802 -0.7503  0.0591
 5545TIP3    H216642   6.385   3.070   0.686 -1.0103  2.3519  1.0580
 5546TIP3   OH216643   0.438   5.651   3.306 -0.4036 -0.0946 -0.0533
 5546TIP3    H116644   0.383   5.579   3.276 -1.1852  0.3693  0.2441
 5546TIP3    H216645   0.380   5.727   3.309  0.4249  0.5822 -0.4528
 5547TIP3   OH216646   2.567   1.902   1.691 -0.4085  0.3644 -0.3774
 5547TIP3    H116647   2.621   1.881   1.767 -0.0921  0.5429 -0.5487
 5547TIP3    H216648   2.575   1.997   1.682 -1.8697  0.5830  0.4271
 5548TIP3   OH216649   5.306   5.095   3.201  0.2300 -0.4266  0.4014
 5548TIP3    H116650   5.303   5.019   3.142  0.1530 -1.3182  1.5176
 5548TIP3    H216651   5.288   5.058   3.287  1.3211  0.6979  1.1364
 5549TIP3   OH216652   5.133   1.394   5.083  0.4996  0.5412  0.1391
 5549TIP3    H116653   5.153   1.345   5.163 -0.5395 -0.9220 -0.4422
 5549TIP3    H216654   5.161   1.336   5.012 -0.6677  0.8157 -0.5702
 5550TIP3   OH216655   2.564   2.086   1.365  0.2959 -0.0269  0.1114
 5550TIP3    H116656   2.656   2.109   1.354  0.4992 -0.9128 -0.1074
 5550TIP3    H216657   2.545   2.106   1.457  0.9852 -0.7507  0.4228
 5551TIP3   OH216658   4.718   2.313   0.263  0.5196 -0.2149  0.0385
 5551TIP3    H116659   4.671   2.239   0.302  1.2768 -0.5965  0.2577
 5551TIP3    H216660   4.667   2.336   0.186  1.6082 -2.6255 -1.5129
 5552TIP3   OH216661   3.627   2.211   4.896  0.4645 -0.3334 -0.0679
 5552TIP3    H116662   3.632   2.140   4.960  0.8485  0.7745  1.1939
 5552TIP3    H216663   3.693   2.274   4.925  0.9445  0.0243 -1.8271
 5553TIP3   OH216664   4.021   4.577   4.949  0.3466 -0.3335  0.0998
 5553TIP3    H116665   4.008   4.623   5.032  1.4581 -1.5537  0.9973
 5553TIP3    H216666   3.986   4.490   4.964 -0.7102 -0.1614 -1.2068
 5554TIP3   OH216667   0.642   4.645   2.962  0.1003 -0.0606 -0.3565
 5554TIP3    H116668   0.695   4.565   2.974 -0.3024 -0.2756  0.0220
 5554TIP3    H216669   0.707   4.713   2.944  0.3917 -0.6431 -1.6550
 5555TIP3   OH216670   5.796   2.260   1.161  0.1433 -0.0645  0.3200
 5555TIP3    H116671   5.867   2.324   1.163 -1.7286  2.1430  2.1578
 5555TIP3    H216672   5.734   2.290   1.227 -3.6445 -0.5306 -2.6476
 5556TIP3   OH216673   5.982   0.291   3.539 -0.5405  0.1133 -0.5073
 5556TIP3    H116674   5.985   0.348   3.616  1.1873 -0.4645 -0.1064
 5556TIP3    H216675   5.902   0.240   3.551 -1.0956  1.0956  0.1076
 5557TIP3   OH216676   3.011   0.075   2.756  0.5669  0.0142 -0.1017
 5557TIP3    H116677   2.986  -0.007   2.798  0.5114  0.0436 -0.0772
 5557TIP3    H216678   3.055   0.125   2.825  1.3670 -0.3447 -0.3495
 5558TIP3   OH216679   4.112   0.910   4.529 -0.0694  0.1116 -0.2282
 5558TIP3    H116680   4.154   0.909   4.443  0.1147 -1.0366 -0.1404
 5558TIP3    H216681   4.127   0.822   4.565 -1.7346 -0.0410  0.2043
 5559TIP3   OH216682   1.297   5.375   0.489 -0.3354 -0.7332 -0.1194
 5559TIP3    H116683   1.314   5.450   0.547  0.5899 -1.0620  0.0595
 5559TIP3    H216684   1.202   5.366   0.489 -0.4164 -0.0170  0.4486
 5560TIP3   OH216685   3.901   2.561   2.658  0.0087  0.0708  0.5671
 5560TIP3    H116686   3.953   2.641   2.650  1.4006 -0.9321 -1.3465
 5560TIP3    H216687   3.818   2.589   2.696  0.6078  2.3379  0.3172
 5561TIP3   OH216688   4.424   3.260   4.787 -0.1430 -0.7809 -0.2412
 5561TIP3    H116689   4.443   3.353   4.771 -0.5061 -0.4450  1.0827
 5561TIP3    H216690   4.332   3.250   4.761  0.2868 -1.1321 -1.7094
 5562TIP3   OH216691   2.414   4.786   3.119  0.6161 -0.2368 -0.2354
 5562TIP3    H116692   2.326   4.762   3.148  0.4324  1.9165  1.2488
 5562TIP3    H216693   2.424   4.743   3.034 -2.2520  0.2576 -0.9202
 5563TIP3   OH216694   4.460   0.550   3.151 -0.6851 -0.1680  0.2015
 5563TIP3    H116695   4.366   0.568   3.146 -0.5295  0.3650 -1.2063
 5563TIP3    H216696   4.469   0.459   3.125 -0.5449  0.7050 -3.2377
 5564TIP3   OH216697   0.937   4.017   3.804  0.2482 -0.8412 -0.3195
 5564TIP3    H116698   0.944   3.995   3.711 -1.5288 -1.9402 -0.2494
 5564TIP3    H216699   0.867   4.082   3.807 -0.7412 -1.8906  0.3486
 5565TIP3   OH216700   5.445   3.948   0.188  0.3783 -0.1621  0.0832
 5565TIP3    H116701   5.492   4.010   0.133 -0.0235 -0.3812 -0.5106
 5565TIP3    H216702   5.420   3.999   0.266  1.7216 -0.0899  0.4821
 5566TIP3   OH216703   3.449   2.565   2.659 -0.3251 -0.1052  0.1845
 5566TIP3    H116704   3.516   2.574   2.590  0.1593  0.2845  0.7017
 5566TIP3    H216705   3.494   2.517   2.729 -0.5020  0.4036  0.6471
 5567TIP3   OH216706   4.198   5.923   0.440 -0.0786 -0.8734 -0.4714
 5567TIP3    H116707   4.241   5.870   0.508  0.3736  0.2493  0.1491
 5567TIP3    H216708   4.185   5.862   0.367  1.6137 -1.5362 -0.2806
 5568TIP3   OH216709   0.273   4.448   0.067  0.3245  0.2872 -0.4759
 5568TIP3    H116710   0.265   4.450  -0.029 -0.4663 -1.5245 -0.4943
 5568TIP3    H216711   0.202   4.505   0.098  0.3109  0.5357 -0.9514
 5569TIP3   OH216712   3.649   3.866   3.930  0.0801 -0.1018 -0.7494
 5569TIP3    H116713   3.687   3.793   3.980  0.5753  0.5782 -0.1207
 5569TIP3    H216714   3.560   3.874   3.963  0.1473 -0.1760 -0.5479
 5570TIP3   OH216715   2.357   2.058   2.509 -0.2749  0.6961  1.4139
 5570TIP3    H116716   2.288   2.014   2.459  0.8822  2.5339 -2.1749
 5570TIP3    H216717   2.422   1.990   2.525 -0.8613 -0.0570  0.7073
 5571TIP3   OH216718   2.862   0.755   3.016  0.0129 -0.4606  0.2390
 5571TIP3    H116719   2.950   0.752   3.054 -0.3556  0.8371  1.2504
 5571TIP3    H216720   2.830   0.843   3.035 -1.8143 -1.1606  0.5856
 5572TIP3   OH216721   1.092   3.720   4.595  0.1211 -0.2372 -0.5228
 5572TIP3    H116722   1.136   3.743   4.513 -0.6821  1.9599 -0.4045
 5572TIP3    H216723   1.159   3.734   4.663 -0.1766  1.3478 -0.5156
 5573TIP3   OH216724   0.658   2.715   3.061  1.0809  0.1977 -0.2162
 5573TIP3    H116725   0.662   2.683   2.971  0.0019  0.2304 -0.2857
 5573TIP3    H216726   0.608   2.649   3.109  0.2768  0.9460  0.0042
 5574TIP3   OH216727   2.841   2.563   1.710  0.2332 -0.3456 -0.3903
 5574TIP3    H116728   2.913   2.501   1.715  1.5330  1.0731 -0.6528
 5574TIP3    H216729   2.846   2.612   1.792 -1.8819 -1.6692  0.6241
 5575TIP3   OH216730   0.433   0.125   2.619  0.4671 -0.4804  0.2851
 5575TIP3    H116731   0.403   0.157   2.534 -0.8240 -0.3899  0.7407
 5575TIP3    H216732   0.469   0.039   2.602 -1.1623 -1.1107 -0.1562
 5576TIP3   OH216733   0.509   4.399   1.125  1.0532  0.0227 -0.2534
 5576TIP3    H116734   0.573   4.331   1.147  2.2396  1.1792 -0.0247
 5576TIP3    H216735   0.537   4.476   1.174  0.3195  0.9770 -1.2726
 5577TIP3   OH216736   2.408   4.606   2.590  0.5319 -0.0608  0.1185
 5577TIP3    H116737   2.395   4.696   2.621 -0.9963  0.2703 -1.3181
 5577TIP3    H216738   2.334   4.557   2.626  2.0810 -1.1065  2.0224
 5578TIP3   OH216739   2.989   1.001   2.132  0.2582  0.1301  0.0553
 5578TIP3    H116740   2.927   1.074   2.143 -1.1811 -1.0793  0.3006
 5578TIP3    H216741   3.074   1.043   2.120 -0.8032  1.9200 -1.8194
 5579TIP3   OH216742   2.009   2.756   3.599 -0.4163 -0.6397 -0.1218
 5579TIP3    H116743   2.065   2.759   3.522 -0.6068 -1.1863 -0.2856
 5579TIP3    H216744   2.030   2.836   3.647 -0.5283 -0.1157 -0.9057
 5580TIP3   OH216745   2.341   2.966   1.219 -0.1268 -0.3177  0.6498
 5580TIP3    H116746   2.254   2.946   1.184 -0.8586 -1.3417  2.8726
 5580TIP3    H216747   2.330   3.050   1.265  0.8314  1.0339 -1.4080
 5581TIP3   OH216748   5.089   1.334   2.255 -0.2981  0.5359  0.3536
 5581TIP3    H116749   5.061   1.266   2.194  0.1841  0.3241  0.3594
 5581TIP3    H216750   5.184   1.339   2.243 -0.1572  0.2641  1.3198
 5582TIP3   OH216751   1.048   2.528   0.638 -0.0385  0.1482  0.4426
 5582TIP3    H116752   1.125   2.489   0.679  0.6391  1.1873  0.1895
 5582TIP3    H216753   1.082   2.580   0.565 -1.2626 -2.3186 -2.0774
 5583TIP3   OH216754   5.678   3.252   2.932  0.2298  0.6440  0.2304
 5583TIP3    H116755   5.749   3.314   2.919 -1.7373  3.5746  2.1823
 5583TIP3    H216756   5.704   3.201   3.009  1.2708 -0.0919 -0.5850
 5584TIP3   OH216757   0.040   3.406   0.503  0.1836 -0.2336 -0.0703
 5584TIP3    H116758  -0.001   3.483   0.464  1.5929  1.8772  2.3207
 5584TIP3    H216759  -0.032   3.344   0.515 -1.4945  1.6566  0.1361
 5585TIP3   OH216760   2.471   0.414   1.619 -0.0333  0.7031 -0.0883
 5585TIP3    H116761   2.419   0.493   1.605 -1.8188 -0.2077  1.0740
 5585TIP3    H216762   2.466   0.398   1.713 -1.2187 -1.7549 -0.5060
 5586TIP3   OH216763   2.921   0.043   1.272 -0.4062 -0.6064  0.1137
 5586TIP3    H116764   2.947   0.133   1.292 -1.3310 -0.3395  0.1604
 5586TIP3    H216765   2.956  -0.009   1.344 -1.8208  0.0475  1.3137
 5587TIP3   OH216766   5.908   3.394   2.936 -0.2201 -0.0161  0.0979
 5587TIP3    H116767   5.962   3.467   2.968 -0.9640  0.0922  1.1725
 5587TIP3    H216768   5.965   3.317   2.942  0.5233  0.4308 -0.9096
 5588TIP3   OH216769   0.898   5.132   4.449  0.2621  0.1336 -0.0172
 5588TIP3    H116770   0.924   5.220   4.422 -0.5989  0.2940 -0.3499
 5588TIP3    H216771   0.937   5.074   4.384  0.4494  0.3028 -0.0573
 5589TIP3   OH216772   1.219   2.537   1.423  0.1785  0.2830 -0.3344
 5589TIP3    H116773   1.252   2.608   1.478  0.9458 -0.0888 -0.3062
 5589TIP3    H216774   1.171   2.582   1.353  3.1861  1.0536 -2.0676
 5590TIP3   OH216775   0.735   2.270   4.482  0.2991 -0.3349 -0.2191
 5590TIP3    H116776   0.797   2.331   4.442 -0.3092 -0.3159 -1.1399
 5590TIP3    H216777   0.723   2.200   4.418 -1.1520  0.0030 -0.3588
 5591TIP3   OH216778   0.260   1.807   3.159  0.2797  0.6367  0.0338
 5591TIP3    H116779   0.314   1.731   3.180  1.0622  0.4249 -2.4483
 5591TIP3    H216780   0.318   1.863   3.107 -1.6595  0.7187 -2.1623
 5592TIP3   OH216781   3.983   0.678   1.612 -0.0155  0.3432  0.3509
 5592TIP3    H116782   4.061   0.622   1.609 -1.3355 -1.6252 -2.4255
 5592TIP3    H216783   3.934   0.646   1.688  0.3010 -0.7974  0.0997
 5593TIP3   OH216784   5.191   1.971   4.736 -0.5506 -0.1407  0.4059
 5593TIP3    H116785   5.100   1.971   4.706 -0.2920 -0.5758 -0.4377
 5593TIP3    H216786   5.241   1.952   4.656  0.1727 -1.3393  1.1161
 5594TIP3   OH216787   4.889   5.331   4.592  0.5826  0.2123  0.6040
 5594TIP3    H116788   4.959   5.390   4.619  1.1899  0.1168 -0.7119
 5594TIP3    H216789   4.931   5.265   4.537 -0.3504 -0.5164  0.7314
 5595TIP3   OH216790   0.593   5.721   1.868 -0.4066  0.2716  0.2244
 5595TIP3    H116791   0.586   5.658   1.940  1.6658 -2.0263 -1.3813
 5595TIP3    H216792   0.516   5.704   1.814 -0.0803 -0.6327  0.0267
 5596TIP3   OH216793   0.088   3.432   0.931 -0.5937  0.8040 -0.2286
 5596TIP3    H116794   0.004   3.392   0.908  0.6413 -1.9039 -0.4835
 5596TIP3    H216795   0.148   3.403   0.863  1.4143 -0.8662  2.0643
 5597TIP3   OH216796   1.887   0.636   1.626  0.1856  0.0323  0.0625
 5597TIP3    H116797   1.933   0.639   1.542  0.5026 -0.4800  0.2113
 5597TIP3    H216798   1.956   0.620   1.691 -0.0340  0.5735  0.4436
 5598TIP3   OH216799   2.262   0.243   4.193  0.5281 -0.6060 -0.5581
 5598TIP3    H116800   2.182   0.192   4.206  0.6038 -0.6178 -0.1289
 5598TIP3    H216801   2.232   0.334   4.186  0.5094 -0.5740 -0.0519
 5599TIP3   OH216802   6.137   0.746   0.954 -0.1204 -0.0085 -0.0037
 5599TIP3    H116803   6.049   0.712   0.937  0.1404 -1.4077  1.2072
 5599TIP3    H216804   6.170   0.772   0.868 -1.3596 -0.3597 -0.6073
 5600TIP3   OH216805   6.038   5.628   0.487 -0.1692  0.0700  0.1525
 5600TIP3    H116806   5.989   5.702   0.451  0.5674  1.1687  1.3081
 5600TIP3    H216807   6.114   5.669   0.530  0.6901 -1.4332  0.1197
 5601TIP3   OH216808   0.772   4.949   3.158  0.0739 -0.6408 -0.2998
 5601TIP3    H116809   0.799   4.955   3.066  0.8449 -1.6856 -0.1541
 5601TIP3    H216810   0.836   4.890   3.198 -1.0044 -1.2053  0.6311
 5602TIP3   OH216811   5.407   3.738   4.990  0.3634  0.5136 -0.4313
 5602TIP3    H116812   5.434   3.823   5.024  0.8756 -0.3521  1.4657
 5602TIP3    H216813   5.371   3.757   4.903 -0.1229  2.7395  0.1977
 5603TIP3   OH216814   2.194   1.852   1.924  0.4320  0.2450 -0.1873
 5603TIP3    H116815   2.251   1.911   1.973  1.0450 -0.0464 -0.5362
 5603TIP3    H216816   2.241   1.836   1.842  0.4136 -0.9788  0.0308
 5604TIP3   OH216817   3.638   0.638   3.137  0.0144 -0.1114  0.1426
 5604TIP3    H116818   3.648   0.686   3.054  1.5108 -1.5534 -0.5665
 5604TIP3    H216819   3.575   0.570   3.118  0.6442 -0.6815  0.0556
 5605TIP3   OH216820   3.411   0.503   3.606  0.2382  0.1736  0.0391
 5605TIP3    H116821   3.454   0.582   3.576 -0.7674  0.0675 -1.8239
 5605TIP3    H216822   3.327   0.533   3.640  0.3894  0.0304  0.5497
 5606TIP3   OH216823   5.122   0.937   2.073  0.1228 -0.5046 -0.0863
 5606TIP3    H116824   5.129   0.887   2.155 -0.8156 -2.4957 -1.1421
 5606TIP3    H216825   5.044   0.902   2.031 -0.7335  2.0936 -0.8212
 5607TIP3   OH216826   4.918   0.990   0.389  0.7351 -0.0362 -0.2746
 5607TIP3    H116827   4.923   0.928   0.316  0.2676  1.9524 -2.0869
 5607TIP3    H216828   4.842   0.961   0.440  1.2289 -1.6133 -0.3709
 5608TIP3   OH216829   3.204   1.329   0.748  1.0293 -0.1111  0.4020
 5608TIP3    H116830   3.170   1.389   0.815  0.7443  1.0789 -0.7800
 5608TIP3    H216831   3.140   1.258   0.746 -1.5912  2.0793 -1.7975
 5609TIP3   OH216832   5.035   4.742   0.549  0.5869  0.6540 -0.0902
 5609TIP3    H116833   5.052   4.834   0.568 -0.2855  0.7264  0.3938
 5609TIP3    H216834   5.023   4.701   0.634  0.4297  0.2017 -0.3240
 5610TIP3   OH216835   4.696   3.786   1.282  0.2106 -0.2581 -0.1450
 5610TIP3    H116836   4.791   3.781   1.269  0.3795 -1.8861  1.2547
 5610TIP3    H216837   4.660   3.803   1.195  1.8569  2.6560 -0.3906
 5611TIP3   OH216838   3.734   0.913   1.886  0.4032  0.1922  0.5699
 5611TIP3    H116839   3.765   0.920   1.795 -0.2014 -1.5253  0.1903
 5611TIP3    H216840   3.704   1.001   1.907 -0.7044  0.3542 -1.3918
 5612TIP3   OH216841   0.440   3.254   2.847  0.0719 -0.3537 -0.5898
 5612TIP3    H116842   0.360   3.293   2.884  0.1994  0.3350 -1.0115
 5612TIP3    H216843   0.502   3.252   2.919  0.5313  1.5756 -0.8834
 5613TIP3   OH216844   5.487   5.867   0.322 -0.0020 -0.0210 -0.1808
 5613TIP3    H116845   5.419   5.895   0.384 -1.0441 -0.6370 -1.0160
 5613TIP3    H216846   5.568   5.874   0.372 -0.6268  1.0862  0.7323
 5614TIP3   OH216847   2.291   4.355   4.722  0.0140 -0.1560  0.2987
 5614TIP3    H116848   2.273   4.370   4.629 -1.4825  0.5180  0.6798
 5614TIP3    H216849   2.206   4.358   4.765  0.7541  0.3599  1.8190
 5615TIP3   OH216850   2.191   2.563   1.946  0.7306  0.1741  0.7651
 5615TIP3    H116851   2.096   2.552   1.952  0.7874  0.1628  1.9243
 5615TIP3    H216852   2.214   2.617   2.022  1.8176 -0.9561  1.2794
 5616TIP3   OH216853   2.168   5.147   3.242 -0.2098  0.0532  0.2185
 5616TIP3    H116854   2.179   5.084   3.171  0.9763  0.3230  0.1482
 5616TIP3    H216855   2.074   5.144   3.262 -0.7533  0.6714 -1.9725
 5617TIP3   OH216856   0.725   4.901   0.801  0.0759  0.7853 -0.2602
 5617TIP3    H116857   0.802   4.951   0.828  0.4441  0.2462 -0.3071
 5617TIP3    H216858   0.746   4.869   0.713 -0.0051  0.2425 -0.0871
 5618TIP3   OH216859   0.082   2.642   1.107 -0.4518 -0.3728 -0.2537
 5618TIP3    H116860  -0.010   2.661   1.126 -0.7364 -0.0118 -1.8939
 5618TIP3    H216861   0.085   2.626   1.013  1.1456 -0.5795 -0.1985
 5619TIP3   OH216862   3.328   1.474   2.784 -0.2445 -0.2189  0.0988
 5619TIP3    H116863   3.387   1.406   2.750 -0.6522 -0.7698  0.4856
 5619TIP3    H216864   3.270   1.428   2.844  0.0421  0.6270  1.0476
 5620TIP3   OH216865   3.060   5.646   4.910  0.2058  0.0114 -0.1701
 5620TIP3    H116866   3.124   5.694   4.858  0.6022  0.9320  1.1078
 5620TIP3    H216867   2.976   5.668   4.871  0.5733 -0.2825 -1.1534
 5621TIP3   OH216868   4.180   0.099   3.651 -0.0345 -0.1355 -0.1082
 5621TIP3    H116869   4.240   0.034   3.687  0.3457 -0.4675 -1.2780
 5621TIP3    H216870   4.235   0.155   3.595 -0.5344  0.5637  0.0860
 5622TIP3   OH216871   3.081   5.947   2.638 -0.1969  0.1253  0.7250
 5622TIP3    H116872   2.999   5.983   2.673 -0.2585 -0.6414  1.4084
 5622TIP3    H216873   3.054   5.896   2.561 -0.0629  1.8180 -0.4817
 5623TIP3   OH216874   5.286   4.116   2.067 -0.5576 -0.2303 -0.0051
 5623TIP3    H116875   5.271   4.095   1.975  0.1924 -0.4107 -0.0932
 5623TIP3    H216876   5.224   4.062   2.116  0.4642 -1.7134 -0.2937
 5624TIP3   OH216877   2.083   0.189   2.456 -0.7532  0.6108  0.0822
 5624TIP3    H116878   2.003   0.234   2.483 -1.2327 -0.4737  0.5295
 5624TIP3    H216879   2.061   0.096   2.458 -0.4509  0.3674 -2.9054
 5625TIP3   OH216880   5.210   5.438   1.883 -0.2516  0.1163  0.3339
 5625TIP3    H116881   5.265   5.456   1.807 -1.0682  0.2791 -0.2296
 5625TIP3    H216882   5.143   5.378   1.850 -0.8539  0.5148  0.8132
 5626TIP3   OH216883   4.113   1.705   2.477  0.0869  0.2828 -0.2382
 5626TIP3    H116884   4.139   1.618   2.508  1.2568  0.3430 -0.9964
 5626TIP3    H216885   4.132   1.763   2.550 -2.2073 -0.2783  0.8836
 5627TIP3   OH216886   6.145   3.313   1.230  0.4970  0.3578 -0.2283
 5627TIP3    H116887   6.148   3.323   1.135  2.5610  0.2329 -0.2240
 5627TIP3    H216888   6.059   3.276   1.248 -0.7899  2.3579 -1.8270
 5628TIP3   OH216889   1.640   5.027   0.516  0.5012 -0.3964  0.3758
 5628TIP3    H116890   1.557   5.023   0.563 -0.1739 -0.0873 -0.7363
 5628TIP3    H216891   1.646   4.943   0.471  1.8901 -1.3240  2.1499
 5629TIP3   OH216892   1.372   0.696   1.134  0.2646 -0.4328  0.4283
 5629TIP3    H116893   1.434   0.769   1.146 -1.7934  1.3937  0.6961
 5629TIP3    H216894   1.427   0.621   1.112  2.4884  1.2872 -0.2818
 5630TIP3   OH216895   4.429   3.094   0.860  0.0696 -0.0333 -0.3757
 5630TIP3    H116896   4.502   3.143   0.896 -0.6227  1.4964 -0.9748
 5630TIP3    H216897   4.470   3.026   0.806  1.0493  1.1300 -1.1325
 5631TIP3   OH216898   1.562   5.071   4.442  0.4139  0.1385 -0.1654
 5631TIP3    H116899   1.617   5.005   4.484  1.0148 -0.0407 -1.1990
 5631TIP3    H216900   1.606   5.090   4.359 -0.5355  0.7542 -0.5496
 5632TIP3   OH216901   4.476   1.147   3.755 -0.0871  0.1861  0.4623
 5632TIP3    H116902   4.505   1.175   3.669  1.2265 -3.0849 -0.3018
 5632TIP3    H216903   4.556   1.122   3.801 -1.0713 -3.2808  0.5455
 5633TIP3   OH216904   2.999   5.188   1.386 -0.3954  0.4440 -0.2024
 5633TIP3    H116905   3.019   5.270   1.342 -0.7218 -0.4170 -2.0430
 5633TIP3    H216906   2.904   5.184   1.389 -0.3911 -0.1959 -0.7839
 5634TIP3   OH216907   1.355   3.951   2.001  0.3994 -0.4205 -0.1708
 5634TIP3    H116908   1.300   4.010   1.950  1.2618  0.7129  0.1647
 5634TIP3    H216909   1.382   3.883   1.938  0.2187  0.0980 -0.8203
 5635TIP3   OH216910   0.852   0.060   4.019  0.3510  0.2851  0.2745
 5635TIP3    H116911   0.781  -0.005   4.013 -0.1880  0.7794  1.1522
 5635TIP3    H216912   0.834   0.121   3.947 -0.3956  0.6688  0.7711
 5636TIP3   OH216913   3.122   4.262   1.092  0.7553 -0.3868 -0.3059
 5636TIP3    H116914   3.214   4.261   1.121  0.2998  1.5160  1.4260
 5636TIP3    H216915   3.102   4.354   1.078 -1.6431 -0.4266  2.0617
 5637TIP3   OH216916   2.411   2.767   1.386  0.3997  0.2677  0.3079
 5637TIP3    H116917   2.348   2.710   1.342  1.5632 -0.4269 -0.5323
 5637TIP3    H216918   2.413   2.847   1.332  0.5245  0.1266  0.1007
 5638TIP3   OH216919   0.324   2.485   2.881 -0.4056 -0.1868  1.1621
 5638TIP3    H116920   0.335   2.578   2.899 -0.6801  0.6785 -2.3808
 5638TIP3    H216921   0.239   2.462   2.919 -0.8842  1.3250  1.0519
 5639TIP3   OH216922   1.513   0.297   4.697  0.6683  0.5696 -0.3092
 5639TIP3    H116923   1.541   0.280   4.607 -1.3285  0.7289 -1.0100
 5639TIP3    H216924   1.498   0.392   4.700 -1.4994  0.2791 -0.5456
 5640TIP3   OH216925   4.697   0.890   0.528  0.4451 -0.3640  0.3236
 5640TIP3    H116926   4.617   0.847   0.497  1.0246 -1.9689  0.9337
 5640TIP3    H216927   4.667   0.973   0.565 -0.4658  0.9004 -2.9391
 5641TIP3   OH216928   0.366   3.536   1.145 -0.6923 -0.5649 -0.1885
 5641TIP3    H116929   0.421   3.609   1.172 -1.7569 -0.0712  0.7734
 5641TIP3    H216930   0.315   3.570   1.072 -0.3675 -0.7302 -0.4945
 5642TIP3   OH216931   5.521   3.282   4.438  0.0238 -0.1964  0.0394
 5642TIP3    H116932   5.450   3.345   4.428 -0.0421 -0.3121 -0.2589
 5642TIP3    H216933   5.478   3.197   4.440  0.1251 -0.2424  0.2499
 5643TIP3   OH216934   2.772   0.647   3.453  0.1670  0.0200  0.2667
 5643TIP3    H116935   2.702   0.656   3.517  2.5876  0.3840  3.1118
 5643TIP3    H216936   2.829   0.722   3.470  2.2454 -1.2935 -0.5278
 5644TIP3   OH216937   4.185   2.617   2.892  0.6015  0.5494 -0.0089
 5644TIP3    H116938   4.213   2.535   2.933  2.3763  1.6353  1.1137
 5644TIP3    H216939   4.246   2.629   2.819  0.6980  1.1125  0.1600
 5645TIP3   OH216940   4.970   0.187   2.605 -0.6843 -0.1598  0.1238
 5645TIP3    H116941   5.037   0.164   2.540 -0.7999 -1.0969  0.3133
 5645TIP3    H216942   4.925   0.262   2.568  0.9161  0.9378  0.3054
 5646TIP3   OH216943   0.570   5.051   0.569  0.4764 -0.4779  0.3692
 5646TIP3    H116944   0.556   5.022   0.659  2.8817 -1.8651  0.3814
 5646TIP3    H216945   0.600   4.973   0.523  0.4621  0.4851 -1.3672
 5647TIP3   OH216946   1.582   2.388   2.641 -0.1885  0.3637 -0.1058
 5647TIP3    H116947   1.502   2.364   2.594  1.0928 -3.9541 -0.5137
 5647TIP3    H216948   1.650   2.333   2.602  1.6582 -1.0171  4.3811
 5648TIP3   OH216949   0.560   2.941   1.879 -0.0049  0.1538  0.3769
 5648TIP3    H116950   0.525   3.028   1.862 -1.2165 -0.4104 -0.1328
 5648TIP3    H216951   0.561   2.897   1.794 -2.9649 -1.5585  1.0572
 5649TIP3   OH216952   4.620   3.896   4.907  0.2495  0.0060  0.1389
 5649TIP3    H116953   4.533   3.934   4.903 -0.5337 -1.7468 -0.6577
 5649TIP3    H216954   4.648   3.908   4.998 -0.9769  0.2509  0.4969
 5650TIP3   OH216955   3.123   1.257   5.155 -0.2363  0.3006 -0.3464
 5650TIP3    H116956   3.095   1.321   5.220 -1.0704 -0.3244 -0.0731
 5650TIP3    H216957   3.180   1.306   5.096 -0.4577  1.1718  0.1488
 5651TIP3   OH216958   5.411   5.910   3.237 -0.2256 -0.3371  0.1897
 5651TIP3    H116959   5.319   5.936   3.236 -0.7550 -1.9878 -2.3151
 5651TIP3    H216960   5.449   5.960   3.309 -2.7825  1.3570  0.4909
 5652TIP3   OH216961   5.133   5.784   0.850 -0.4201  0.3424 -0.0010
 5652TIP3    H116962   5.092   5.793   0.764  3.1625  1.8153 -1.7640
 5652TIP3    H216963   5.139   5.873   0.883 -0.0129 -0.0044  0.8910
 5653TIP3   OH216964   3.594   3.417   4.089 -0.3359 -0.3794 -0.9326
 5653TIP3    H116965   3.579   3.386   4.178  0.4934 -1.9340 -1.3053
 5653TIP3    H216966   3.540   3.361   4.034  1.2266 -1.2565 -1.6270
 5654TIP3   OH216967   5.431   3.323   3.311 -0.4931  0.4162 -0.3870
 5654TIP3    H116968   5.388   3.402   3.345  0.4478  0.6186  0.3760
 5654TIP3    H216969   5.421   3.330   3.216 -0.5128  1.4120 -0.3264
 5655TIP3   OH216970   2.968   3.739   3.969 -0.5000  0.2712 -0.0259
 5655TIP3    H116971   2.921   3.657   3.955  1.3369 -0.4893 -2.5467
 5655TIP3    H216972   3.054   3.725   3.927  1.1926  2.3031  2.4508
 5656TIP3   OH216973   5.355   3.926   4.226 -0.6502  0.2508 -0.3723
 5656TIP3    H116974   5.368   4.011   4.268  2.1051  0.2713 -1.0950
 5656TIP3    H216975   5.276   3.937   4.172 -0.6201  2.1792 -0.0703
 5657TIP3   OH216976   1.454   2.049   5.088  0.2916 -0.3287  0.2522
 5657TIP3    H116977   1.406   1.969   5.109  1.3346 -0.6315  1.7000
 5657TIP3    H216978   1.487   2.079   5.173  1.1917  0.7956 -0.4725
 5658TIP3   OH216979   5.047   4.294   0.720 -0.5391 -0.1487 -0.2967
 5658TIP3    H116980   4.998   4.326   0.644 -2.0261  1.9034  1.4000
 5658TIP3    H216981   4.992   4.317   0.795  2.0170  0.2153  1.5905
 5659TIP3   OH216982   5.304   5.296   4.535 -0.2870 -0.3765  0.1322
 5659TIP3    H116983   5.251   5.329   4.463  0.9343  0.8804 -0.2302
 5659TIP3    H216984   5.282   5.353   4.609  1.2867  0.9014 -0.3060
 5660TIP3   OH216985   5.069   0.142   4.165 -0.4144 -0.1544 -0.0196
 5660TIP3    H116986   5.131   0.114   4.097  1.5056 -0.1060  1.6044
 5660TIP3    H216987   5.009   0.068   4.175  0.9449 -1.2897  0.0917
 5661TIP3   OH216988   4.103   5.145   5.062 -0.5335  0.0122  0.6233
 5661TIP3    H116989   4.034   5.080   5.049  0.0273 -0.3246 -1.0277
 5661TIP3    H216990   4.184   5.099   5.039 -0.0529  1.1015  0.0256
 5662TIP3   OH216991   3.870   4.993   3.996  0.3805 -0.2500  0.4591
 5662TIP3    H116992   3.830   5.007   3.910 -2.2107  0.5967  1.6848
 5662TIP3    H216993   3.901   5.080   4.022 -0.2269 -0.1764  0.9730
 5663TIP3   OH216994   0.619   5.681   1.156 -0.0418  0.4978  0.3025
 5663TIP3    H116995   0.540   5.728   1.181 -0.7360 -0.8693  0.8290
 5663TIP3    H216996   0.675   5.685   1.233 -0.1419  0.3979  0.3814
 5664TIP3   OH216997   4.513   3.238   2.363  0.1221  0.3076  0.4894
 5664TIP3    H116998   4.500   3.171   2.431 -1.0614  0.8610  0.8475
 5664TIP3    H216999   4.511   3.190   2.281  0.2704 -0.2189  0.7912
 5665TIP3   OH217000   5.067   2.795   0.596  0.1243 -0.0639  0.0403
 5665TIP3    H117001   5.119   2.722   0.563 -1.4206 -0.9171 -0.6516
 5665TIP3    H217002   5.016   2.825   0.520 -0.8753  0.2851  0.8125
 5666TIP3   OH217003   1.442   2.187   2.832 -0.6973 -0.3686  0.0591
 5666TIP3    H117004   1.523   2.140   2.850 -1.6684 -1.9952  0.3410
 5666TIP3    H217005   1.423   2.235   2.913  0.1186  0.2967 -0.1204
 5667TIP3   OH217006   5.580   2.958   4.814  0.1559  0.3687 -0.1796
 5667TIP3    H117007   5.590   2.872   4.853  2.2052 -0.4294 -2.2786
 5667TIP3    H217008   5.645   3.013   4.858 -0.2260  0.5107  0.2168
 5668TIP3   OH217009   4.878   1.731   1.814 -0.2477 -0.4963 -0.3184
 5668TIP3    H117010   4.859   1.781   1.735  1.4546  0.7522  0.0009
 5668TIP3    H217011   4.804   1.748   1.872 -0.4457  0.4011 -0.8156
 5669TIP3   OH217012   1.861   5.691   4.435 -0.0796 -0.1476 -0.7964
 5669TIP3    H117013   1.928   5.743   4.392  2.2395 -0.4392  2.1463
 5669TIP3    H217014   1.904   5.609   4.456 -2.0204 -1.1635 -0.5414
 5670TIP3   OH217015   5.476   4.420   0.352 -0.5256  0.2928 -0.8644
 5670TIP3    H117016   5.459   4.393   0.442 -1.1104  0.1799 -1.0095
 5670TIP3    H217017   5.557   4.471   0.357  1.5856 -2.8389 -0.8300
 5671TIP3   OH217018   2.555   2.457   0.183 -0.4993 -0.8099  0.0582
 5671TIP3    H117019   2.480   2.460   0.123 -1.6417  0.1405  1.4621
 5671TIP3    H217020   2.602   2.538   0.166 -0.7681 -0.5883  0.3400
 5672TIP3   OH217021   3.839   3.775   1.287  0.3479 -0.0126 -0.4224
 5672TIP3    H117022   3.874   3.720   1.217  3.0357  0.0715  0.7304
 5672TIP3    H217023   3.839   3.864   1.250  0.2702 -0.1707 -0.8076
 5673TIP3   OH217024   4.985   3.622   4.813 -0.0276 -0.8649  0.6293
 5673TIP3    H117025   4.905   3.571   4.804 -0.5405  0.1852 -1.6459
 5673TIP3    H217026   4.962   3.709   4.778  1.7182 -0.1166  1.2091
 5674TIP3   OH217027   0.106   4.335   3.164  0.6480  0.5877  0.1694
 5674TIP3    H117028   0.087   4.327   3.258 -0.5408 -1.3296 -0.1652
 5674TIP3    H217029   0.020   4.329   3.122  1.3238 -0.7283 -1.1156
 5675TIP3   OH217030   3.736   1.516   5.151 -0.4857 -0.0608 -0.0423
 5675TIP3    H117031   3.673   1.459   5.106  0.6127  0.0938 -1.9073
 5675TIP3    H217032   3.790   1.456   5.202 -1.0868 -0.3726  0.2383
 5676TIP3   OH217033   2.681   0.178   1.881 -0.8569 -0.1345 -0.3194
 5676TIP3    H117034   2.637   0.185   1.796 -0.7671 -0.6709 -0.4116
 5676TIP3    H217035   2.634   0.240   1.937 -0.9317  0.2045 -0.7523
 5677TIP3   OH217036   3.198   1.184   3.478 -0.6161 -0.8116  0.5441
 5677TIP3    H117037   3.225   1.273   3.500 -0.4898 -0.4943 -0.7978
 5677TIP3    H217038   3.220   1.133   3.556  0.4342  0.1071  0.8891
 5678TIP3   OH217039   4.572   5.498   3.528 -0.4152 -0.4821 -0.0184
 5678TIP3    H117040   4.518   5.511   3.607  0.2124 -1.2778  0.5629
 5678TIP3    H217041   4.555   5.407   3.503 -0.1714 -0.4030 -0.4686
 5679TIP3   OH217042   0.200   5.764   1.938  0.3349  0.0629 -0.3166
 5679TIP3    H117043   0.274   5.825   1.941  0.4181 -0.0327 -0.4555
 5679TIP3    H217044   0.163   5.768   2.026  0.7248 -0.1611 -0.1406
 5680TIP3   OH217045   0.948   4.449   2.410  0.4043  0.1334 -0.1855
 5680TIP3    H117046   0.998   4.519   2.452  0.7766 -0.8623  1.0987
 5680TIP3    H217047   0.861   4.487   2.397  0.6875  0.9419  0.1863
 5681TIP3   OH217048   4.322   0.922   2.214  0.2532 -0.2825  0.2177
 5681TIP3    H117049   4.232   0.908   2.243  0.6588 -1.2499  1.0654
 5681TIP3    H217050   4.365   0.965   2.288 -0.2901  3.4003 -1.3597
 5682TIP3   OH217051   0.586   5.340   3.177 -0.3204  0.1286 -0.4974
 5682TIP3    H117052   0.563   5.265   3.232 -2.5783  1.2146  0.1235
 5682TIP3    H217053   0.531   5.331   3.099  0.2230  0.5592 -0.9413
 5683TIP3   OH217054   4.264   3.043   4.371  0.1934  0.1871  0.0761
 5683TIP3    H117055   4.260   2.958   4.413 -0.9724  0.1206 -0.1274
 5683TIP3    H217056   4.177   3.055   4.333  0.2288  1.6023  0.3761
 5684TIP3   OH217057   5.528   3.496   0.416 -0.3790  0.0351 -0.3547
 5684TIP3    H117058   5.622   3.485   0.432 -0.1652  0.5164 -1.2311
 5684TIP3    H217059   5.487   3.425   0.466  0.5320 -0.8919 -0.8904
 5685TIP3   OH217060   3.963   4.283   4.658  0.5138  0.4073 -0.2414
 5685TIP3    H117061   3.956   4.373   4.625 -1.0483  0.3114 -0.2331
 5685TIP3    H217062   4.010   4.236   4.589 -1.5740  0.4998 -1.8204
 5686TIP3   OH217063   4.104   0.211   2.075  0.0036  0.2446  0.2354
 5686TIP3    H117064   4.119   0.285   2.135  3.8023 -0.8824  1.0088
 5686TIP3    H217065   4.054   0.148   2.126  0.2323  0.6982  1.0355
 5687TIP3   OH217066   0.451   0.679   1.364 -0.2069 -0.3215 -0.1567
 5687TIP3    H117067   0.370   0.670   1.313 -0.3841  1.6232 -0.2877
 5687TIP3    H217068   0.508   0.733   1.309 -0.6163  2.3555  1.8373
 5688TIP3   OH217069   4.704   2.470   1.781  0.3961  0.0961 -0.4739
 5688TIP3    H117070   4.785   2.427   1.754 -0.0858  0.4704 -2.7213
 5688TIP3    H217071   4.733   2.555   1.815  1.0337 -0.3860  0.2427
 5689TIP3   OH217072   1.499   2.572   4.328 -0.1489 -0.3555 -0.0457
 5689TIP3    H117073   1.536   2.638   4.269  0.4204 -1.4037 -0.8863
 5689TIP3    H217074   1.405   2.574   4.310 -0.0682 -0.1584 -0.4562
 5690TIP3   OH217075   4.413   2.990   1.762  0.1135 -0.1757  0.2213
 5690TIP3    H117076   4.378   3.075   1.733 -1.2417 -0.8500 -0.2284
 5690TIP3    H217077   4.392   2.930   1.690 -0.3456 -1.2016  1.1858
 5691TIP3   OH217078   5.969   2.448   1.220 -0.1252 -0.0975 -0.4694
 5691TIP3    H117079   6.045   2.402   1.258  0.4859  1.4458  0.2445
 5691TIP3    H217080   5.960   2.527   1.272 -2.2395 -0.2197 -0.5678
 5692TIP3   OH217081   4.804   0.394   0.033 -0.3603  0.4216 -0.1735
 5692TIP3    H117082   4.801   0.490   0.032  0.5022  0.4486 -0.4984
 5692TIP3    H217083   4.833   0.369  -0.054  3.1799  0.0398  0.9583
 5693TIP3   OH217084   3.117   5.195   4.934 -0.1165 -0.0284 -0.8277
 5693TIP3    H117085   3.185   5.172   4.871 -0.1448 -0.1871 -0.7999
 5693TIP3    H217086   3.050   5.240   4.883 -0.9705 -1.7073 -1.2326
 5694TIP3   OH217087   6.322   1.164   2.497 -0.0690 -0.4702 -0.2317
 5694TIP3    H117088   6.234   1.133   2.516  0.5412 -2.3985 -0.3916
 5694TIP3    H217089   6.326   1.171   2.402 -0.4413  0.9661 -0.1753
 5695TIP3   OH217090   1.301   4.115   3.278  0.0018  0.3070 -0.2773
 5695TIP3    H117091   1.256   4.035   3.250 -0.1816 -0.0286  0.9088
 5695TIP3    H217092   1.391   4.103   3.247 -0.3959  0.4139 -1.5576
 5696TIP3   OH217093   4.629   3.322   1.298  0.2401 -0.3075  0.1402
 5696TIP3    H117094   4.556   3.371   1.260 -0.0145 -1.3926 -0.8313
 5696TIP3    H217095   4.704   3.380   1.289 -0.1123  0.0215 -0.7344
 5697TIP3   OH217096   3.736   0.804   1.077  0.1472  0.2064  0.4754
 5697TIP3    H117097   3.667   0.837   1.020  1.7081 -0.4371 -1.9149
 5697TIP3    H217098   3.689   0.765   1.151 -2.0713 -0.4537 -1.1712
 5698TIP3   OH217099   0.960   3.727   4.252 -0.1226  0.0472 -0.5961
 5698TIP3    H117100   0.955   3.633   4.240 -0.4185 -0.2975  1.7287
 5698TIP3    H217101   1.042   3.741   4.299 -1.6488  0.4966  2.1146
 5699TIP3   OH217102   3.514   4.808   0.532 -0.1484 -0.3129  0.2518
 5699TIP3    H117103   3.543   4.892   0.497  0.3742 -0.1990  0.9416
 5699TIP3    H217104   3.593   4.755   0.537 -0.3328 -0.5556  0.6269
 5700TIP3   OH217105   1.433   3.555   0.515 -0.6857  0.4693 -0.3788
 5700TIP3    H117106   1.403   3.635   0.560  0.8802  0.6449  0.4224
 5700TIP3    H217107   1.500   3.586   0.454 -2.1906  0.1112 -2.3117
 5701TIP3   OH217108   4.731   1.595   4.087 -0.4680  0.2361 -0.0533
 5701TIP3    H117109   4.803   1.557   4.038  0.3702  1.2222  0.3638
 5701TIP3    H217110   4.771   1.628   4.168 -1.8349 -1.5442  1.4518
 5702TIP3   OH217111   2.718   3.782   1.300  0.4319  0.1940  0.3612
 5702TIP3    H117112   2.697   3.829   1.220 -0.8819  0.2075  0.6997
 5702TIP3    H217113   2.704   3.690   1.279  1.4491  0.0636  0.1789
 5703TIP3   OH217114   3.398   1.462   4.791 -0.2636 -0.2453 -0.3786
 5703TIP3    H117115   3.492   1.471   4.778  0.1151 -0.7078  1.6658
 5703TIP3    H217116   3.360   1.537   4.745  0.9672 -0.6352 -2.1478
 5704TIP3   OH217117   6.131   1.796   0.444  0.1955 -0.3039 -0.8701
 5704TIP3    H117118   6.196   1.819   0.511  0.8827 -1.8563 -0.9596
 5704TIP3    H217119   6.178   1.738   0.384 -0.5934  0.5650 -2.3586
 5705TIP3   OH217120   2.870   3.639   1.916  0.6881  0.2172 -0.2070
 5705TIP3    H117121   2.934   3.570   1.931  0.7796  0.5752  1.2011
 5705TIP3    H217122   2.785   3.595   1.920  0.7645  0.1047  0.2372
 5706TIP3   OH217123   5.993   0.973   3.934 -0.3894  0.3584  0.6448
 5706TIP3    H117124   5.959   0.887   3.960 -3.0760  0.9260 -0.6503
 5706TIP3    H217125   6.045   0.955   3.856  0.5218 -0.2752  1.3767
 5707TIP3   OH217126   1.926   1.119   3.874 -0.3309  0.5543  0.3106
 5707TIP3    H117127   1.987   1.057   3.835 -0.4397  1.0897 -0.7683
 5707TIP3    H217128   1.970   1.151   3.952  0.5049  0.4763 -0.1212
 5708TIP3   OH217129   4.825   1.228   0.004  0.2183 -0.2649 -0.6158
 5708TIP3    H117130   4.872   1.270   0.077  1.8697 -3.3873  0.3393
 5708TIP3    H217131   4.741   1.202   0.041 -0.1156  0.6551 -0.7112
 5709TIP3   OH217132   5.302   1.127   2.027 -0.2019  0.0679  0.2139
 5709TIP3    H117133   5.240   1.054   2.032  1.3357 -1.3821 -0.5970
 5709TIP3    H217134   5.342   1.131   2.114 -0.1092 -0.2366  0.1857
 5710TIP3   OH217135   5.926   2.872   1.804  0.0782  0.0053  0.5610
 5710TIP3    H117136   6.000   2.852   1.861  2.0028  0.7829 -1.5228
 5710TIP3    H217137   5.907   2.789   1.759  0.3567  0.0394  0.3777
 5711TIP3   OH217138   4.324   0.612   4.399  0.2980  0.6077 -0.0460
 5711TIP3    H117139   4.276   0.671   4.340  0.0739  1.4883  0.9810
 5711TIP3    H217140   4.353   0.540   4.342  0.1379  1.4447 -1.2352
 5712TIP3   OH217141   5.105   5.645   2.889 -0.6502 -0.0835 -0.5406
 5712TIP3    H117142   5.199   5.662   2.898 -0.7292 -0.1427  0.6023
 5712TIP3    H217143   5.083   5.676   2.802  0.5904 -0.7921 -1.1425
 5713TIP3   OH217144   1.282   3.579   0.260  0.0869 -1.3210  0.5341
 5713TIP3    H117145   1.218   3.563   0.191 -1.1639 -0.8209  1.5436
 5713TIP3    H217146   1.300   3.492   0.296  1.4204 -1.7060 -0.9502
 5714TIP3   OH217147   1.934   3.065   2.608 -0.2293  0.7173  0.1328
 5714TIP3    H117148   1.858   3.065   2.549  0.1727  0.0599 -0.4037
 5714TIP3    H217149   1.967   3.154   2.604 -1.0595  1.0574  0.4957
 5715TIP3   OH217150   2.691   4.428   0.087 -0.8745  0.1496  0.4347
 5715TIP3    H117151   2.745   4.365   0.135  0.8547  0.1866 -1.3036
 5715TIP3    H217152   2.658   4.488   0.154 -0.7625 -1.3004  1.8534
 5716TIP3   OH217153   2.756   2.192   2.662 -0.5559 -0.2692 -0.3118
 5716TIP3    H117154   2.816   2.136   2.712 -2.2932 -0.8222  1.2545
 5716TIP3    H217155   2.796   2.279   2.667 -0.1601 -0.5019  1.2196
 5717TIP3   OH217156   5.879   0.954   0.509 -0.1556 -0.4810 -0.2343
 5717TIP3    H117157   5.840   0.890   0.569 -0.9897 -0.6261 -0.9197
 5717TIP3    H217158   5.882   0.909   0.424  2.3708 -0.8121 -0.0347
 5718TIP3   OH217159   5.373   4.600   4.155 -0.1942  0.6452  0.4517
 5718TIP3    H117160   5.455   4.644   4.131 -0.2484  0.1806 -0.6336
 5718TIP3    H217161   5.367   4.611   4.250  1.1757  0.5951  0.5649
 5719TIP3   OH217162   4.278   3.219   1.582 -0.2599  0.0156 -0.3118
 5719TIP3    H117163   4.293   3.248   1.492  1.2109 -0.2244 -0.1797
 5719TIP3    H217164   4.342   3.269   1.634 -2.0427  1.2420  0.8471
 5720TIP3   OH217165   1.816   4.356   1.255 -0.3940  0.0817  0.4849
 5720TIP3    H117166   1.888   4.419   1.246  0.2837 -0.9210 -2.4319
 5720TIP3    H217167   1.830   4.315   1.340  1.0971  1.5529  1.0055
 5721TIP3   OH217168   1.324   4.131   3.746  0.1115  0.3899 -0.7491
 5721TIP3    H117169   1.374   4.193   3.693 -1.3055 -0.2869 -2.9860
 5721TIP3    H217170   1.295   4.064   3.685  0.3142 -1.7277  1.3233
 5722TIP3   OH217171   5.208   2.589   0.477  0.0165 -0.3464 -0.0012
 5722TIP3    H117172   5.286   2.533   0.470 -1.1680 -2.1251  0.2798
 5722TIP3    H217173   5.149   2.557   0.408 -0.7941  0.4201  0.3176
 5723TIP3   OH217174   5.350   0.916   3.356  0.3390 -0.3389  0.5616
 5723TIP3    H117175   5.305   0.977   3.297  0.6124 -2.0799 -1.5681
 5723TIP3    H217176   5.436   0.954   3.370  1.7029 -1.5205 -3.2876
 5724TIP3   OH217177   2.495   1.654   2.909  0.0967  0.0253  0.2722
 5724TIP3    H117178   2.520   1.704   2.987 -2.0469  1.6230  0.0394
 5724TIP3    H217179   2.487   1.564   2.940 -0.1188  0.5189  1.7594
 5725TIP3   OH217180   3.807   1.988   2.755 -0.3886 -0.3024 -0.2678
 5725TIP3    H117181   3.889   2.019   2.793 -0.3165  0.2810 -0.8781
 5725TIP3    H217182   3.766   1.937   2.825  1.6870 -2.8633 -0.7815
 5726TIP3   OH217183   4.610   2.156   5.195  0.4773  0.0025 -0.5288
 5726TIP3    H117184   4.669   2.125   5.126  2.6698 -0.6832  1.5057
 5726TIP3    H217185   4.585   2.076   5.242  1.5866  0.6973  1.3357
 5727TIP3   OH217186   5.554   4.406   2.256  0.1702 -0.2308  0.2678
 5727TIP3    H117187   5.547   4.442   2.167  0.0257 -2.4509 -0.6683
 5727TIP3    H217188   5.471   4.429   2.298  0.1159  0.5771 -0.2573
 5728TIP3   OH217189   0.844   5.247   4.027 -0.2980 -0.2089 -0.7652
 5728TIP3    H117190   0.804   5.241   3.940 -0.8052  0.4351 -0.5853
 5728TIP3    H217191   0.916   5.184   4.025 -0.6476 -0.5961 -1.4679
 5729TIP3   OH217192   4.995   1.115   4.866 -0.4982  0.2927 -0.1030
 5729TIP3    H117193   5.069   1.169   4.838 -0.4492 -0.0342 -0.6035
 5729TIP3    H217194   5.004   1.034   4.817  0.5853 -1.0252  2.1232
 5730TIP3   OH217195   4.826   4.727   4.834  0.4626 -0.2553  0.5192
 5730TIP3    H117196   4.914   4.698   4.859  0.5809 -0.2137  0.1576
 5730TIP3    H217197   4.809   4.682   4.751  0.6515  0.7335 -0.0623
 5731TIP3   OH217198   5.739   1.645   2.266 -0.4619  0.1263 -0.0587
 5731TIP3    H117199   5.781   1.605   2.189 -1.4853 -0.0762 -0.5254
 5731TIP3    H217200   5.649   1.613   2.263 -1.0055  1.5547  0.2115
 5732TIP3   OH217201   1.219   3.121   1.163 -0.0233 -0.1189  0.1594
 5732TIP3    H117202   1.281   3.176   1.116 -0.1089  0.9868  1.2813
 5732TIP3    H217203   1.175   3.181   1.223 -0.1538 -1.4036  1.3911
 5733TIP3   OH217204   0.523   1.163   4.647  0.5219  0.2197  0.2310
 5733TIP3    H117205   0.590   1.110   4.605  0.4105  0.0392  0.2804
 5733TIP3    H217206   0.571   1.226   4.699  0.6635  0.4404 -0.1606
 5734TIP3   OH217207   0.748   1.485   3.382 -0.0311 -0.7611  0.0349
 5734TIP3    H117208   0.837   1.480   3.417 -0.1944 -2.1526  0.3158
 5734TIP3    H217209   0.715   1.571   3.410  0.7266 -0.8147  1.1377
 5735TIP3   OH217210   4.544   1.144   0.595 -0.0217 -0.1189 -0.2017
 5735TIP3    H117211   4.581   1.156   0.683  1.4433  0.7797 -0.8880
 5735TIP3    H217212   4.451   1.125   0.610  0.0014  0.8997  1.5131
 5736TIP3   OH217213   4.026   2.141   2.867  0.4669 -0.1086  0.7011
 5736TIP3    H117214   4.074   2.189   2.799 -1.2030  0.7552  0.0615
 5736TIP3    H217215   3.989   2.210   2.923 -1.5614 -0.6195  0.0598
 5737TIP3   OH217216   5.551   4.081   0.468 -0.1357  0.3305 -0.2317
 5737TIP3    H117217   5.615   4.137   0.512  1.0268 -0.3123 -1.0796
 5737TIP3    H217218   5.553   4.109   0.377  0.0339 -0.6998 -0.5511
 5738TIP3   OH217219   6.064   4.731   2.906 -0.0928  0.6901  0.1528
 5738TIP3    H117220   6.114   4.746   2.826 -2.3433  0.2158 -1.4429
 5738TIP3    H217221   5.981   4.777   2.893 -1.9614 -2.2141  0.6137
 5739TIP3   OH217222   1.430   2.436   0.844  0.0483  0.5803 -0.2996
 5739TIP3    H117223   1.438   2.530   0.829  0.1811  0.3258 -2.1069
 5739TIP3    H217224   1.337   2.423   0.865  0.2602  1.2296  1.1173
 5740TIP3   OH217225   3.656   4.256   1.939 -0.1482 -0.1564  1.1687
 5740TIP3    H117226   3.609   4.189   1.889  0.4176 -0.3321  0.8626
 5740TIP3    H217227   3.675   4.325   1.876 -1.7284  0.8457  1.7267
 5741TIP3   OH217228   0.589   0.681   1.606 -0.2244  0.5711 -0.3472
 5741TIP3    H117229   0.676   0.675   1.566  0.2468  3.3997  0.0374
 5741TIP3    H217230   0.528   0.669   1.533  0.3477 -2.8274 -0.4154
 5742TIP3   OH217231   4.786   4.331   5.128  0.1548 -0.1461  0.2985
 5742TIP3    H117232   4.750   4.275   5.197 -0.6628  0.2057  0.1787
 5742TIP3    H217233   4.728   4.408   5.128  0.5593  0.1629 -0.3197
 5743TIP3   OH217234   4.321   1.435   0.754  0.0263  0.3082 -0.1407
 5743TIP3    H117235   4.287   1.390   0.832 -0.1073 -0.4016 -0.5925
 5743TIP3    H217236   4.393   1.489   0.787  1.2460 -1.4357  0.2102
 5744TIP3   OH217237   0.615   3.975   0.866  0.2453 -0.0486  0.0373
 5744TIP3    H117238   0.573   4.061   0.866  1.1354  0.3999 -0.4303
 5744TIP3    H217239   0.542   3.913   0.874 -0.6842  0.6275 -2.4392
 5745TIP3   OH217240   1.733   1.631   4.831  0.6571 -0.1431 -0.0127
 5745TIP3    H117241   1.789   1.706   4.850  1.0018  0.0070 -1.5169
 5745TIP3    H217242   1.647   1.656   4.866  1.1940  0.1763  1.1241
 5746TIP3   OH217243   3.470   4.422   2.118 -0.0626  0.0964 -0.1727
 5746TIP3    H117244   3.502   4.476   2.045 -1.1715 -1.1280 -1.6275
 5746TIP3    H217245   3.501   4.334   2.098  0.6653 -0.0748  1.5210
 5747TIP3   OH217246   2.453   3.988   1.982 -0.1396 -0.4645 -0.4422
 5747TIP3    H117247   2.473   4.079   2.003  1.5608 -1.1527  1.2773
 5747TIP3    H217248   2.425   3.950   2.066 -0.8587 -1.5373 -1.1410
 5748TIP3   OH217249   4.208   4.747   2.250 -0.3558 -0.0325  0.0758
 5748TIP3    H117250   4.284   4.707   2.292  0.3015  0.2270 -0.8474
 5748TIP3    H217251   4.151   4.673   2.229  0.0181 -0.3116  0.0259
 5749TIP3   OH217252   1.487   0.243   1.625 -0.5200  0.6441  0.3785
 5749TIP3    H117253   1.572   0.279   1.600 -0.3032  0.1274  0.3454
 5749TIP3    H217254   1.494   0.150   1.606 -1.3364  0.7015 -0.2499
 5750TIP3   OH217255   3.722   4.731   0.325 -0.5745 -0.0633  0.5017
 5750TIP3    H117256   3.718   4.648   0.371 -1.9553  0.1235  0.7737
 5750TIP3    H217257   3.651   4.726   0.260 -0.5577  0.8237  0.3982
 5751TIP3   OH217258   2.297   5.746   1.170  0.3630 -0.2380  0.1570
 5751TIP3    H117259   2.324   5.684   1.238  1.0289  0.9502  1.0107
 5751TIP3    H217260   2.204   5.728   1.157  0.2469 -0.5600  1.3051
 5752TIP3   OH217261   3.677   3.010   1.073  0.8421  0.0834 -0.6263
 5752TIP3    H117262   3.600   2.996   1.019  0.4404  2.3121 -0.7279
 5752TIP3    H217263   3.736   3.061   1.018  1.1868  0.8329  0.4113
 5753TIP3   OH217264   0.267   3.494   4.657 -0.0415  0.7611 -0.3367
 5753TIP3    H117265   0.208   3.564   4.684  0.4418  0.6229  1.1388
 5753TIP3    H217266   0.241   3.418   4.709 -1.1646 -0.4914 -2.5618
 5754TIP3   OH217267   5.963   2.996   4.251 -0.2393 -0.0634 -0.1421
 5754TIP3    H117268   5.880   3.044   4.249 -0.0246  0.2994 -0.8331
 5754TIP3    H217269   5.944   2.912   4.210  0.0080  0.5052 -1.4923
 5755TIP3   OH217270   5.080   1.273   4.057 -0.0674  0.5469 -0.1146
 5755TIP3    H117271   5.123   1.350   4.095 -1.9365  0.8715  1.5089
 5755TIP3    H217272   5.139   1.245   3.987  1.3438  2.6261  0.1425
 5756TIP3   OH217273   3.395   1.409   3.130 -0.3700 -0.3099 -0.9846
 5756TIP3    H117274   3.347   1.457   3.198  0.4263  0.7960 -1.1750
 5756TIP3    H217275   3.327   1.376   3.072 -1.1297 -2.0287  0.7846
 5757TIP3   OH217276   3.506   3.482   1.095  0.2130  0.2894 -0.1655
 5757TIP3    H117277   3.496   3.542   1.169 -2.0039  0.1584 -0.2954
 5757TIP3    H217278   3.427   3.493   1.044  0.1051 -2.1259 -0.6447
 5758TIP3   OH217279   0.235   5.773   1.497  0.3676 -0.0442  0.8765
 5758TIP3    H117280   0.185   5.692   1.502  2.1010 -1.0946  3.0542
 5758TIP3    H217281   0.277   5.781   1.582  1.0794  2.6479  0.3871
 5759TIP3   OH217282   6.205   4.586   3.408 -0.3302 -0.4414  0.6684
 5759TIP3    H117283   6.117   4.573   3.443 -0.3837  0.4897  0.8887
 5759TIP3    H217284   6.191   4.613   3.317 -0.2917  0.1658  0.8402
 5760TIP3   OH217285   0.084   3.417   3.734  0.3248 -0.2283  0.3542
 5760TIP3    H117286   0.164   3.368   3.716  1.0359  1.2978 -0.9912
 5760TIP3    H217287   0.023   3.352   3.767  1.9020 -1.5716  0.7836
 5761TIP3   OH217288   5.940   5.104   1.855  0.0974 -0.4551 -0.0298
 5761TIP3    H117289   5.907   5.177   1.907 -0.4748 -0.1488 -0.8065
 5761TIP3    H217290   6.030   5.130   1.833  1.0825 -1.4448  2.3725
 5762TIP3   OH217291   5.059   2.979   2.741  0.1842  0.0299  0.5771
 5762TIP3    H117292   5.145   3.019   2.753  0.2362  0.2238 -0.3838
 5762TIP3    H217293   5.036   2.997   2.650 -0.6087 -0.5486  0.6484
 5763TIP3   OH217294   1.204   5.415   3.551 -0.0582 -0.1425  0.2871
 5763TIP3    H117295   1.121   5.420   3.502  0.6776  0.3445 -0.9698
 5763TIP3    H217296   1.194   5.478   3.622  0.0866  1.7168 -1.2629
 5764TIP3   OH217297   0.715   5.380   2.910 -0.2223 -0.0649  0.0320
 5764TIP3    H117298   0.628   5.417   2.893 -0.1012 -0.8560 -2.9225
 5764TIP3    H217299   0.776   5.451   2.888 -0.0977 -0.2031 -0.0746
 5765TIP3   OH217300   0.820   3.988   2.063  0.1951 -0.8674  0.1895
 5765TIP3    H117301   0.808   4.083   2.054  0.1612 -0.8094  0.7917
 5765TIP3    H217302   0.890   3.967   2.001  0.8272 -0.2897  0.6763
 5766TIP3   OH217303   1.065   0.534   0.865  0.6051  0.2907  0.1468
 5766TIP3    H117304   1.156   0.528   0.838  0.7539 -0.6160  0.8101
 5766TIP3    H217305   1.063   0.495   0.952 -0.5120 -0.1907 -0.0746
 5767TIP3   OH217306   4.223   5.294   4.816  0.3601  0.0568  0.1828
 5767TIP3    H117307   4.271   5.237   4.757 -0.9361 -0.8173 -0.0691
 5767TIP3    H217308   4.290   5.352   4.854  1.7046 -1.5678  0.4083
 5768TIP3   OH217309   0.556   0.248   4.787  0.2913  0.2713 -0.4601
 5768TIP3    H117310   0.512   0.201   4.717  1.2485 -1.1490 -0.1441
 5768TIP3    H217311   0.637   0.280   4.748  0.9916 -0.8162  0.0539
 5769TIP3   OH217312   2.595   4.483   4.037 -0.1394  0.2147  0.0304
 5769TIP3    H117313   2.650   4.406   4.019  0.1843  0.5338 -0.3817
 5769TIP3    H217314   2.646   4.557   4.004 -1.3635  0.4055 -1.5977
 5770TIP3   OH217315   5.284   3.281   1.763  0.2469 -0.1907  0.7783
 5770TIP3    H117316   5.352   3.273   1.830  0.5797 -0.1312  0.4497
 5770TIP3    H217317   5.331   3.301   1.682  0.0430 -2.1925  0.1098
 5771TIP3   OH217318   2.090   0.977   1.011  0.2601  0.2584 -0.1861
 5771TIP3    H117319   2.160   0.959   0.948 -0.0680 -0.4172 -0.3652
 5771TIP3    H217320   2.120   1.054   1.059  2.0258 -1.1512  1.0828
 5772TIP3   OH217321   0.399   3.590   3.850  0.4028 -0.4023  0.3087
 5772TIP3    H117322   0.467   3.530   3.881 -1.2684 -0.9060  3.4439
 5772TIP3    H217323   0.329   3.582   3.915 -2.4997  0.4212 -2.4645
 5773TIP3   OH217324   3.132   0.506   3.282 -0.5107  0.3366 -0.6155
 5773TIP3    H117325   3.213   0.459   3.263 -0.3194 -0.0100  0.9823
 5773TIP3    H217326   3.140   0.587   3.230  0.7882  0.2459 -0.6000
 5774TIP3   OH217327   1.391   2.938   4.961  0.0433  0.2103 -0.0724
 5774TIP3    H117328   1.448   2.925   4.884  1.2140  0.7980  0.6649
 5774TIP3    H217329   1.415   3.025   4.994  1.7847 -1.1948  2.7255
 5775TIP3   OH217330   0.314   1.025   4.331 -0.1062  1.1423  0.5429
 5775TIP3    H117331   0.333   1.043   4.239 -0.4853  0.7573  0.3812
 5775TIP3    H217332   0.396   0.992   4.367 -0.1142  0.7185  0.1839
 5776TIP3   OH217333   4.796   1.618   3.363  0.0884  0.2004  1.0488
 5776TIP3    H117334   4.835   1.698   3.398  0.4373  0.2939  0.4625
 5776TIP3    H217335   4.709   1.645   3.332  0.6141  0.6093 -0.1366
 5777TIP3   OH217336   4.487   1.969   3.838  0.1795  0.0657 -0.0699
 5777TIP3    H117337   4.467   2.061   3.826  1.9584  0.4467 -0.4859
 5777TIP3    H217338   4.561   1.968   3.898 -0.8251 -1.1985  1.2049
 5778TIP3   OH217339   0.039   1.103   0.996 -0.1280 -0.0655 -0.0087
 5778TIP3    H117340  -0.049   1.067   1.009 -0.0597 -0.1082  0.3357
 5778TIP3    H217341   0.088   1.076   1.073 -0.1487  0.9690  0.3791
 5779TIP3   OH217342   1.585   3.618   0.116  0.0632 -0.1524  0.1683
 5779TIP3    H117343   1.492   3.596   0.108 -0.1613  0.3524  1.1523
 5779TIP3    H217344   1.619   3.612   0.027 -0.3875 -2.5757  0.0688
 5780TIP3   OH217345   3.867   2.693   1.021 -0.6024 -0.2881  0.0360
 5780TIP3    H117346   3.958   2.664   1.011  0.0157  1.3215  0.6575
 5780TIP3    H217347   3.843   2.723   0.933 -0.1338  0.3433  0.1169
 5781TIP3   OH217348   4.076   0.674   0.147  0.2192  0.2331  0.1570
 5781TIP3    H117349   4.135   0.715   0.085  0.4104 -0.6849 -0.2837
 5781TIP3    H217350   4.051   0.745   0.207  0.7371  0.9196 -0.4207
 5782TIP3   OH217351   2.268   5.869   3.547 -0.1252 -0.6423  0.1259
 5782TIP3    H117352   2.303   5.922   3.619 -2.3913  0.7792  0.2640
 5782TIP3    H217353   2.282   5.922   3.469  0.2885 -1.1837 -0.1727
 5783TIP3   OH217354   6.171   0.205   0.325  0.3163 -0.0888  0.2188
 5783TIP3    H117355   6.168   0.289   0.369  0.2637 -0.5104  1.0368
 5783TIP3    H217356   6.098   0.207   0.263  0.0446  0.2957  0.5465
 5784TIP3   OH217357   4.342   5.164   1.355  0.6333 -0.1593 -0.5750
 5784TIP3    H117358   4.368   5.113   1.278  1.8570 -1.3100  0.5587
 5784TIP3    H217359   4.315   5.099   1.419  1.3370  0.6574  0.5904
 5785TIP3   OH217360   0.986   2.925   3.124  0.5777 -0.2837 -0.2960
 5785TIP3    H117361   1.002   3.019   3.130  0.3906 -0.2100 -0.8860
 5785TIP3    H217362   0.905   2.917   3.074 -0.7156 -0.6944  1.7711
 5786TIP3   OH217363   5.473   5.347   0.457  0.3982 -0.2491 -0.3149
 5786TIP3    H117364   5.412   5.356   0.384 -1.0068 -0.8039  0.7127
 5786TIP3    H217365   5.538   5.284   0.427  1.0611  1.0869 -1.7962
 5787TIP3   OH217366   3.914   1.363   1.741  0.1609 -0.2128  0.0606
 5787TIP3    H117367   3.844   1.327   1.686  0.0356  0.0824  0.0256
 5787TIP3    H217368   3.951   1.286   1.785  0.4719 -0.5019 -0.6781
 5788TIP3   OH217369   5.210   3.091  -0.005 -0.4130  0.3196  0.3458
 5788TIP3    H117370   5.252   3.176   0.009 -0.2431  0.5076 -1.2292
 5788TIP3    H217371   5.275   3.027   0.026 -1.1870  0.7355  3.1703
 5789TIP3   OH217372   1.866   4.124   1.017 -0.7128 -0.0748 -0.0731
 5789TIP3    H117373   1.785   4.111   1.067 -0.0667 -1.1188  0.7379
 5789TIP3    H217374   1.921   4.178   1.073 -0.3245 -0.4994 -0.0417
 5790TIP3   OH217375   0.210   3.159   3.215 -0.3353 -0.0920  0.0038
 5790TIP3    H117376   0.207   3.211   3.295  0.1802 -0.7955  0.4991
 5790TIP3    H217377   0.166   3.077   3.239 -2.3534  0.5944 -1.1541
 5791TIP3   OH217378   1.095  -0.009   0.034  0.3764 -0.7231 -0.4510
 5791TIP3    H117379   1.012   0.040   0.038  0.7178 -0.0951 -0.8240
 5791TIP3    H217380   1.131  -0.002   0.122  1.1009  0.9483 -0.8302
 5792TIP3   OH217381   2.496   0.562   1.355  0.1149  0.7207 -0.1196
 5792TIP3    H117382   2.536   0.494   1.410  1.2462  1.7287  0.3631
 5792TIP3    H217383   2.428   0.600   1.410 -1.7551 -1.1441 -1.0190
 5793TIP3   OH217384   0.252   2.409   4.518  0.2273 -0.0980  0.2017
 5793TIP3    H117385   0.306   2.467   4.572 -1.2381  2.1103 -0.5543
 5793TIP3    H217386   0.275   2.432   4.428  1.0804 -2.2145 -0.1854
 5794TIP3   OH217387   2.173   4.139   1.915 -0.9037  0.2927 -0.6443
 5794TIP3    H117388   2.233   4.148   1.841 -1.1686 -0.4704 -0.9634
 5794TIP3    H217389   2.109   4.074   1.886 -0.1462 -1.1546  0.7944
 5795TIP3   OH217390   4.659   5.061   0.181 -0.0675  0.4572  0.3224
 5795TIP3    H117391   4.683   4.974   0.149  0.5437  0.4409  0.8052
 5795TIP3    H217392   4.580   5.047   0.234 -0.3624  0.3026 -0.1571
 5796TIP3   OH217393   1.412   0.258   0.888 -0.7359 -0.1669 -0.2609
 5796TIP3    H117394   1.428   0.233   0.797 -4.0429 -2.9472 -0.2515
 5796TIP3    H217395   1.348   0.329   0.883  0.5591  1.0719 -0.0431
 5797TIP3   OH217396   5.505   2.634   0.364 -0.4744 -0.3033 -0.4756
 5797TIP3    H117397   5.486   2.570   0.433  1.5168 -0.6209 -0.1520
 5797TIP3    H217398   5.565   2.588   0.305  0.7922  1.1553 -0.3828
 5798TIP3   OH217399   2.360   2.067   2.865  0.1487 -0.4896 -0.1450
 5798TIP3    H117400   2.277   2.106   2.839 -0.0168 -0.4938  0.3748
 5798TIP3    H217401   2.386   2.116   2.944  0.7735 -0.3030 -0.4567
 5799TIP3   OH217402   2.631   2.065   2.102  0.5766 -0.3985  0.0620
 5799TIP3    H117403   2.688   2.142   2.092  0.1451 -0.1412 -0.4431
 5799TIP3    H217404   2.627   2.051   2.197  0.2058  0.5461  0.1950
 5800TIP3   OH217405   4.554   5.724   3.267  0.0171 -0.2090 -0.6567
 5800TIP3    H117406   4.486   5.790   3.253 -0.1832 -0.0687  0.8000
 5800TIP3    H217407   4.626   5.751   3.210  0.5349  2.1668  1.0005
 5801TIP3   OH217408   3.626   1.109   4.098  0.1565 -0.4815 -0.4741
 5801TIP3    H117409   3.721   1.116   4.095  0.1312 -0.1594 -0.5284
 5801TIP3    H217410   3.603   1.119   4.190  0.1188  0.2004 -0.5522
 5802TIP3   OH217411   3.916   0.897   0.537 -0.2984  0.0893 -0.0629
 5802TIP3    H117412   3.928   0.991   0.547  1.4634 -0.3198  2.3736
 5802TIP3    H217413   3.903   0.864   0.626  0.3903 -2.1274 -0.7199
 5803TIP3   OH217414   1.136   4.579   2.773 -0.1009 -0.4547  0.5136
 5803TIP3    H117415   1.193   4.624   2.711  0.6129 -0.0553  1.4415
 5803TIP3    H217416   1.165   4.609   2.859  0.6581 -2.9658  1.2097
 5804TIP3   OH217417   2.826   4.307   1.257  0.1098 -0.3967  0.1943
 5804TIP3    H117418   2.913   4.306   1.297  0.2631  0.8445 -0.0580
 5804TIP3    H217419   2.786   4.388   1.288  0.9108  1.6220 -3.3997
 5805TIP3   OH217420   2.040   5.948   2.250 -0.0659 -0.1742 -0.0334
 5805TIP3    H117421   1.998   6.010   2.310  1.2790  0.4170  0.3137
 5805TIP3    H217422   1.969   5.888   2.226 -0.7627 -0.1600  1.7948
 5806TIP3   OH217423   5.373   3.561   2.267  0.0156  0.3440  0.0996
 5806TIP3    H117424   5.322   3.501   2.212 -2.4466  0.7708  1.7443
 5806TIP3    H217425   5.381   3.516   2.351  1.8622  0.5915  0.0968
 5807TIP3   OH217426   2.856   3.696   4.533 -0.4201 -0.3616  0.1398
 5807TIP3    H117427   2.792   3.717   4.600  0.7160  2.8509  0.3570
 5807TIP3    H217428   2.837   3.755   4.460  1.9734  0.4360  0.0527
 5808TIP3   OH217429   4.014   5.197   2.539  0.1388  0.1822  0.0570
 5808TIP3    H117430   4.075   5.162   2.605 -0.0014  2.0026  1.2433
 5808TIP3    H217431   4.071   5.234   2.472  0.3989  1.4653  0.9360
 5809TIP3   OH217432   2.274   5.138   2.106 -0.1127  0.2643  0.4912
 5809TIP3    H117433   2.355   5.104   2.146  0.7944  0.6512 -0.9398
 5809TIP3    H217434   2.220   5.060   2.091  1.0011 -0.3138 -0.6985
 5810TIP3   OH217435   1.820   3.662   4.168  0.3175  0.7941  0.2274
 5810TIP3    H117436   1.859   3.750   4.168 -2.5488  2.1725  0.8692
 5810TIP3    H217437   1.828   3.633   4.077  1.1139  1.8071 -0.0544
 5811TIP3   OH217438   2.305   0.328   2.369  0.4770 -0.5718  0.3510
 5811TIP3    H117439   2.381   0.311   2.424  0.2617  0.2321  0.9225
 5811TIP3    H217440   2.242   0.261   2.393  1.5495 -2.2856 -1.2924
 5812TIP3   OH217441   1.581   5.492   2.581  0.2286  0.1726 -0.3671
 5812TIP3    H117442   1.548   5.420   2.527 -1.0621 -0.0191  0.6244
 5812TIP3    H217443   1.503   5.525   2.626  1.1313  0.8667  0.7259
 5813TIP3   OH217444   4.257   1.097   0.028 -0.4112 -0.2475 -0.4077
 5813TIP3    H117445   4.166   1.068   0.018 -0.5826  0.3583 -0.6970
 5813TIP3    H217446   4.281   1.070   0.116 -1.8241  2.0519  0.7930
 5814TIP3   OH217447   2.271   1.518   3.595 -0.1687 -0.3210  0.0467
 5814TIP3    H117448   2.251   1.566   3.515 -1.1349 -2.5684 -1.1590
 5814TIP3    H217449   2.208   1.551   3.659  0.7648  1.6651 -0.0044
 5815TIP3   OH217450   0.784   5.878   1.041 -0.1102 -0.5232  0.4754
 5815TIP3    H117451   0.735   5.797   1.055 -0.9008 -0.1261  0.1337
 5815TIP3    H217452   0.761   5.933   1.115 -0.6858 -0.1097  0.0048
 5816TIP3   OH217453   3.360   3.074   4.262 -0.0118 -0.1798  0.5035
 5816TIP3    H117454   3.362   3.169   4.272  0.4798 -0.3406  2.2481
 5816TIP3    H217455   3.358   3.041   4.352 -0.2342 -1.8234 -0.0805
 5817TIP3   OH217456   1.388   1.393   2.727  0.4727 -0.1563  0.0829
 5817TIP3    H117457   1.452   1.382   2.657  0.6503 -0.5017  0.3006
 5817TIP3    H217458   1.413   1.329   2.793 -0.2545 -0.4675  0.0568
 5818TIP3   OH217459   0.317   3.228   0.118 -0.5524 -0.1903 -0.7920
 5818TIP3    H117460   0.329   3.312   0.162 -0.8525 -0.6558  0.1951
 5818TIP3    H217461   0.384   3.170   0.155 -1.4871 -0.8881 -0.1546
 5819TIP3   OH217462   0.794   0.714   1.424  0.6735 -0.3329 -0.4056
 5819TIP3    H117463   0.766   0.806   1.416  1.4650 -0.1606 -1.5255
 5819TIP3    H217464   0.762   0.673   1.344  0.1473 -1.0934  0.1848
 5820TIP3   OH217465   4.815   0.483   3.080  0.1510  0.3036 -0.6698
 5820TIP3    H117466   4.828   0.501   2.987  0.5203 -1.2292 -0.9507
 5820TIP3    H217467   4.723   0.460   3.088 -0.1517  1.5387 -0.4369
 5821TIP3   OH217468   5.352   3.514   4.456 -0.1406 -0.3654 -0.0270
 5821TIP3    H117469   5.276   3.541   4.507  0.5112 -0.1264  0.8498
 5821TIP3    H217470   5.407   3.593   4.451  0.1884 -0.6106 -0.3967
 5822TIP3   OH217471   5.776   3.675   2.803  0.6034 -0.1944  0.7248
 5822TIP3    H117472   5.854   3.658   2.750 -0.6273  1.3607 -1.7495
 5822TIP3    H217473   5.709   3.699   2.740 -1.1715  1.1397  2.9747
 5823TIP3   OH217474   5.137   4.624   1.451 -0.0683  0.0924  0.6868
 5823TIP3    H117475   5.191   4.642   1.374 -1.8127 -0.6745 -0.8038
 5823TIP3    H217476   5.072   4.695   1.452 -0.5856 -0.3732  0.9192
 5824TIP3   OH217477   5.186   3.798   2.523  0.4648 -0.0993  0.0004
 5824TIP3    H117478   5.093   3.795   2.504  0.1830  0.6649  1.1337
 5824TIP3    H217479   5.213   3.707   2.530 -0.4414 -0.3157  0.7761
 5825TIP3   OH217480   6.230   3.361   4.773  0.6547 -0.7065  0.5247
 5825TIP3    H117481   6.221   3.321   4.686 -0.4058  1.4357 -0.4278
 5825TIP3    H217482   6.315   3.406   4.771 -0.1722  0.9088 -0.1537
 5826TIP3   OH217483   0.359   4.799   0.352 -0.2238 -0.9869  0.2435
 5826TIP3    H117484   0.355   4.704   0.340  0.1616 -0.8126 -1.7235
 5826TIP3    H217485   0.434   4.826   0.298 -1.7392  0.6717 -1.1386
 5827TIP3   OH217486   3.991   5.644   2.837  0.0687  0.0973 -0.1520
 5827TIP3    H117487   4.017   5.553   2.821  0.1791 -0.1566  1.3291
 5827TIP3    H217488   3.917   5.658   2.778 -2.1639 -2.0739  1.8734
 5828TIP3   OH217489   5.885   0.334   2.807  0.0613 -0.6491 -0.2003
 5828TIP3    H117490   5.921   0.250   2.837  1.0626 -0.0690  0.2769
 5828TIP3    H217491   5.809   0.310   2.755  0.0998 -1.8414  0.2532
 5829TIP3   OH217492   4.891   5.870   4.016 -0.3325  0.1396  0.1895
 5829TIP3    H117493   4.806   5.910   3.994 -1.2370 -0.8258  1.7217
 5829TIP3    H217494   4.906   5.806   3.947 -0.9601  0.1930 -0.0016
 5830TIP3   OH217495   2.186   2.494   3.065  0.0754 -0.0774  0.0205
 5830TIP3    H117496   2.163   2.569   3.009 -2.5783  0.2748  1.4464
 5830TIP3    H217497   2.126   2.425   3.038  3.3508 -2.3510 -2.2111
 5831TIP3   OH217498   3.995   0.511   2.937 -0.6586 -0.2590 -0.0767
 5831TIP3    H117499   3.951   0.595   2.925  1.2831  0.7149 -0.7447
 5831TIP3    H217500   3.997   0.472   2.850 -0.2446 -0.2984 -0.0528
 5832TIP3   OH217501   0.589   4.056   3.997  0.2393 -0.7701  0.8565
 5832TIP3    H117502   0.630   4.108   3.928 -0.3698  0.0026  1.0488
 5832TIP3    H217503   0.563   3.974   3.955 -1.1252  0.1306 -0.1432
 5833TIP3   OH217504   2.518   5.763   2.609  0.8255 -0.4441 -0.6213
 5833TIP3    H117505   2.538   5.838   2.552 -0.2561 -0.2024 -0.7023
 5833TIP3    H217506   2.561   5.785   2.692  0.5904  0.2361 -0.6685
 5834TIP3   OH217507   1.869   2.051   4.714  0.5306  0.4656 -0.1479
 5834TIP3    H117508   1.915   2.131   4.738 -2.6897  3.1112 -1.9311
 5834TIP3    H217509   1.807   2.036   4.787  2.0787 -1.4046  0.8870
 5835TIP3   OH217510   1.297   1.386   3.032  0.7546 -0.3473  0.3906
 5835TIP3    H117511   1.368   1.360   2.974  0.0267 -0.8836 -0.2763
 5835TIP3    H217512   1.341   1.421   3.110  1.7428 -0.0938 -0.2626
 5836TIP3   OH217513   0.165   3.624   3.394  0.2776 -0.0115 -0.1251
 5836TIP3    H117514   0.098   3.691   3.405 -0.9951 -1.0490 -1.2559
 5836TIP3    H217515   0.232   3.647   3.458 -1.7451  0.2929  2.0091
 5837TIP3   OH217516   0.226   3.394   2.956  0.6387 -0.0934 -0.1406
 5837TIP3    H117517   0.216   3.480   2.996  0.8238 -0.3284  0.4173
 5837TIP3    H217518   0.149   3.345   2.984  0.8019 -0.2800 -0.0119
 5838TIP3   OH217519   1.250   2.924   2.044  0.1591 -0.0826  0.5865
 5838TIP3    H117520   1.190   2.920   2.119 -0.1913 -0.3337  0.2988
 5838TIP3    H217521   1.199   2.968   1.976  0.4332  0.0373  0.4607
 5839TIP3   OH217522   1.933   5.542   4.892 -0.2644 -0.2057 -0.0131
 5839TIP3    H117523   1.994   5.613   4.871 -1.4916  1.1205  0.7511
 5839TIP3    H217524   1.850   5.570   4.855 -1.0855 -0.5984  1.4473
 5840TIP3   OH217525   5.845   1.751   3.064 -0.0185  0.4812  0.1214
 5840TIP3    H117526   5.805   1.721   2.983  0.1030 -1.0563  0.5802
 5840TIP3    H217527   5.935   1.772   3.040  0.0938 -0.2248 -0.1146
 5841TIP3   OH217528   3.134   0.448   2.901  0.5629 -0.0488 -0.6265
 5841TIP3    H117529   3.090   0.409   2.977  1.5596 -0.4497 -0.2328
 5841TIP3    H217530   3.072   0.436   2.829 -0.4938  0.5463  0.1644
 5842TIP3   OH217531   1.103   2.346   4.085  0.1059 -0.1875  0.3739
 5842TIP3    H117532   1.018   2.383   4.108  0.5778  1.1105  0.1234
 5842TIP3    H217533   1.089   2.304   4.000 -0.4134 -0.4959  0.6066
 5843TIP3   OH217534   2.799   3.815   0.827  0.5069  0.3467  0.0703
 5843TIP3    H117535   2.862   3.744   0.813  0.1496  0.1995 -0.8354
 5843TIP3    H217536   2.755   3.825   0.743  0.4060  1.5116  0.2500
 5844TIP3   OH217537   0.389   2.755   2.841 -0.2893  0.1854  0.3990
 5844TIP3    H117538   0.371   2.824   2.777  0.0551  1.0156  1.1754
 5844TIP3    H217539   0.475   2.721   2.816  0.3527  1.2674  1.0524
 5845TIP3   OH217540   0.669   2.252   2.060  0.0417 -0.0832 -0.3507
 5845TIP3    H117541   0.588   2.301   2.050  0.7435  1.1232 -0.3221
 5845TIP3    H217542   0.730   2.315   2.099 -0.0154 -1.9596  3.1349
 5846TIP3   OH217543   0.103   2.935   3.327  0.2112  0.0710  0.1736
 5846TIP3    H117544   0.015   2.916   3.297 -0.4533  0.4410  1.8070
 5846TIP3    H217545   0.124   2.864   3.388  0.4219  0.8161  0.9832
 5847TIP3   OH217546   1.246   1.807   4.766  0.1801  0.4960  0.3574
 5847TIP3    H117547   1.316   1.746   4.789  0.1733  0.1618 -0.4733
 5847TIP3    H217548   1.286   1.894   4.776  0.3848  0.3410  0.9128
 5848TIP3   OH217549   1.771   1.470   1.713  0.4195  0.2277 -0.2634
 5848TIP3    H117550   1.756   1.404   1.645 -2.5012  0.4722 -0.0004
 5848TIP3    H217551   1.790   1.550   1.664 -1.5505  0.3796 -0.8931
 5849TIP3   OH217552   3.562   4.037   1.705  0.4921  0.1493 -0.2930
 5849TIP3    H117553   3.473   4.001   1.695  0.6523 -0.2140 -0.4220
 5849TIP3    H217554   3.602   4.027   1.619  1.0930 -0.8733  0.0860
 5850TIP3   OH217555   2.095   0.652   3.792 -0.3487  0.4777  0.4568
 5850TIP3    H117556   2.030   0.699   3.741 -0.1848  2.0368  1.5931
 5850TIP3    H217557   2.062   0.563   3.798 -0.9974  0.5714 -1.2453
 5851TIP3   OH217558   3.577   4.192   0.161  0.9429 -0.4454  0.4583
 5851TIP3    H117559   3.654   4.138   0.142  0.9890 -0.5426  0.9081
 5851TIP3    H217560   3.511   4.163   0.099  1.7631  0.7349 -1.0203
 5852TIP3   OH217561   0.462   3.070   2.631  0.0589 -0.4562  0.8692
 5852TIP3    H117562   0.470   3.143   2.692 -2.7204  0.5544  0.1826
 5852TIP3    H217563   0.542   3.018   2.644  1.4764  1.9265  2.3676
 5853TIP3   OH217564   4.948   0.297   1.393  0.4104 -0.9996 -0.2841
 5853TIP3    H117565   4.958   0.302   1.298 -1.9182 -1.4333 -0.6212
 5853TIP3    H217566   5.037   0.281   1.426  1.6471  1.3332 -2.1690
 5854TIP3   OH217567   2.220   5.460   3.607 -0.0292  0.4438  0.2953
 5854TIP3    H117568   2.242   5.548   3.578  1.1599  0.4938  1.3096
 5854TIP3    H217569   2.209   5.466   3.701  1.9966 -0.8350  0.6754
 5855TIP3   OH217570   3.948   5.719   4.372 -0.6810 -0.6044  0.0481
 5855TIP3    H117571   3.964   5.641   4.426  1.5508  0.6696  1.3566
 5855TIP3    H217572   4.028   5.730   4.320 -1.0062  0.7417 -0.2065
 5856TIP3   OH217573   1.883   0.795   1.224  0.0290 -0.1532  0.0461
 5856TIP3    H117574   1.952   0.741   1.185  0.7867 -0.7534  2.0797
 5856TIP3    H217575   1.816   0.733   1.252  0.4637 -0.0004  1.5295
 5857TIP3   OH217576   2.792   1.186   2.656  0.1111 -0.4478  0.1652
 5857TIP3    H117577   2.743   1.219   2.731  2.0431  2.7965  0.2225
 5857TIP3    H217578   2.863   1.135   2.694  2.6758  3.3434  1.0003
 5858TIP3   OH217579   6.100   5.781   5.026  0.5969 -0.3880  0.3336
 5858TIP3    H117580   6.163   5.852   5.034 -0.0938  0.2730  0.0568
 5858TIP3    H217581   6.109   5.731   5.108  0.3355  0.6519  1.0141
 5859TIP3   OH217582   4.813   3.005   2.508  0.3455 -0.1373  0.0483
 5859TIP3    H117583   4.847   3.042   2.427  0.4403 -0.8052 -0.2219
 5859TIP3    H217584   4.809   2.911   2.492  1.2956 -0.3960  1.1427
 5860TIP3   OH217585   1.377   3.663   3.150 -0.2972 -0.9536 -0.0147
 5860TIP3    H117586   1.449   3.688   3.207 -1.4682 -0.5131  1.3511
 5860TIP3    H217587   1.417   3.648   3.065  1.3152 -0.2515  0.5825
 5861TIP3   OH217588   0.408   0.654   4.186 -0.1794  0.0190 -0.1678
 5861TIP3    H117589   0.319   0.681   4.166 -0.0920  1.1238  0.8161
 5861TIP3    H217590   0.464   0.711   4.133 -0.0312  0.5937  0.5874
 5862TIP3   OH217591   2.576   0.060   3.386 -0.0863  0.6318  0.1390
 5862TIP3    H117592   2.556   0.141   3.433  1.2764  1.0977 -0.0336
 5862TIP3    H217593   2.653   0.082   3.332 -0.1321 -0.5733 -0.4533
 5863TIP3   OH217594   2.918   5.307   0.853  0.3028  0.8063  0.0325
 5863TIP3    H117595   2.984   5.239   0.859  0.0409  0.6019  0.6948
 5863TIP3    H217596   2.963   5.382   0.814  0.5886  0.2580 -0.7139
 5864TIP3   OH217597   0.359   4.630   2.495  0.2220  0.5975  0.2486
 5864TIP3    H117598   0.425   4.657   2.559  0.4588  0.1110  0.2183
 5864TIP3    H217599   0.334   4.542   2.522  2.5882 -0.9447 -2.0431
 5865TIP3   OH217600   4.832   4.416   0.200  0.3126  0.3354  0.3549
 5865TIP3    H117601   4.872   4.497   0.166  0.8181  1.0241  2.4506
 5865TIP3    H217602   4.739   4.436   0.205  0.4465  0.8523  0.9593
 5866TIP3   OH217603   6.136   4.198   5.025 -0.5589 -0.1524  0.4702
 5866TIP3    H117604   6.224   4.182   4.991 -1.0307  0.3516 -1.0822
 5866TIP3    H217605   6.083   4.129   4.986 -0.4792 -2.1115  3.4658
 5867TIP3   OH217606   1.608   1.612   1.008  0.5538  0.4829 -0.1917
 5867TIP3    H117607   1.641   1.702   1.005 -0.3016  0.8100 -0.1014
 5867TIP3    H217608   1.682   1.558   0.981  2.0248  0.9548  2.5757
 5868TIP3   OH217609   5.559   5.941   4.036  0.0978 -0.6500  0.1190
 5868TIP3    H117610   5.491   5.887   3.996  1.2420 -2.6171  0.6705
 5868TIP3    H217611   5.565   5.909   4.127 -1.9785  3.2283  1.8699
 5869TIP3   OH217612   2.109   2.941   3.161 -0.2074 -0.0072 -0.6060
 5869TIP3    H117613   2.021   2.910   3.143  0.2629 -1.9652  0.1920
 5869TIP3    H217614   2.106   2.972   3.252  0.0301 -0.5558 -0.4059
 5870TIP3   OH217615   0.556   0.572   0.387  0.0308  0.3632  0.4138
 5870TIP3    H117616   0.501   0.506   0.428 -0.7292  0.7389  0.0318
 5870TIP3    H217617   0.645   0.540   0.397 -0.3935 -1.2883 -0.7736
 5871TIP3   OH217618   0.242   4.368   1.161  0.3514 -0.0938  0.5359
 5871TIP3    H117619   0.214   4.451   1.198  3.0419  0.5823  1.3056
 5871TIP3    H217620   0.331   4.385   1.130  0.3073 -2.2278 -0.9679
 5872TIP3   OH217621   0.719   5.310   4.247  0.2429  0.4312  0.0764
 5872TIP3    H117622   0.758   5.391   4.281  1.5787 -0.7336  1.4643
 5872TIP3    H217623   0.750   5.304   4.157 -0.8016  1.9907 -0.4413
 5873TIP3   OH217624   0.908   5.549   2.386  0.5046 -0.3751  0.4742
 5873TIP3    H117625   0.908   5.566   2.480  0.4425  0.2341  0.3697
 5873TIP3    H217626   0.849   5.615   2.350  0.9373 -0.2647 -0.0516
 5874TIP3   OH217627   3.344   1.236   4.939  0.1377  0.6379  0.2490
 5874TIP3    H117628   3.315   1.300   4.874  0.3832  2.4163  1.8125
 5874TIP3    H217629   3.408   1.183   4.893 -1.3095  0.3678 -1.5946
 5875TIP3   OH217630   3.319   3.891   1.673  0.1660  0.7042  0.3408
 5875TIP3    H117631   3.237   3.901   1.720 -0.6790  0.3223 -1.0007
 5875TIP3    H217632   3.296   3.905   1.581  1.3756 -0.5500 -0.1886
 5876TIP3   OH217633   3.257   3.023   3.411  0.2216  0.0847 -0.6004
 5876TIP3    H117634   3.280   3.097   3.355  1.1724  0.7404  0.6101
 5876TIP3    H217635   3.223   3.063   3.491  0.0517 -0.8136 -0.2037
 5877TIP3   OH217636   6.254   5.941   1.155  0.1155  0.6559 -0.3204
 5877TIP3    H117637   6.256   5.845   1.158 -0.8060  0.6436  0.6656
 5877TIP3    H217638   6.318   5.969   1.219  1.9579  0.7585 -2.1115
 5878TIP3   OH217639   1.719   5.309   5.078 -0.6957 -0.0688  1.2988
 5878TIP3    H117640   1.796   5.312   5.134  0.7802 -0.7785 -0.5758
 5878TIP3    H217641   1.666   5.238   5.114  1.6694 -2.6149  0.1714
 5879TIP3   OH217642   4.829   5.265   2.962  0.0675 -0.3127  0.1693
 5879TIP3    H117643   4.755   5.285   2.904 -0.3764 -1.3230  0.3661
 5879TIP3    H217644   4.897   5.232   2.903  0.5104  0.9789 -0.0580
 5880TIP3   OH217645   4.075   1.134   1.237  0.3157  0.3151 -0.0990
 5880TIP3    H117646   4.052   1.182   1.316  0.5684 -3.7870  2.7839
 5880TIP3    H217647   3.991   1.103   1.203  0.3580 -0.0119  0.0856
 5881TIP3   OH217648   3.326   1.992   1.114 -0.2537 -0.1608  0.3341
 5881TIP3    H117649   3.265   1.993   1.188 -0.4164 -0.7186  0.2086
 5881TIP3    H217650   3.272   2.008   1.037 -0.4802 -2.0482  0.0605
 5882TIP3   OH217651   3.642   2.897   1.524 -0.3714 -0.0102 -0.6322
 5882TIP3    H117652   3.709   2.878   1.589 -0.5219  2.6179  0.4196
 5882TIP3    H217653   3.681   2.867   1.441  1.5983  0.3359  0.0969
 5883TIP3   OH217654   2.411   2.635   4.060  0.4254  0.0163  0.1428
 5883TIP3    H117655   2.461   2.622   4.140 -0.1403 -3.3348  0.0967
 5883TIP3    H217656   2.433   2.559   4.006 -1.6474  0.5225 -1.5348
 5884TIP3   OH217657   2.115   3.713   1.626 -0.3046 -0.1232 -0.1488
 5884TIP3    H117658   2.171   3.764   1.685 -0.1319 -1.6195  1.0320
 5884TIP3    H217659   2.167   3.636   1.603 -0.0617  0.7526 -2.9464
 5885TIP3   OH217660   2.722   4.258   3.939 -0.2089  0.1994  0.5031
 5885TIP3    H117661   2.811   4.269   3.974 -0.1921 -2.1893  1.3925
 5885TIP3    H217662   2.735   4.235   3.847  0.1555 -0.7573  0.7829
 5886TIP3   OH217663   5.967   0.614   4.303 -0.2905 -0.0546  0.3236
 5886TIP3    H117664   6.022   0.540   4.277 -1.0845 -0.8633  0.8704
 5886TIP3    H217665   5.896   0.614   4.239 -0.8945 -0.4809  0.9792
 5887TIP3   OH217666   3.575   2.611   1.539  0.2555 -0.4432  0.4843
 5887TIP3    H117667   3.583   2.607   1.634  1.1470  2.2193  0.5995
 5887TIP3    H217668   3.636   2.545   1.507  0.1149 -1.2113  1.7479
 5888TIP3   OH217669   6.189   0.421   0.766  0.7581 -0.2162 -0.2587
 5888TIP3    H117670   6.095   0.423   0.781  1.0134  1.3688  1.4300
 5888TIP3    H217671   6.209   0.328   0.750 -1.0975 -0.5379 -0.8660
 5889TIP3   OH217672   6.142   4.166   4.476 -0.2972 -0.4536 -0.1388
 5889TIP3    H117673   6.094   4.202   4.550  1.6230  0.6213  0.6653
 5889TIP3    H217674   6.147   4.239   4.413 -0.5310 -0.8490 -0.6219
 5890TIP3   OH217675   0.319   0.679   0.738  0.6904  0.1386 -0.1270
 5890TIP3    H117676   0.396   0.634   0.771  0.5464 -0.2808 -0.3582
 5890TIP3    H217677   0.245   0.637   0.783  0.5359 -0.0365 -0.5420
 5891TIP3   OH217678   0.296   5.963   2.731  0.0087  0.0376  0.0605
 5891TIP3    H117679   0.201   5.964   2.743  0.1940  0.4536  1.5803
 5891TIP3    H217680   0.330   6.022   2.797  1.3575 -0.2291 -0.3598
 5892TIP3   OH217681   5.437   1.529   0.308  0.0246 -0.2881  0.2455
 5892TIP3    H117682   5.510   1.500   0.362  0.5412  0.1156 -0.2229
 5892TIP3    H217683   5.363   1.537   0.368  0.6318  0.3152  0.9261
 5893TIP3   OH217684   2.892   1.223   3.453 -0.1366  0.2455 -0.5346
 5893TIP3    H117685   2.986   1.220   3.434  0.1516  0.4804  0.7674
 5893TIP3    H217686   2.885   1.200   3.545 -1.2692  1.2000 -0.3587
 5894TIP3   OH217687   1.223   4.421   4.152  0.3442 -0.1670 -0.3634
 5894TIP3    H117688   1.167   4.356   4.195 -1.1517  0.7541 -0.8839
 5894TIP3    H217689   1.272   4.370   4.087  0.2448 -1.0061  0.1977
 5895TIP3   OH217690   0.025   0.654   3.506 -0.1858  0.3115 -0.5353
 5895TIP3    H117691   0.049   0.721   3.443 -1.5089  3.0903  1.7100
 5895TIP3    H217692  -0.064   0.629   3.481  0.0026 -0.0307 -0.8791
 5896TIP3   OH217693   5.420   1.199   4.596 -0.2995 -0.4988  0.0985
 5896TIP3    H117694   5.497   1.205   4.654  0.1639  1.7436 -0.6366
 5896TIP3    H217695   5.417   1.107   4.571  1.1724 -0.9776  1.4482
 5897TIP3   OH217696   4.361   1.525   3.393  0.6717  0.0229  0.4289
 5897TIP3    H117697   4.395   1.602   3.346 -0.2720 -0.3383 -0.9160
 5897TIP3    H217698   4.277   1.507   3.351 -0.1968 -0.3716  2.2692
 5898TIP3   OH217699   4.967   3.835   0.555 -0.0403 -0.2526  0.1281
 5898TIP3    H117700   4.932   3.822   0.643 -1.2782  0.5376 -0.2165
 5898TIP3    H217701   4.998   3.749   0.528  0.3469 -0.4992  1.3301
 5899TIP3   OH217702   3.380   5.508   5.016 -0.4901 -0.2355  0.3005
 5899TIP3    H117703   3.363   5.422   5.054  2.3134 -0.9507  0.1694
 5899TIP3    H217704   3.327   5.568   5.068 -0.6938 -1.7732  1.9689
 5900TIP3   OH217705   1.067   1.271   1.818  0.2470 -0.6496 -0.2966
 5900TIP3    H117706   1.124   1.212   1.867  1.2584 -1.7376 -2.6472
 5900TIP3    H217707   1.019   1.214   1.758 -1.4041  0.5600 -0.2031
 5901TIP3   OH217708   4.049   2.769   4.789  0.0162  0.9943 -0.1857
 5901TIP3    H117709   4.044   2.864   4.778 -0.4968  1.0941  0.8153
 5901TIP3    H217710   4.103   2.757   4.868 -1.2698  0.5155  0.6428
 5902TIP3   OH217711   3.521   3.947   4.304  0.1443 -0.1075 -0.6241
 5902TIP3    H117712   3.482   3.936   4.391 -0.0654 -0.0681 -0.7112
 5902TIP3    H217713   3.614   3.931   4.317  0.5320  2.3834  0.0970
 5903TIP3   OH217714   5.516   4.308   1.675  0.5124  0.2154  0.4572
 5903TIP3    H117715   5.579   4.371   1.641 -0.0972  0.4758 -0.1981
 5903TIP3    H217716   5.438   4.359   1.694 -0.1043 -0.3880 -0.3939
 5904TIP3   OH217717   2.962   1.216   0.998 -0.2047  0.2279 -0.0171
 5904TIP3    H117718   2.992   1.208   1.089 -2.6464 -3.2339  0.6647
 5904TIP3    H217719   3.024   1.163   0.947  1.0518  2.0142 -0.4429
 5905TIP3   OH217720   2.655   2.634   0.649  0.2279 -0.7315 -0.3924
 5905TIP3    H117721   2.590   2.698   0.676  2.6232  1.6134  0.1613
 5905TIP3    H217722   2.671   2.653   0.557  1.5154  0.0591 -0.0285
 5906TIP3   OH217723   3.327   2.096   3.353  0.0431 -0.0680  0.7237
 5906TIP3    H117724   3.346   2.143   3.272 -0.2496 -1.1491  0.0098
 5906TIP3    H217725   3.409   2.100   3.403  0.4705 -0.0683  0.0280
 5907TIP3   OH217726   4.307   0.101   3.123 -0.3479  0.2763  0.3230
 5907TIP3    H117727   4.254   0.135   3.195  1.8606  0.4959  1.9508
 5907TIP3    H217728   4.255   0.118   3.045 -1.2675  3.4602  1.4832
 5908TIP3   OH217729   4.161   5.735   4.217 -0.7401 -0.2471 -0.1513
 5908TIP3    H117730   4.141   5.755   4.125 -0.4206 -1.6973 -0.5636
 5908TIP3    H217731   4.196   5.646   4.215  2.4240  0.8227  0.9363
 5909TIP3   OH217732   0.566   4.797   5.044 -0.4280  0.4242  0.4451
 5909TIP3    H117733   0.580   4.713   5.088 -0.3471 -0.4522 -1.1473
 5909TIP3    H217734   0.653   4.826   5.020 -0.4455  1.0546  1.1111
 5910TIP3   OH217735   3.906   0.547   4.225  0.4045 -0.0267 -0.4555
 5910TIP3    H117736   3.843   0.600   4.273 -0.4837 -0.2822 -1.3298
 5910TIP3    H217737   3.931   0.478   4.287  1.4145  1.2446  0.6207
 5911TIP3   OH217738   5.309   1.400   2.053 -0.0992 -0.2379 -0.3018
 5911TIP3    H117739   5.283   1.310   2.032 -0.0024 -0.1251 -0.9133
 5911TIP3    H217740   5.299   1.448   1.971  2.3250 -0.2590 -0.6681
 5912TIP3   OH217741   1.560   4.615   4.807 -0.4010 -0.2483 -0.1432
 5912TIP3    H117742   1.569   4.551   4.737 -0.8407  0.2088 -0.6339
 5912TIP3    H217743   1.605   4.576   4.882 -0.9786 -1.2913 -0.3197
 5913TIP3   OH217744   0.133   0.245   3.531 -0.5142 -0.2473 -0.2921
 5913TIP3    H117745   0.140   0.336   3.561  0.5167  0.1305 -1.5842
 5913TIP3    H217746   0.039   0.227   3.531 -0.6677  0.3637  1.2234
 5914TIP3   OH217747   6.031   3.323   0.700 -0.3782  0.2150 -0.7282
 5914TIP3    H117748   6.094   3.394   0.712  0.3962 -0.4458 -0.7601
 5914TIP3    H217749   5.947   3.361   0.726  0.3426  0.5062  1.4006
 5915TIP3   OH217750   5.748   0.882   3.671  0.0512  0.3447 -0.1928
 5915TIP3    H117751   5.690   0.837   3.734 -0.4143  0.6825 -0.3761
 5915TIP3    H217752   5.806   0.813   3.639  1.3145  0.4408  1.7351
 5916TIP3   OH217753   2.740   1.583   4.659  0.1105  0.3129 -0.3493
 5916TIP3    H117754   2.663   1.604   4.713  0.5567  1.5808 -0.1706
 5916TIP3    H217755   2.814   1.595   4.717  0.4459 -1.2743 -0.4182
 5917TIP3   OH217756   0.783   0.326   3.354  0.3019 -0.0059 -0.2219
 5917TIP3    H117757   0.798   0.417   3.381 -0.4191  0.4285 -1.1858
 5917TIP3    H217758   0.716   0.333   3.286  1.7736 -1.0408 -1.8566
 5918TIP3   OH217759   3.746   5.994   1.109  0.3800 -0.1952 -0.5081
 5918TIP3    H117760   3.801   5.925   1.145 -1.9443 -0.8018  2.3683
 5918TIP3    H217761   3.710   5.958   1.028  1.7666 -0.9731 -0.7938
 5919TIP3   OH217762   5.211   4.931   1.912 -0.0564 -0.1693  0.1071
 5919TIP3    H117763   5.276   4.883   1.964  0.2949 -1.1821 -1.2125
 5919TIP3    H217764   5.200   5.014   1.959  0.7119 -0.7754  1.4346
 5920TIP3   OH217765   5.003   1.825   4.418  0.1362 -0.0755  0.0917
 5920TIP3    H117766   5.087   1.780   4.423 -0.1968 -0.7196 -0.1338
 5920TIP3    H217767   4.938   1.758   4.437 -0.6014 -0.4896 -3.3755
 5921TIP3   OH217768   2.003   1.836   1.668 -0.2893 -0.1439 -0.5870
 5921TIP3    H117769   1.991   1.768   1.601 -0.7477  1.1107 -1.8363
 5921TIP3    H217770   2.096   1.857   1.664 -0.2216 -0.4136 -0.4735
 5922TIP3   OH217771   6.268   2.090   3.400  0.4209 -0.1112 -0.2530
 5922TIP3    H117772   6.198   2.152   3.379 -1.0874 -1.9220 -0.9704
 5922TIP3    H217773   6.302   2.063   3.314  0.0291 -1.3270 -0.0465
 5923TIP3   OH217774   3.817   1.963   3.475  0.8872  0.7543 -0.7066
 5923TIP3    H117775   3.829   1.894   3.409 -1.5770 -0.2863 -0.1905
 5923TIP3    H217776   3.743   2.013   3.442 -0.2917  0.3119  1.1481
 5924TIP3   OH217777   3.232   2.704   1.760 -0.2530  0.1666  0.4857
 5924TIP3    H117778   3.197   2.709   1.671 -0.1588 -1.0101  0.3563
 5924TIP3    H217779   3.155   2.694   1.816 -0.3477  1.4555  0.6037
 5925TIP3   OH217780   5.864   1.247   3.819  0.8556 -0.1759 -0.3132
 5925TIP3    H117781   5.891   1.176   3.878 -1.5035 -0.3034  0.7330
 5925TIP3    H217782   5.848   1.203   3.735  0.1801 -0.7705  0.1103
 5926TIP3   OH217783   2.802   0.269   1.509  0.2021 -0.0634 -0.1772
 5926TIP3    H117784   2.883   0.261   1.458  0.2961  0.4768 -0.1197
 5926TIP3    H217785   2.786   0.363   1.514  0.1414 -0.1125  0.7085
 5927TIP3   OH217786   2.781   2.651   2.838  0.1250  0.4256 -0.0584
 5927TIP3    H117787   2.733   2.611   2.911  0.8840 -2.9517 -1.1933
 5927TIP3    H217788   2.869   2.666   2.873  0.3072 -0.5813 -0.0356
 5928TIP3   OH217789   1.551   3.186   1.598  0.1813 -0.0659  0.2664
 5928TIP3    H117790   1.573   3.140   1.517 -0.1535  1.9361 -1.0458
 5928TIP3    H217791   1.634   3.223   1.628 -0.0065  0.8340 -0.2823
 5929TIP3   OH217792   6.165   2.748   4.275 -0.1759  0.1374 -0.7117
 5929TIP3    H117793   6.092   2.758   4.213  0.2813  0.7926 -1.1601
 5929TIP3    H217794   6.128   2.699   4.348 -1.2366  1.0035 -0.6512
 5930TIP3   OH217795   4.507   0.556   1.331 -0.6465 -0.3677  0.2192
 5930TIP3    H117796   4.561   0.476   1.332  2.7153  1.6941  0.7676
 5930TIP3    H217797   4.503   0.581   1.239 -1.4950 -0.9862  0.0753
 5931TIP3   OH217798   3.680   2.258   0.508  0.2892  0.2107 -0.2006
 5931TIP3    H117799   3.604   2.277   0.453 -2.1575 -0.1875  2.7913
 5931TIP3    H217800   3.707   2.343   0.542  1.0066  0.3076 -0.9788
 5932TIP3   OH217801   0.153   4.033   0.579  0.2252 -0.1152  0.0103
 5932TIP3    H117802   0.098   4.081   0.641  0.3315  0.7429 -0.5443
 5932TIP3    H217803   0.093   3.972   0.536 -0.5195  1.4065 -1.2101
 5933TIP3   OH217804   0.942   1.101   3.220  0.5192  0.0006  0.3620
 5933TIP3    H117805   0.865   1.158   3.216  1.5318  1.3881 -0.4889
 5933TIP3    H217806   1.010   1.156   3.258  1.5018 -0.6642 -0.3705
 5934TIP3   OH217807   4.451   2.576   3.106 -0.1524  0.6843 -0.8620
 5934TIP3    H117808   4.448   2.660   3.151 -0.6061  0.9223 -1.3121
 5934TIP3    H217809   4.537   2.574   3.063 -0.7183  1.6221 -2.1183
 5935TIP3   OH217810   6.287   5.154   4.890  0.4083 -0.5198 -0.3047
 5935TIP3    H117811   6.286   5.235   4.941  0.8249 -0.9151  0.3630
 5935TIP3    H217812   6.233   5.093   4.941  0.5375 -0.8152 -0.5178
 5936TIP3   OH217813   1.547   4.286   0.904  0.6322 -0.1883 -0.1471
 5936TIP3    H117814   1.580   4.376   0.912 -2.8076  1.2410 -0.3285
 5936TIP3    H217815   1.579   4.257   0.818  0.7199  1.4019 -0.6958
 5937TIP3   OH217816   3.536   3.775   2.604  0.4008  0.1320  0.2140
 5937TIP3    H117817   3.468   3.840   2.588  0.7844 -0.0208 -2.4088
 5937TIP3    H217818   3.580   3.765   2.520  2.5532 -1.0552  1.3910
 5938TIP3   OH217819   5.432   3.719   4.071  0.0620  0.0438  0.3482
 5938TIP3    H117820   5.410   3.793   4.127  1.6391  1.9527 -1.3953
 5938TIP3    H217821   5.348   3.687   4.039 -0.6649  0.8560  1.3805
 5939TIP3   OH217822   2.280   2.745   3.490  0.3891  0.0542 -0.2196
 5939TIP3    H117823   2.345   2.692   3.538  0.1209 -1.6768 -1.6696
 5939TIP3    H217824   2.329   2.822   3.462  1.2304 -0.1625  0.5909
 5940TIP3   OH217825   1.696   5.142   1.011  0.1506  0.1261  0.2808
 5940TIP3    H117826   1.602   5.130   0.994  0.0093  0.2976  0.9028
 5940TIP3    H217827   1.733   5.055   1.002 -0.2471 -0.1399  1.0441
 5941TIP3   OH217828   1.208   3.268   1.821  0.3020  0.0638 -0.0620
 5941TIP3    H117829   1.258   3.222   1.753  1.5922  2.0546 -0.5509
 5941TIP3    H217830   1.265   3.267   1.898 -0.0291  0.0756  0.1867
 5942TIP3   OH217831   4.932   4.921   3.491  0.0161 -0.0126 -0.1906
 5942TIP3    H117832   4.873   4.893   3.422 -1.0190 -1.6271  1.2507
 5942TIP3    H217833   4.982   4.842   3.513  0.8497  0.6579  0.4113
 5943TIP3   OH217834   0.306   1.659   2.912 -0.2344 -0.5914  0.0069
 5943TIP3    H117835   0.216   1.692   2.909 -0.3875 -1.0457 -0.5342
 5943TIP3    H217836   0.358   1.734   2.940 -1.1202 -1.0143  3.2295
 5944TIP3   OH217837   6.117   1.358   3.758  1.1166  0.0095 -0.1419
 5944TIP3    H117838   6.024   1.342   3.741  1.0805  0.6910 -0.6583
 5944TIP3    H217839   6.136   1.308   3.837  0.2270  0.1258  0.1620
 5945TIP3   OH217840   4.232   0.285   4.166  0.0797 -0.2586 -0.0233
 5945TIP3    H117841   4.199   0.309   4.080  0.6428 -1.9388 -0.7519
 5945TIP3    H217842   4.292   0.356   4.190 -2.5422  1.9535  0.5570
 5946TIP3   OH217843   0.566   5.572   0.895  0.0970 -0.2713  0.2971
 5946TIP3    H117844   0.541   5.657   0.860 -2.7258 -1.4949 -1.0020
 5946TIP3    H217845   0.584   5.588   0.988  1.2470  1.9519 -0.2342
 5947TIP3   OH217846   4.033   3.284   1.822  0.2845  0.2486 -0.3176
 5947TIP3    H117847   4.053   3.226   1.749  1.4290  0.3036 -0.0633
 5947TIP3    H217848   4.084   3.363   1.804  0.5164  0.2903  0.4956
 5948TIP3   OH217849   3.203   2.620   3.229  0.3687 -0.5721  0.1935
 5948TIP3    H117850   3.293   2.589   3.215  0.5007 -0.5960  1.0544
 5948TIP3    H217851   3.149   2.551   3.191  0.6743 -1.6437  1.5886
 5949TIP3   OH217852   4.227   2.126   4.766 -0.5303  0.1422  0.0855
 5949TIP3    H117853   4.202   2.208   4.808 -2.2665  0.5156 -1.5832
 5949TIP3    H217854   4.145   2.085   4.741  0.3791 -0.8398 -1.4831
 5950TIP3   OH217855   2.414   3.285   4.417 -0.6036 -0.9024  0.1571
 5950TIP3    H117856   2.426   3.245   4.330 -0.5220 -1.1162  0.2673
 5950TIP3    H217857   2.441   3.217   4.479 -0.0100 -0.5056  0.3352
 5951TIP3   OH217858   5.445   3.063   1.401  0.8520 -0.0852  0.2472
 5951TIP3    H117859   5.477   3.084   1.489 -0.9373  0.5037  0.8069
 5951TIP3    H217860   5.413   2.974   1.408 -1.6993  0.8032  0.9957
 5952TIP3   OH217861   0.768   0.272   0.830  0.0279 -0.3078  0.1839
 5952TIP3    H117862   0.782   0.193   0.882 -0.5277 -0.6618 -0.1997
 5952TIP3    H217863   0.848   0.323   0.843 -1.0890  0.8835  3.5320
 5953TIP3   OH217864   1.768   4.845   1.395  0.4335  0.1098 -0.1624
 5953TIP3    H117865   1.827   4.876   1.326  0.5141  1.2110  0.3858
 5953TIP3    H217866   1.682   4.845   1.354  0.3960  1.3002 -0.1164
 5954TIP3   OH217867   3.073   4.263   1.755  0.0697 -0.4618 -0.3434
 5954TIP3    H117868   3.016   4.338   1.741 -1.6857 -1.6235  0.1879
 5954TIP3    H217869   3.121   4.253   1.672 -0.5203  0.5449 -0.8229
 5955TIP3   OH217870   6.178   5.831   4.628 -0.2548 -0.1003  0.7589
 5955TIP3    H117871   6.197   5.783   4.547  0.5100  0.0874  0.8154
 5955TIP3    H217872   6.239   5.794   4.692 -0.8028 -0.1930  1.2353
 5956TIP3   OH217873   1.853   1.879   0.771 -0.0794  0.7150  0.0392
 5956TIP3    H117874   1.888   1.859   0.858 -0.7789 -2.1524 -0.2265
 5956TIP3    H217875   1.767   1.836   0.769 -0.5641  1.6564 -1.6933
 5957TIP3   OH217876   3.501   5.325   0.519 -0.0507  0.1562  0.2298
 5957TIP3    H117877   3.534   5.260   0.456  1.0518 -0.1543  1.0962
 5957TIP3    H217878   3.528   5.292   0.604 -0.6247  1.0982  0.7982
 5958TIP3   OH217879   4.233   5.115   4.440 -0.1941  0.2521 -0.5655
 5958TIP3    H117880   4.287   5.036   4.451 -1.0044 -0.1853  0.5000
 5958TIP3    H217881   4.279   5.182   4.491 -0.0590  0.2000 -0.6161
 5959TIP3   OH217882   0.985   4.852   2.492  0.3244 -0.1343 -0.4767
 5959TIP3    H117883   1.043   4.900   2.432 -1.7440 -0.7889 -3.1989
 5959TIP3    H217884   1.026   4.765   2.500  0.2327 -0.2944 -1.6149
 5960TIP3   OH217885   0.174   4.970   4.320 -0.0352 -0.2221  0.5397
 5960TIP3    H117886   0.127   4.946   4.399  0.8540 -0.1632  1.1040
 5960TIP3    H217887   0.266   4.969   4.346  0.2656 -0.1437 -0.4783
 5961TIP3   OH217888   1.085   3.090   4.407  0.1778 -0.1676  0.7140
 5961TIP3    H117889   1.165   3.130   4.442 -0.8009  3.0049 -0.3395
 5961TIP3    H217890   1.014   3.136   4.452 -1.0430  0.6137 -1.7964
 5962TIP3   OH217891   1.232   3.379   0.567 -0.0571 -0.2304 -0.1125
 5962TIP3    H117892   1.269   3.294   0.590  1.6980  0.4535 -0.3165
 5962TIP3    H217893   1.303   3.441   0.578 -1.3012  1.2363  0.0168
 5963TIP3   OH217894   0.818   2.589   4.675 -0.2795 -0.4238  0.3068
 5963TIP3    H117895   0.895   2.534   4.686 -0.0162  0.2187  2.0093
 5963TIP3    H217896   0.803   2.628   4.762 -1.2283  1.1564 -0.5101
 5964TIP3   OH217897   4.154   2.861   1.564 -0.0821 -0.2432 -0.5130
 5964TIP3    H117898   4.169   2.806   1.641  2.3551  1.5361  0.4365
 5964TIP3    H217899   4.160   2.801   1.490 -2.7240 -2.0499  0.5973
 5965TIP3   OH217900   1.826   2.423   4.322  0.2997 -0.5994 -0.0681
 5965TIP3    H117901   1.756   2.359   4.337  0.1618 -0.5150 -0.3491
 5965TIP3    H217902   1.833   2.469   4.406  1.6385 -2.1779  0.7408
 5966TIP3   OH217903   5.426   4.969   0.104  0.0778  0.2925 -0.5971
 5966TIP3    H117904   5.397   4.958   0.195 -0.9782  3.3879 -0.4511
 5966TIP3    H217905   5.464   4.884   0.081 -1.9944 -1.4646  1.8404
 5967TIP3   OH217906   1.299   1.078   4.222  0.3711  0.2462  0.5097
 5967TIP3    H117907   1.300   1.174   4.228 -0.4592  0.2425  0.8871
 5967TIP3    H217908   1.298   1.049   4.313 -0.6424 -0.0874  0.4046
 5968TIP3   OH217909   0.381   1.586   1.977 -0.4102  0.4046  0.1670
 5968TIP3    H117910   0.316   1.536   2.025  2.8492 -1.9974  2.5278
 5968TIP3    H217911   0.402   1.532   1.901 -0.1457  0.4687  0.1945
 5969TIP3   OH217912   3.080   1.614   1.174  0.0023  0.0872  0.4485
 5969TIP3    H117913   3.059   1.694   1.125 -0.5736 -0.0068  0.5412
 5969TIP3    H217914   3.048   1.632   1.263 -1.2955 -0.7424  0.1603
 5970TIP3   OH217915   4.239   1.917   1.332 -0.2382 -0.0304  0.1054
 5970TIP3    H117916   4.269   1.876   1.251 -1.3172  0.3369 -0.5033
 5970TIP3    H217917   4.143   1.915   1.326 -0.3306  0.5921  1.0780
 5971TIP3   OH217918   0.870   2.276   0.535  0.0005  0.1100 -0.0163
 5971TIP3    H117919   0.955   2.299   0.572  0.1187  0.0109 -0.2194
 5971TIP3    H217920   0.812   2.347   0.562  0.2525  0.4143 -0.2499
 5972TIP3   OH217921   5.993   1.864   2.577  0.4199 -0.2608  0.1917
 5972TIP3    H117922   5.931   1.932   2.601 -1.5555 -2.4575  1.7337
 5972TIP3    H217923   6.075   1.910   2.562 -0.6661  2.3690  1.7601
 5973TIP3   OH217924   6.182   1.054   1.801  0.2855  0.3975  0.0839
 5973TIP3    H117925   6.191   1.131   1.858  2.4764  1.7057 -1.8701
 5973TIP3    H217926   6.128   1.085   1.728  2.0054  0.4863 -1.2201
 5974TIP3   OH217927   0.177   2.207   3.372  0.2528 -0.0122 -0.1335
 5974TIP3    H117928   0.105   2.145   3.385  1.2753 -1.3802 -0.7605
 5974TIP3    H217929   0.155   2.281   3.428 -1.4179 -0.5836  0.0247
 5975TIP3   OH217930   2.487   5.046   2.241 -0.4948 -0.3110 -0.6460
 5975TIP3    H117931   2.522   4.961   2.267 -1.7004 -1.4123 -2.3778
 5975TIP3    H217932   2.538   5.110   2.291  1.3348 -1.9736 -0.2692
 5976TIP3   OH217933   3.363   5.551   1.629  0.3224 -0.1766 -0.6895
 5976TIP3    H117934   3.392   5.608   1.700 -1.0059 -0.6166  0.2510
 5976TIP3    H217935   3.277   5.586   1.604  0.3425 -0.6216 -1.4186
 5977TIP3   OH217936   3.254   4.816   0.632 -0.4042  0.1212 -0.4089
 5977TIP3    H117937   3.264   4.751   0.702  0.7902 -0.3863 -1.0353
 5977TIP3    H217938   3.343   4.840   0.608 -0.8034  0.4333 -1.6410
 5978TIP3   OH217939   4.878   3.331   0.602 -0.6015 -0.2917  0.3915
 5978TIP3    H117940   4.947   3.396   0.616 -0.7339 -0.3852  1.5544
 5978TIP3    H217941   4.833   3.324   0.686 -1.5174 -0.8340 -0.1222
 5979TIP3   OH217942   1.230   0.636   3.248 -0.7471  0.2236 -0.2131
 5979TIP3    H117943   1.217   0.730   3.237 -1.2026  0.1669 -0.1974
 5979TIP3    H217944   1.313   0.629   3.295  0.7573  0.4974 -2.6498
 5980TIP3   OH217945   2.527   1.944   0.968 -0.1736  0.2904 -0.2364
 5980TIP3    H117946   2.598   2.007   0.985  0.4735 -0.5303  0.1330
 5980TIP3    H217947   2.466   1.956   1.041 -0.2662  0.7659 -0.3830
 5981TIP3   OH217948   5.960   0.313   2.405  0.0970 -0.3013 -0.4629
 5981TIP3    H117949   5.977   0.244   2.341 -1.5595 -0.9037 -0.3068
 5981TIP3    H217950   5.931   0.388   2.352  2.4754  0.5353 -0.6825
 5982TIP3   OH217951   4.730   2.063   4.958  0.0138 -0.1454 -0.0647
 5982TIP3    H117952   4.639   2.037   4.942  0.9441 -3.0914 -1.3343
 5982TIP3    H217953   4.761   2.097   4.875  0.4897 -0.7039 -0.1273
 5983TIP3   OH217954   3.628   1.387   2.662 -0.2840 -0.0693  0.0884
 5983TIP3    H117955   3.615   1.359   2.752 -2.4807  3.6151  1.1519
 5983TIP3    H217956   3.651   1.480   2.670  0.6494  0.0847 -3.1408
 5984TIP3   OH217957   2.158   0.399   1.407  0.1294 -0.1908  0.3878
 5984TIP3    H117958   2.215   0.393   1.331 -0.9304 -0.5633 -0.4017
 5984TIP3    H217959   2.123   0.488   1.403 -1.0896 -0.6809 -0.4490
 5985TIP3   OH217960   5.887   4.005   0.233  0.3327  0.3383  0.6458
 5985TIP3    H117961   5.792   4.018   0.238  0.6054  2.6983  0.6724
 5985TIP3    H217962   5.923   4.069   0.294  2.0536  1.5921 -1.5632
 5986TIP3   OH217963   4.985   4.907   2.499 -0.0984 -0.0668  0.1427
 5986TIP3    H117964   4.928   4.977   2.530 -0.8239 -1.2130  1.5421
 5986TIP3    H217965   5.005   4.930   2.408 -1.0132  1.4874  0.3079
 5987TIP3   OH217966   0.216   5.231   4.301 -0.0170  0.5470  0.0890
 5987TIP3    H117967   0.217   5.136   4.300 -0.9757  0.5138 -2.1287
 5987TIP3    H217968   0.251   5.257   4.216 -0.1550  2.1766  0.4930
 5988TIP3   OH217969   0.541   1.149   1.185  0.0987  0.0319  0.4863
 5988TIP3    H117970   0.520   1.055   1.179  0.3136  0.0752 -1.6922
 5988TIP3    H217971   0.630   1.156   1.151  0.0298  1.0571  0.4902
 5989TIP3   OH217972   6.331   1.308   3.024 -0.3579  0.6847 -0.4843
 5989TIP3    H117973   6.332   1.280   3.116 -0.9129  0.2332 -0.6063
 5989TIP3    H217974   6.262   1.255   2.984 -0.6080  1.3850 -1.0006
 5990TIP3   OH217975   5.508   1.687   3.496  0.0207  0.8992  0.7502
 5990TIP3    H117976   5.555   1.760   3.537 -1.2231  2.2831 -0.1701
 5990TIP3    H217977   5.569   1.653   3.431  0.2482  1.8384  0.4479
 5991TIP3   OH217978   0.057   1.370   0.973  0.0686 -0.0703  0.4742
 5991TIP3    H117979   0.124   1.359   0.905 -0.9654  0.0255 -0.6004
 5991TIP3    H217980   0.038   1.281   1.002  0.1866 -0.1533  0.3002
 5992TIP3   OH217981   5.735   3.856   4.880  0.2492  0.4226 -0.5284
 5992TIP3    H117982   5.736   3.835   4.787  0.5008  2.1631 -0.9567
 5992TIP3    H217983   5.666   3.801   4.917  0.6612 -0.8560 -1.5722
 5993TIP3   OH217984   6.156   4.685   3.158 -0.0350 -0.3520 -0.2836
 5993TIP3    H117985   6.120   4.690   3.069 -1.2643  0.1255  0.2213
 5993TIP3    H217986   6.248   4.660   3.145 -0.3113 -0.7496 -1.6566
 5994TIP3   OH217987   2.658   4.096   1.131 -0.2712  0.4660  0.1847
 5994TIP3    H117988   2.717   4.164   1.165 -0.0054  1.2271 -1.6658
 5994TIP3    H217989   2.713   4.043   1.073 -1.2529  0.8821 -1.1877
 5995TIP3   OH217990   2.586   3.822   3.006 -0.7336  0.2588 -0.0835
 5995TIP3    H117991   2.589   3.915   2.981 -1.2514  0.5669  0.9385
 5995TIP3    H217992   2.672   3.788   2.984 -0.5894  0.9454 -0.6173
 5996TIP3   OH217993   5.657   0.206   2.688  0.7812  0.3988 -0.1045
 5996TIP3    H117994   5.590   0.151   2.731  1.1838 -1.1626 -1.3918
 5996TIP3    H217995   5.621   0.224   2.601  1.4394  0.6983 -0.3200
 5997TIP3   OH217996   2.440   2.924   2.701 -0.0264  0.2609 -0.3323
 5997TIP3    H117997   2.440   2.856   2.768  4.4223 -1.8925 -2.1497
 5997TIP3    H217998   2.355   2.916   2.658 -0.7345 -2.1988  1.3371
 5998TIP3   OH217999   4.727   0.764   3.647  0.1797  0.1770  1.0240
 5998TIP3    H118000   4.690   0.739   3.562  0.4038  1.4856  0.5172
 5998TIP3    H218001   4.653   0.759   3.707 -0.1067 -0.2487  0.6462
 5999TIP3   OH218002   5.195   0.580   2.225 -0.0768  0.1616  0.7639
 5999TIP3    H118003   5.159   0.659   2.263  0.8525  1.6640 -1.3059
 5999TIP3    H218004   5.119   0.531   2.194 -0.6883 -0.0378  2.5125
 6000TIP3   OH218005   0.344   4.095   3.306 -0.2917 -0.0978 -0.8280
 6000TIP3    H118006   0.305   4.159   3.246 -0.1043  1.3833  0.5690
 6000TIP3    H218007   0.329   4.132   3.393  1.7559 -0.8796 -0.0936
 6001TIP3   OH218008   1.666   5.675   3.334  0.2525 -0.4903 -0.0026
 6001TIP3    H118009   1.673   5.706   3.244  1.1229 -0.0410  0.2037
 6001TIP3    H218010   1.574   5.654   3.346  0.1150 -0.4676 -0.9673
 6002TIP3   OH218011   3.171   5.246   2.492  0.3731 -0.0614  0.2217
 6002TIP3    H118012   3.087   5.205   2.514  0.3998 -1.5038 -2.0671
 6002TIP3    H218013   3.236   5.177   2.507  0.7748  0.0434 -0.9616
 6003TIP3   OH218014   4.347   4.029   0.243  0.7412  0.0076 -0.5329
 6003TIP3    H118015   4.263   4.008   0.201  1.6229 -0.2150 -2.2535
 6003TIP3    H218016   4.364   3.955   0.301  1.1610 -1.4443 -2.4228
 6004TIP3   OH218017   4.807   5.707   1.025  0.0542 -0.1245 -0.5044
 6004TIP3    H118018   4.875   5.738   1.085 -1.3126 -0.4108  1.2690
 6004TIP3    H218019   4.829   5.614   1.010 -0.0104 -0.2472  0.1520
 6005TIP3   OH218020   3.947   4.402   4.375 -0.1037 -0.6349  0.0601
 6005TIP3    H118021   3.933   4.393   4.281  0.8896 -1.1555 -0.0493
 6005TIP3    H218022   3.859   4.420   4.411 -0.3206  0.7618 -1.0829
 6006TIP3   OH218023   3.822   3.573   4.379  0.0584  0.1878  0.5451
 6006TIP3    H118024   3.876   3.566   4.300  0.5648 -0.5706  0.9517
 6006TIP3    H218025   3.787   3.485   4.392 -1.7939  0.7843 -0.0445
 6007TIP3   OH218026   6.141   1.172   1.093  0.6053 -0.3414 -0.1690
 6007TIP3    H118027   6.105   1.182   1.005 -1.4164 -1.2268  0.4934
 6007TIP3    H218028   6.084   1.108   1.135  0.4323  1.3361  2.3551
 6008TIP3   OH218029   1.334   0.530   0.852 -0.4590  0.3947  0.3607
 6008TIP3    H118030   1.391   0.549   0.926 -1.0451  1.1281  0.6289
 6008TIP3    H218031   1.365   0.588   0.782  1.7116 -2.0026 -0.8318
 6009TIP3   OH218032   4.191   0.548   3.149 -0.4443  0.2102 -1.0916
 6009TIP3    H118033   4.159   0.635   3.176 -1.2570  0.3899 -2.5425
 6009TIP3    H218034   4.120   0.512   3.096 -0.4530 -1.6949  0.1034
 6010TIP3   OH218035   0.092   1.093   3.427  0.2634 -0.3346  0.1261
 6010TIP3    H118036   0.049   1.152   3.489  1.8471  2.9795 -1.6690
 6010TIP3    H218037   0.184   1.117   3.431  0.8212 -1.9712 -1.5508
 6011TIP3   OH218038   6.356   3.287   2.767 -0.2557 -0.2578 -0.5445
 6011TIP3    H118039   6.330   3.197   2.749  0.5368 -0.9168  1.2682
 6011TIP3    H218040   6.370   3.289   2.862 -0.9654  1.9837 -0.4317
 6012TIP3   OH218041   5.785   1.343   1.861 -0.5629 -0.2060 -0.4524
 6012TIP3    H118042   5.838   1.264   1.857  1.0968  0.7310  1.4115
 6012TIP3    H218043   5.696   1.311   1.877  0.2730 -1.7027  1.6954
 6013TIP3   OH218044   1.777   1.177   0.416  0.3040 -0.6681 -0.1178
 6013TIP3    H118045   1.712   1.127   0.465  2.3436 -1.8250  1.5238
 6013TIP3    H218046   1.857   1.126   0.421  1.6369  1.1679 -1.2533
 6014TIP3   OH218047   3.193   1.804   2.194  0.5343  0.0570  0.5990
 6014TIP3    H118048   3.199   1.710   2.213  1.6645  0.1535  0.7886
 6014TIP3    H218049   3.283   1.836   2.202  0.1404  1.1901  0.7012
 6015TIP3   OH218050   0.380   5.601   3.685  0.0734 -0.2186 -0.3384
 6015TIP3    H118051   0.329   5.671   3.645 -0.8738 -0.6234  0.1299
 6015TIP3    H218052   0.434   5.567   3.614  0.8665  1.2406 -0.4839
 6016TIP3   OH218053   0.740   3.972   1.517  0.0755 -0.3319 -0.1466
 6016TIP3    H118054   0.725   4.062   1.488 -2.6756 -0.0684  1.6907
 6016TIP3    H218055   0.780   3.981   1.604  1.3112 -0.9605 -0.6241
 6017TIP3   OH218056   3.191   0.156   2.524 -0.4276 -0.2951  0.1191
 6017TIP3    H118057   3.158   0.139   2.436 -1.6218  1.7772  0.0942
 6017TIP3    H218058   3.135   0.102   2.581 -1.5526  0.4714 -0.2132
 6018TIP3   OH218059   0.684   0.952   2.426  0.1507  0.2265 -0.1190
 6018TIP3    H118060   0.629   1.007   2.482  0.5725  0.1789  0.3459
 6018TIP3    H218061   0.750   1.012   2.391 -0.6712  0.4620 -1.3396
 6019TIP3   OH218062   0.702   0.232   0.478 -0.0387 -0.1711  0.0131
 6019TIP3    H118063   0.685   0.298   0.545 -1.5242  0.1333 -0.6180
 6019TIP3    H218064   0.615   0.204   0.449  0.5278 -0.0227 -2.0303
 6020TIP3   OH218065   1.424   2.348   4.920 -0.7750  0.4673  0.5445
 6020TIP3    H118066   1.487   2.344   4.992 -1.0476  0.2096  0.7716
 6020TIP3    H218067   1.478   2.346   4.841 -0.5416 -1.7648  0.6865
 6021TIP3   OH218068   5.954   4.696   4.628  0.0541 -0.3189 -0.1017
 6021TIP3    H118069   5.923   4.657   4.546 -0.6257  1.0364 -0.5115
 6021TIP3    H218070   6.043   4.662   4.638  0.1550 -0.4990 -1.4132
 6022TIP3   OH218071   1.874   3.138   4.812 -0.3204  0.3966  0.2722
 6022TIP3    H118072   1.886   3.193   4.889 -1.7368 -0.6075  1.2515
 6022TIP3    H218073   1.854   3.200   4.741  1.5853  1.3778  0.5234
 6023TIP3   OH218074   4.717   3.004   3.661  0.1216 -0.8465 -0.3094
 6023TIP3    H118075   4.657   3.055   3.607  0.5723 -1.3362 -1.2943
 6023TIP3    H218076   4.796   3.058   3.667 -0.0738 -0.6119  0.2146
 6024TIP3   OH218077   3.528   1.069   4.828 -0.4030 -0.0799 -0.2597
 6024TIP3    H118078   3.467   1.027   4.768  0.1723 -0.3025 -0.7001
 6024TIP3    H218079   3.546   1.003   4.895 -0.6286 -0.0171 -0.1344
 6025TIP3   OH218080   1.580   0.832   4.292  0.8768 -0.0583  0.1920
 6025TIP3    H118081   1.505   0.773   4.291  0.3799  0.5374 -2.0711
 6025TIP3    H218082   1.580   0.868   4.381 -0.1556 -1.7184  0.9232
 6026TIP3   OH218083   0.666   5.889   2.522 -0.3195 -0.7971  0.4654
 6026TIP3    H118084   0.582   5.850   2.500 -0.2967  0.2463 -1.7777
 6026TIP3    H218085   0.722   5.870   2.447  0.5867  0.8828  0.6575
 6027TIP3   OH218086  -0.020   3.718   1.386 -0.7633 -0.1585 -0.3515
 6027TIP3    H118087   0.051   3.753   1.332  0.8993 -0.8372  1.2985
 6027TIP3    H218088   0.008   3.630   1.410 -2.6750 -0.8691 -0.4805
 6028TIP3   OH218089   1.746   4.910   3.651  0.2865 -0.2821  0.1428
 6028TIP3    H118090   1.837   4.926   3.626  0.9490 -1.0285  1.8971
 6028TIP3    H218091   1.736   4.952   3.736 -1.7556  1.8191 -1.0288
 6029TIP3   OH218092   2.029   5.955   5.175 -0.1610 -0.0908  0.1053
 6029TIP3    H118093   2.112   5.921   5.139  0.0944 -0.6576  1.2101
 6029TIP3    H218094   2.056   6.023   5.237 -0.6218  1.2362 -1.0862
 6030TIP3   OH218095   4.535   5.158   4.801  0.0301  0.0129  0.3925
 6030TIP3    H118096   4.553   5.073   4.842  0.2318 -0.1909 -0.1193
 6030TIP3    H218097   4.607   5.214   4.830 -0.8208  0.4180  1.8626
 6031TIP3   OH218098   3.213   1.171   0.020 -0.2437  0.2291 -0.6382
 6031TIP3    H118099   3.149   1.220  -0.033 -0.6659 -0.2073 -0.5345
 6031TIP3    H218100   3.162   1.135   0.092 -0.1255 -1.1388 -1.2064
 6032TIP3   OH218101   4.880   2.860   0.365  0.4493  0.1629 -0.4854
 6032TIP3    H118102   4.904   2.951   0.347  1.1859  0.2368  0.7789
 6032TIP3    H218103   4.848   2.827   0.281  0.1849  1.5762 -0.9690
 6033TIP3   OH218104   3.884   1.939   4.341 -0.1434 -0.0420  0.0196
 6033TIP3    H118105   3.813   1.897   4.389 -0.2612 -0.3097 -0.3819
 6033TIP3    H218106   3.958   1.879   4.348 -0.4752 -0.5907 -1.0183
 6034TIP3   OH218107   4.959   0.290   1.116 -0.8904 -0.5643  0.4815
 6034TIP3    H118108   4.895   0.221   1.100  1.6043 -2.5474 -1.6842
 6034TIP3    H218109   4.951   0.348   1.041 -1.0672 -0.0170  0.9158
 6035TIP3   OH218110   4.302   5.554   4.580  0.3639  0.4654 -0.7797
 6035TIP3    H118111   4.354   5.476   4.598  0.2673  0.5484 -0.0951
 6035TIP3    H218112   4.224   5.521   4.535 -1.5021 -0.4084  2.6862
 6036TIP3   OH218113   5.754   5.877   2.029  0.0389 -0.2958  0.3216
 6036TIP3    H118114   5.724   5.967   2.011  0.7520  0.1499  1.2533
 6036TIP3    H218115   5.849   5.884   2.034  0.2140 -1.3961 -1.0257
 6037TIP3   OH218116   1.598   2.235   0.803 -0.4732 -0.0174 -0.7639
 6037TIP3    H118117   1.625   2.217   0.893  0.6700 -1.5499 -1.3775
 6037TIP3    H218118   1.555   2.320   0.808  2.6345  1.6365  0.6740
 6038TIP3   OH218119   6.265   4.334   2.464 -0.3115  0.0490  0.5827
 6038TIP3    H118120   6.361   4.335   2.472 -0.3034 -0.0872  0.5146
 6038TIP3    H218121   6.250   4.337   2.369 -0.3685 -0.2506  0.5815
 6039TIP3   OH218122   1.806   2.563   4.866  0.3477  0.1958  0.3003
 6039TIP3    H118123   1.751   2.577   4.943  0.3059 -0.0872  0.3233
 6039TIP3    H218124   1.895   2.583   4.896  0.3651 -0.1680  0.4933
 6040TIP3   OH218125   4.565   5.524   4.023  0.2634  0.0048  0.3873
 6040TIP3    H118126   4.521   5.458   4.077  0.2795 -0.1273  0.2397
 6040TIP3    H218127   4.604   5.474   3.951 -1.5085  0.3998 -0.8949
 6041TIP3   OH218128   0.753   2.379   1.284  0.0881  0.0653 -0.4855
 6041TIP3    H118129   0.769   2.286   1.267 -1.3807 -0.2015 -0.5132
 6041TIP3    H218130   0.688   2.380   1.354  0.3282  1.0837 -0.2623
 6042TIP3   OH218131   1.156   4.577   1.129 -0.6436  0.0102  0.2811
 6042TIP3    H118132   1.216   4.612   1.195 -2.4540  0.1335  1.9294
 6042TIP3    H218133   1.195   4.492   1.105  0.6473  0.4741  0.6238
 6043TIP3   OH218134   2.249   3.912   1.241  0.4780  0.3877 -0.2283
 6043TIP3    H118135   2.198   3.879   1.167 -1.9171 -0.8521  1.8154
 6043TIP3    H218136   2.262   3.836   1.297 -0.7053  1.8624  2.1867
 6044TIP3   OH218137   5.194   1.521   0.439 -0.8210  0.5389  0.0150
 6044TIP3    H118138   5.115   1.575   0.434 -0.9625  0.2498 -1.1738
 6044TIP3    H218139   5.161   1.432   0.451 -0.5966  0.6392  1.6495
 6045TIP3   OH218140   3.982   3.038   4.712  0.3052 -0.3910  0.2217
 6045TIP3    H118141   4.024   3.048   4.798  0.7158  1.1743 -0.1233
 6045TIP3    H218142   4.009   3.116   4.664 -1.0277 -0.5764 -0.8653
 6046TIP3   OH218143   2.848   5.013   1.061 -0.1290  0.0709 -0.1197
 6046TIP3    H118144   2.929   5.048   1.099 -0.5215  0.5381  0.2871
 6046TIP3    H218145   2.857   5.028   0.967  0.9933 -1.3691 -0.2944
 6047TIP3   OH218146   6.071   2.559   3.389  0.9023 -0.1426 -0.1796
 6047TIP3    H118147   5.977   2.556   3.407  1.2306  1.1345  2.1303
 6047TIP3    H218148   6.085   2.492   3.322 -1.8299  0.5482 -1.5872
 6048TIP3   OH218149   3.188   3.926   2.817 -0.8890  0.1535 -0.1456
 6048TIP3    H118150   3.112   3.869   2.824  0.4140 -1.4624  2.1113
 6048TIP3    H218151   3.172   3.997   2.879 -1.3555  0.8532 -1.0482
 6049TIP3   OH218152   3.368   4.030   5.167  0.0422 -0.0711 -0.4312
 6049TIP3    H118153   3.420   3.952   5.184  1.5389  1.4269  2.6809
 6049TIP3    H218154   3.278   3.998   5.159  0.7388 -2.1933 -0.3838
 6050TIP3   OH218155   5.128   4.836   0.315 -0.0419 -0.9664  0.6665
 6050TIP3    H118156   5.103   4.791   0.396 -0.6617 -0.3185  0.8525
 6050TIP3    H218157   5.221   4.852   0.325 -0.2155 -0.3953  1.5188
 6051TIP3   OH218158   1.396   2.132   0.273 -0.4394 -0.1724  0.2758
 6051TIP3    H118159   1.305   2.153   0.256 -0.3483 -0.6243 -0.8859
 6051TIP3    H218160   1.443   2.215   0.263 -0.8547  0.3030  2.0701
 6052TIP3   OH218161   4.929   3.210   3.664 -0.3116  0.0136  0.0600
 6052TIP3    H118162   4.965   3.167   3.741 -2.0041 -1.4939  0.0585
 6052TIP3    H218163   4.913   3.300   3.692  0.6927 -0.0557  0.9204
 6053TIP3   OH218164   2.437   0.489   0.933  0.3865  0.2689 -0.0153
 6053TIP3    H118165   2.481   0.406   0.916 -1.4234 -0.6047 -0.7032
 6053TIP3    H218166   2.502   0.556   0.911  2.2378 -0.9195  1.5108
 6054TIP3   OH218167   4.900   5.323   3.966  0.0334 -0.3200  0.5675
 6054TIP3    H118168   4.910   5.401   4.021  1.2372  1.6048 -2.1934
 6054TIP3    H218169   4.982   5.318   3.917 -0.6883 -2.3961 -0.5139
 6055TIP3   OH218170   2.395   4.935   0.165  0.3002 -0.0962 -0.3367
 6055TIP3    H118171   2.394   4.976   0.078 -1.3479  1.6460  0.4210
 6055TIP3    H218172   2.338   4.859   0.157 -1.1421  0.9548 -0.4480
 6056TIP3   OH218173   5.512   5.924   2.343  0.2502 -0.2775  0.9913
 6056TIP3    H118174   5.595   5.969   2.324 -0.4799  1.5066  1.7816
 6056TIP3    H218175   5.517   5.843   2.292  1.5058  0.8356 -0.8023
 6057TIP3   OH218176   4.986   1.368   1.523 -0.2952  0.1269 -0.0337
 6057TIP3    H118177   5.067   1.350   1.476  0.0559  1.0081  0.2171
 6057TIP3    H218178   4.945   1.440   1.475 -0.4754  0.3022  0.3752
 6058TIP3   OH218179   3.000   4.869   2.497  0.0154  0.0140 -0.5058
 6058TIP3    H118180   2.944   4.803   2.538  1.4533 -0.1963  1.2475
 6058TIP3    H218181   2.952   4.951   2.510 -0.4268 -0.3051 -0.0645
 6059TIP3   OH218182   5.896   2.262   2.368 -0.3984 -0.1021 -0.2800
 6059TIP3    H118183   5.942   2.216   2.298 -1.0200  0.1577 -0.8749
 6059TIP3    H218184   5.828   2.313   2.323 -1.9039 -1.2158  0.6409
 6060TIP3   OH218185   5.838   4.769   2.370 -0.4417 -0.2672  0.1904
 6060TIP3    H118186   5.784   4.799   2.297 -0.3139 -2.4549 -0.8983
 6060TIP3    H218187   5.776   4.756   2.442 -0.9007  0.0151 -0.1454
 6061TIP3   OH218188   0.039   4.781   1.204 -0.4596 -0.5469 -0.5935
 6061TIP3    H118189   0.128   4.756   1.227 -0.7937  0.1343  1.7078
 6061TIP3    H218190  -0.016   4.742   1.272 -1.8520 -0.3235 -1.5360
 6062TIP3   OH218191   3.519   5.093   2.548  0.5481  0.0842 -0.4826
 6062TIP3    H118192   3.466   5.029   2.500  1.8043 -0.3785 -1.3222
 6062TIP3    H218193   3.582   5.125   2.483  0.3173  1.7496  0.0920
 6063TIP3   OH218194   0.415   2.881   1.271  0.2332  1.1366  0.5095
 6063TIP3    H118195   0.501   2.860   1.308 -0.3116 -0.6260  0.8350
 6063TIP3    H218196   0.372   2.932   1.340 -0.0047 -0.3641  1.5002
 6064TIP3   OH218197   2.715   1.268   1.347  0.4824 -0.4886 -0.2572
 6064TIP3    H118198   2.784   1.332   1.361 -0.1854  0.3002 -0.5160
 6064TIP3    H218199   2.639   1.303   1.394 -0.2213 -0.5176 -1.3309
 6065TIP3   OH218200   2.881   2.277   5.057 -0.3385 -0.0669  0.1621
 6065TIP3    H118201   2.814   2.251   5.121  0.5888 -1.5065  0.5922
 6065TIP3    H218202   2.953   2.216   5.072  0.9220  1.1946 -0.5651
 6066TIP3   OH218203   3.108   5.525   3.694 -0.3843 -0.4359  0.7792
 6066TIP3    H118204   3.033   5.577   3.666 -1.4791 -1.2920  1.9899
 6066TIP3    H218205   3.182   5.560   3.644 -0.9070  2.7040  1.9858
 6067TIP3   OH218206   0.814   1.602   2.993  0.3619  0.0539 -0.0356
 6067TIP3    H118207   0.807   1.534   2.926 -1.0040  1.5174 -1.4638
 6067TIP3    H218208   0.779   1.681   2.952  1.0013  1.4240  1.8761
 6068TIP3   OH218209   5.510   1.050   0.446  0.6866 -0.2301 -0.7525
 6068TIP3    H118210   5.491   1.092   0.362  2.2344 -1.3546 -1.7094
 6068TIP3    H218211   5.484   0.959   0.434  1.7030 -0.5930 -0.3145
 6069TIP3   OH218212   5.034   1.571   3.224 -0.4738  0.0383 -0.5329
 6069TIP3    H118213   5.073   1.657   3.210  3.7935 -0.7440  3.8447
 6069TIP3    H218214   4.961   1.588   3.285  0.3755  0.5963  0.3529
 6070TIP3   OH218215   2.885   5.126   0.396 -0.5753 -0.4042 -0.7233
 6070TIP3    H118216   2.939   5.070   0.451 -1.2560 -0.1121  0.2574
 6070TIP3    H218217   2.866   5.071   0.319  1.2615 -0.4409 -1.2211
 6071TIP3   OH218218   3.810   4.426   4.115  0.2696 -0.2757 -0.3537
 6071TIP3    H118219   3.824   4.501   4.057  0.4755  0.0036  0.0561
 6071TIP3    H218220   3.746   4.372   4.069  0.6438 -0.1982 -0.9697
 6072TIP3   OH218221   3.775   3.878   0.310  0.1316  0.2117  0.2724
 6072TIP3    H118222   3.805   3.950   0.254 -1.3997 -0.4686 -1.5316
 6072TIP3    H218223   3.815   3.800   0.273  0.5614 -0.0644  1.2809
 6073TIP3   OH218224   3.998   1.768   1.860  0.3454 -0.5538 -0.0371
 6073TIP3    H118225   4.069   1.704   1.861 -1.0282 -2.2315 -2.1707
 6073TIP3    H218226   4.010   1.818   1.940  3.0594 -1.7249  0.3842
 6074TIP3   OH218227   2.299   3.986   4.078  0.0728  0.1534  0.5990
 6074TIP3    H118228   2.289   3.941   3.994  0.0472 -0.2706  0.8259
 6074TIP3    H218229   2.262   4.074   4.063  0.6036  0.2808  0.0042
 6075TIP3   OH218230   5.179   0.761   0.217 -0.0354 -0.7043 -0.6834
 6075TIP3    H118231   5.229   0.842   0.228 -0.4465 -0.5099 -0.2063
 6075TIP3    H218232   5.097   0.777   0.263 -0.6627 -0.9101 -1.6820
 6076TIP3   OH218233   0.224   0.230   3.891  0.3919 -0.3477  0.2348
 6076TIP3    H118234   0.156   0.269   3.835  0.7036  1.0985  0.8189
 6076TIP3    H218235   0.175   0.185   3.959  0.0147 -0.5807 -0.1810
 6077TIP3   OH218236   0.886   5.727   2.017  0.0381  0.4638 -0.1591
 6077TIP3    H118237   0.852   5.653   1.966  1.9672  0.2271 -1.1904
 6077TIP3    H218238   0.857   5.804   1.969  0.3425  0.2924 -0.6232
 6078TIP3   OH218239   4.915   3.692   2.517 -0.2635 -0.1019  0.3486
 6078TIP3    H118240   4.835   3.689   2.463 -0.3137 -0.2723  0.4338
 6078TIP3    H218241   4.887   3.657   2.602  0.3902 -2.1146 -0.2113
 6079TIP3   OH218242   0.136   1.510   1.699  0.1396 -0.4173  0.2513
 6079TIP3    H118243   0.227   1.531   1.723  0.0764  1.0097 -0.6230
 6079TIP3    H218244   0.127   1.544   1.610 -1.1872 -0.7677  0.2329
 6080TIP3   OH218245   0.489   2.777   3.994  0.2179 -0.4502 -0.0435
 6080TIP3    H118246   0.468   2.834   3.920 -0.2599  1.0464  1.2006
 6080TIP3    H218247   0.582   2.759   3.985  0.8183  2.0687  0.5130
 6081TIP3   OH218248   1.576   5.271   0.334 -0.5779 -0.0857 -0.7739
 6081TIP3    H118249   1.606   5.358   0.362 -1.6361  0.2786 -0.7242
 6081TIP3    H218250   1.604   5.212   0.404  2.0392 -0.1693 -1.7985
 6082TIP3   OH218251   0.032   5.670   4.716  0.2627 -0.1523  0.0093
 6082TIP3    H118252   0.110   5.658   4.661 -0.1621 -0.7193 -0.4868
 6082TIP3    H218253   0.066   5.681   4.804  0.8838 -0.8983 -0.1255
 6083TIP3   OH218254   4.419   3.318   4.045  0.5570  0.6468 -0.8448
 6083TIP3    H118255   4.511   3.292   4.050  0.3074 -0.0308  1.4395
 6083TIP3    H218256   4.375   3.242   4.007  0.8739  0.8493 -1.6390
 6084TIP3   OH218257   0.483   1.831   4.049  0.4285 -0.1794 -0.1964
 6084TIP3    H118258   0.542   1.905   4.063 -0.6522  0.9113 -1.1377
 6084TIP3    H218259   0.396   1.871   4.045  0.0210 -1.1362 -3.3326
 6085TIP3   OH218260   2.117   4.846   4.608 -0.0708 -0.0083  0.3173
 6085TIP3    H118261   2.188   4.907   4.591  1.2950 -1.8697 -1.0464
 6085TIP3    H218262   2.151   4.787   4.676 -0.3796 -0.7664 -0.1701
 6086TIP3   OH218263   3.927   5.401   5.068 -0.7202  0.4542 -0.6589
 6086TIP3    H118264   3.919   5.494   5.046 -1.9084  0.7640  0.9080
 6086TIP3    H218265   3.838   5.367   5.057 -0.7485  0.0059  0.8166
 6087TIP3   OH218266   1.133   2.646   1.095 -0.8477  0.1567 -0.2264
 6087TIP3    H118267   1.048   2.613   1.124 -1.3509  2.2405  0.8712
 6087TIP3    H218268   1.118   2.740   1.080  0.8483  0.2381 -1.7374
 6088TIP3   OH218269   3.979   1.328   2.202  0.3165 -0.0925  0.0770
 6088TIP3    H118270   3.971   1.270   2.278 -0.0871 -0.6557 -0.3884
 6088TIP3    H218271   3.965   1.271   2.127  1.7175  0.2557 -0.4837
 6089TIP3   OH218272   5.714   3.405   3.394 -0.2886 -0.1427 -0.7423
 6089TIP3    H118273   5.781   3.340   3.413  0.5793  1.0388  0.4407
 6089TIP3    H218274   5.633   3.355   3.384  0.4129 -1.4169 -0.2286
 6090TIP3   OH218275   1.649   2.594   2.038  0.2604 -0.7695 -0.0884
 6090TIP3    H118276   1.646   2.638   2.123 -1.0416 -0.0618 -0.4585
 6090TIP3    H218277   1.574   2.535   2.040 -0.6459  0.2766 -1.2343
 6091TIP3   OH218278   5.376   3.005   4.458 -0.4190 -0.1425 -0.0812
 6091TIP3    H118279   5.287   2.977   4.435 -0.2014 -0.6186 -0.3467
 6091TIP3    H218280   5.373   3.016   4.553 -0.9372  0.4809 -0.1589
 6092TIP3   OH218281   4.756   2.048   3.882  0.2676 -0.0654 -0.7414
 6092TIP3    H118282   4.779   2.122   3.939 -1.1556 -0.3846  0.2929
 6092TIP3    H218283   4.712   2.087   3.807  1.6864  0.3148 -1.4064
 6093TIP3   OH218284   3.990   3.121   3.314  0.2874  0.1875 -0.2138
 6093TIP3    H118285   3.939   3.040   3.319 -1.7542  1.4435  0.5916
 6093TIP3    H218286   4.016   3.138   3.405 -1.2075  1.5261  0.0111
 6094TIP3   OH218287   3.634   2.055   3.081 -0.4348 -0.7766 -0.2308
 6094TIP3    H118288   3.726   2.080   3.069 -0.7730  1.5526  1.2684
 6094TIP3    H218289   3.623   1.977   3.027  2.6955 -1.8171  0.4136
 6095TIP3   OH218290   1.899   5.157   3.254  0.3909  0.5276  0.1950
 6095TIP3    H118291   1.841   5.214   3.304  0.1843 -0.0452  0.6350
 6095TIP3    H218292   1.862   5.156   3.166  0.9427  1.8024 -0.0733
 6096TIP3   OH218293   1.771   0.691   5.087  0.3254 -0.5274  0.1809
 6096TIP3    H118294   1.843   0.660   5.031  0.8616  0.6540  0.1941
 6096TIP3    H218295   1.767   0.785   5.071 -1.4902 -0.6138 -0.1093
 6097TIP3   OH218296   0.622   5.597   3.495  0.1937  0.4280 -0.0446
 6097TIP3    H118297   0.555   5.606   3.427 -1.4224 -0.2029  1.3894
 6097TIP3    H218298   0.653   5.686   3.510 -1.7824  1.0420  0.6466
 6098TIP3   OH218299   4.136   0.218   4.921  0.0964 -0.3273  0.0288
 6098TIP3    H118300   4.173   0.299   4.886  2.0223 -2.1634 -2.6354
 6098TIP3    H218301   4.194   0.194   4.993  0.8840 -0.4152 -0.6172
 6099TIP3   OH218302   1.232   2.218   2.417 -0.3881 -0.0505 -0.2514
 6099TIP3    H118303   1.146   2.226   2.376 -1.0406  1.7658  1.3172
 6099TIP3    H218304   1.231   2.132   2.459 -2.6829  1.0134  2.2050
 6100TIP3   OH218305   6.259   5.460   4.942 -0.0411 -0.0847 -0.2096
 6100TIP3    H118306   6.213   5.480   4.861 -0.8275  0.4541  0.3571
 6100TIP3    H218307   6.326   5.528   4.950  0.1357 -0.2247 -0.4726
 6101TIP3   OH218308   6.291   0.620   1.137 -0.0919  0.3960 -0.0449
 6101TIP3    H118309   6.235   0.674   1.082  1.1872 -0.1087 -1.9634
 6101TIP3    H218310   6.247   0.616   1.221 -1.6829  1.9756 -0.7560
 6102TIP3   OH218311   1.741   4.213   2.322  0.0389 -0.4209 -1.0653
 6102TIP3    H118312   1.775   4.180   2.238 -0.8211 -0.7216 -1.3119
 6102TIP3    H218313   1.797   4.287   2.343 -0.1198  0.0642 -2.2357
 6103TIP3   OH218314   2.993   0.257   1.767 -1.2172  0.4201  0.4610
 6103TIP3    H118315   2.903   0.246   1.736 -1.3329 -0.6850  1.1288
 6103TIP3    H218316   2.984   0.287   1.858 -0.8853  3.5770 -0.4262
 6104TIP3   OH218317   3.786   2.556   4.387  0.6156  0.1003 -0.2418
 6104TIP3    H118318   3.846   2.591   4.452  1.8410  0.4235 -1.4893
 6104TIP3    H218319   3.776   2.626   4.323  0.1006 -0.4951 -0.8308
 6105TIP3   OH218320   2.004   3.675   5.135 -0.3370  0.2025 -0.4167
 6105TIP3    H118321   2.054   3.604   5.095  0.2646 -0.4866  1.4380
 6105TIP3    H218322   2.069   3.744   5.150  0.1353 -0.6605  1.9219
 6106TIP3   OH218323   2.004   5.193   1.143  0.7195  0.5264  0.4488
 6106TIP3    H118324   2.046   5.208   1.228 -1.2192  0.8277  1.4119
 6106TIP3    H218325   1.994   5.281   1.106  1.6125  0.3909 -0.1373
 6107TIP3   OH218326   3.307   2.828   4.140 -0.3191  0.2596 -0.0814
 6107TIP3    H118327   3.285   2.901   4.199 -0.7788 -0.5774  0.8212
 6107TIP3    H218328   3.249   2.757   4.167  0.2334 -0.5008 -0.8283
 6108TIP3   OH218329   0.898   2.097   3.728  0.3386 -0.0469 -0.0909
 6108TIP3    H118330   0.883   2.018   3.781  0.8830 -0.2256 -0.2038
 6108TIP3    H218331   0.991   2.115   3.737  0.8248 -1.0463 -2.3074
 6109TIP3   OH218332   1.929   1.945   1.036  0.4949 -0.1548  0.1437
 6109TIP3    H118333   2.014   1.984   1.014 -0.0860  1.1178  0.0692
 6109TIP3    H218334   1.916   1.967   1.128  0.7695 -1.3905  0.4963
 6110TIP3   OH218335   2.343   4.989   1.716 -0.3716 -0.5921  0.0291
 6110TIP3    H118336   2.283   5.046   1.764 -0.4224  1.0852 -1.9225
 6110TIP3    H218337   2.394   4.946   1.784 -3.0654 -1.3510  1.7551
 6111TIP3   OH218338   5.072   3.520   0.718  0.0024 -0.1842 -0.0948
 6111TIP3    H118339   5.140   3.501   0.783 -0.5965 -1.4181  0.1992
 6111TIP3    H218340   5.004   3.565   0.768  0.2630  0.3717 -0.2316
 6112TIP3   OH218341   2.967   5.859   4.197  0.2185 -0.1272 -0.0950
 6112TIP3    H118342   3.006   5.777   4.169 -0.6321 -0.7923  0.6241
 6112TIP3    H218343   2.906   5.882   4.126  0.8483  0.1815 -0.5488
 6113TIP3   OH218344   4.428   0.682   3.479 -0.7632  0.0884 -0.7742
 6113TIP3    H118345   4.349   0.733   3.497 -0.2745  0.8396 -0.7214
 6113TIP3    H218346   4.410   0.639   3.395 -1.0618  0.5704 -0.9575
 6114TIP3   OH218347   0.459   5.842   1.305 -0.2343 -0.9698 -0.4744
 6114TIP3    H118348   0.499   5.891   1.377 -0.1028 -1.3370 -0.2967
 6114TIP3    H218349   0.366   5.839   1.327 -0.3404 -0.2759 -0.7947
 6115TIP3   OH218350   1.540   3.152   0.590 -0.2810 -0.0098 -0.0174
 6115TIP3    H118351   1.618   3.133   0.537  0.4073  1.4111  0.4275
 6115TIP3    H218352   1.496   3.068   0.599  0.0477 -0.4561 -2.0995
 6116TIP3   OH218353   2.444   4.347   4.228  0.6454 -0.0312  0.1937
 6116TIP3    H118354   2.493   4.406   4.171  2.1566 -0.8923  0.5647
 6116TIP3    H218355   2.505   4.323   4.297  0.2183 -2.3101 -0.1249
 6117TIP3   OH218356   6.155   0.045   0.830  0.7809  0.0983  0.0712
 6117TIP3    H118357   6.241   0.048   0.788 -0.5980  1.6007 -2.9120
 6117TIP3    H218358   6.123  -0.044   0.813  0.8300  0.2426 -0.7847
 6118TIP3   OH218359   0.521   1.566   3.701 -0.1015 -0.2909  0.6056
 6118TIP3    H118360   0.544   1.659   3.706  0.2668 -0.2818 -0.7953
 6118TIP3    H218361   0.431   1.561   3.732 -0.5271  0.7215 -0.4067
 6119TIP3   OH218362   5.928   2.440   3.906  0.3919 -0.5746 -0.9558
 6119TIP3    H118363   6.024   2.442   3.908  0.3786  0.2555 -0.4426
 6119TIP3    H218364   5.903   2.404   3.991  0.2475  0.0524 -0.7254
 6120TIP3   OH218365   1.929   4.643   1.493  0.3674 -0.0100 -0.5589
 6120TIP3    H118366   1.889   4.558   1.512 -0.2019  0.3801 -0.0332
 6120TIP3    H218367   1.858   4.696   1.458  0.2466  0.8912  0.9820
 6121TIP3   OH218368   3.869   5.917   2.197  0.2090  0.2352  0.0794
 6121TIP3    H118369   3.948   5.888   2.241  0.6377 -1.1826 -1.5210
 6121TIP3    H218370   3.897   5.938   2.108 -1.0846  0.3771 -0.3197
 6122TIP3   OH218371   1.773   0.421   0.740  0.3588  0.3006  0.1572
 6122TIP3    H118372   1.751   0.359   0.811 -0.0431  0.8355  0.5061
 6122TIP3    H218373   1.724   0.389   0.665 -0.1715  0.4252  0.4462
 6123TIP3   OH218374   0.308   4.348   2.489  0.2043  0.0472  0.1535
 6123TIP3    H118375   0.386   4.295   2.508 -0.1347 -0.4756  0.0993
 6123TIP3    H218376   0.294   4.336   2.395  0.4382  0.6699  0.0293
 6124TIP3   OH218377   4.167   3.692   1.940 -0.0917 -0.1527 -0.0002
 6124TIP3    H118378   4.100   3.732   1.885  1.4263  1.6812 -0.6336
 6124TIP3    H218379   4.196   3.615   1.891 -2.0085 -1.2748  0.5220
 6125TIP3   OH218380   0.069   0.929   1.881  0.1545  0.0629 -0.3692
 6125TIP3    H118381   0.002   0.960   1.820 -0.8453  1.8418  1.4890
 6125TIP3    H218382   0.023   0.868   1.938  0.8406 -0.8740 -0.8069
 6126TIP3   OH218383   2.530   1.717   2.655 -0.1321 -0.2616  0.3096
 6126TIP3    H118384   2.559   1.808   2.648  2.3559 -0.9754  0.0312
 6126TIP3    H218385   2.556   1.690   2.743  1.2987 -1.2784 -0.3607
 6127TIP3   OH218386   1.071   3.073   0.241  0.0479 -0.3368  0.1504
 6127TIP3    H118387   1.163   3.060   0.263  0.4759  0.8840 -0.7957
 6127TIP3    H218388   1.046   2.994   0.193  0.9534 -0.1701 -0.6172
 6128TIP3   OH218389   1.121   3.014   1.821  0.1710  0.0962  0.2843
 6128TIP3    H118390   1.033   2.977   1.825  0.0747  0.3487  0.5351
 6128TIP3    H218391   1.111   3.104   1.852  0.3201  0.4827 -0.7602
 6129TIP3   OH218392   2.128   4.107   0.082  0.0923  0.0511  0.4300
 6129TIP3    H118393   2.108   4.196   0.110  0.6398 -0.0460  1.1795
 6129TIP3    H218394   2.135   4.058   0.164 -2.2051 -1.1358 -0.0324
 6130TIP3   OH218395   0.232   4.321   2.745  0.0050  0.4944 -0.3031
 6130TIP3    H118396   0.253   4.323   2.652 -1.0051 -0.2650 -0.5619
 6130TIP3    H218397   0.316   4.308   2.789  0.4567  0.6201 -1.1126
 6131TIP3   OH218398   2.524   0.897   3.463 -0.2057  0.1965  0.7149
 6131TIP3    H118399   2.439   0.854   3.464  0.3407 -0.9560  0.0918
 6131TIP3    H218400   2.550   0.902   3.555 -1.5874  1.9751  1.0767
 6132TIP3   OH218401   5.163   5.154   3.650  0.3695 -0.4768 -0.8398
 6132TIP3    H118402   5.207   5.237   3.632 -1.2693  0.3437 -1.2588
 6132TIP3    H218403   5.092   5.176   3.710  1.1473 -1.9511  0.7275
 6133TIP3   OH218404   3.302   2.780   0.906 -0.3773 -0.0706 -0.0524
 6133TIP3    H118405   3.297   2.771   1.002 -0.3114  0.5885  0.0162
 6133TIP3    H218406   3.255   2.704   0.873 -0.1337 -0.4772  0.5044
 6134TIP3   OH218407   2.949   0.623   0.336 -0.0172 -0.0520 -0.0021
 6134TIP3    H118408   2.982   0.612   0.425  0.5460  1.4941  0.0112
 6134TIP3    H218409   2.859   0.591   0.339  0.2666 -0.7768  0.9150
 6135TIP3   OH218410   2.252   0.536   3.987  0.3172  0.4704  0.6260
 6135TIP3    H118411   2.211   0.564   4.069 -1.1465 -0.9254  0.4127
 6135TIP3    H218412   2.225   0.600   3.922  0.6790  1.0323  1.0220
 6136TIP3   OH218413   4.048   3.347   0.401 -0.0404 -0.2569  0.1422
 6136TIP3    H118414   4.047   3.297   0.482  2.0415  1.4565  1.3109
 6136TIP3    H218415   3.961   3.387   0.396 -0.4639 -1.0467  1.0826
 6137TIP3   OH218416   5.626   5.572   4.076  0.0604  0.3828  0.1667
 6137TIP3    H118417   5.688   5.500   4.075 -0.7102 -0.3058  0.5627
 6137TIP3    H218418   5.675   5.647   4.042  0.5348 -0.5869 -1.3639
 6138TIP3   OH218419   4.594   0.320   1.244  0.1489 -0.1477  0.3055
 6138TIP3    H118420   4.575   0.283   1.330  1.1642  0.4451  0.7968
 6138TIP3    H218421   4.644   0.252   1.199 -0.7007 -0.6075  0.0260
 6139TIP3   OH218422   5.876   3.646   0.044  0.2276  0.1111 -0.1067
 6139TIP3    H118423   5.823   3.725   0.037  1.6387  0.9430 -2.3527
 6139TIP3    H218424   5.918   3.653   0.130 -1.0648  0.8531  0.4847
 6140TIP3   OH218425   0.590   4.415   2.197 -0.3485  0.1137  0.1743
 6140TIP3    H118426   0.623   4.326   2.204  2.4158  1.0782  1.0213
 6140TIP3    H218427   0.609   4.440   2.106 -1.8685 -0.3722 -0.3039
 6141TIP3   OH218428   2.601   3.192   4.670  0.3420  0.1476  0.2130
 6141TIP3    H118429   2.692   3.217   4.656  0.1818  0.2661 -0.6783
 6141TIP3    H218430   2.567   3.258   4.731  1.0118 -0.2761  1.0736
 6142TIP3   OH218431   0.424   1.610   3.297 -0.0726  0.2263  0.9393
 6142TIP3    H118432   0.389   1.524   3.274 -0.5342  0.9294 -1.2780
 6142TIP3    H218433   0.514   1.593   3.325  0.4966 -0.8445 -1.3343
 6143TIP3   OH218434   6.055   0.494   5.164 -0.2597 -0.0195  0.4184
 6143TIP3    H118435   5.974   0.444   5.156  1.1569 -2.2421 -0.9993
 6143TIP3    H218436   6.058   0.546   5.083 -0.1806 -0.0615  0.3949
 6144TIP3   OH218437   6.074   5.141   4.328  0.4363  0.1846 -0.9909
 6144TIP3    H118438   6.041   5.222   4.291  0.7066  0.0104 -1.6308
 6144TIP3    H218439   6.165   5.160   4.352  0.1927  0.3670 -0.1781
 6145TIP3   OH218440   3.322   5.409   1.975  0.2581 -0.2529  0.5635
 6145TIP3    H118441   3.236   5.445   1.952  1.1799  1.8729  0.2760
 6145TIP3    H218442   3.375   5.420   1.896  0.4466 -2.9904  0.1814
 6146TIP3   OH218443   1.863   3.241   4.089 -0.0565 -0.3337  0.0864
 6146TIP3    H118444   1.849   3.297   4.165  0.6054 -1.4995  1.0912
 6146TIP3    H218445   1.958   3.240   4.077 -0.1524 -0.1223 -0.8076
 6147TIP3   OH218446   1.964   4.951   1.232  0.3120  0.1474 -0.0563
 6147TIP3    H118447   1.955   4.876   1.174  1.0179 -0.6835  0.8707
 6147TIP3    H218448   1.986   5.024   1.175 -0.9342 -0.2097 -1.0441
 6148TIP3   OH218449   5.439   0.687   2.107 -0.2175 -0.0723 -0.3380
 6148TIP3    H118450   5.354   0.656   2.138  1.2160 -2.6419  1.3137
 6148TIP3    H218451   5.487   0.710   2.187  0.5074  1.9052 -1.2692
 6149TIP3   OH218452   0.145   1.558   4.602 -0.7525 -0.1268 -0.3281
 6149TIP3    H118453   0.131   1.467   4.625  1.0436 -0.4325 -0.3590
 6149TIP3    H218454   0.234   1.578   4.630 -0.6844  1.2773 -1.3762
 6150TIP3   OH218455   5.606   1.137   4.775 -0.1024  0.5507 -0.1749
 6150TIP3    H118456   5.698   1.110   4.767  0.3600  2.0180 -0.2334
 6150TIP3    H218457   5.609   1.213   4.833 -1.1319  1.3144 -1.0770
 6151TIP3   OH218458   4.803   2.818   5.101  0.1457 -0.0076 -0.1125
 6151TIP3    H118459   4.713   2.789   5.113  0.2457  0.1898  1.2609
 6151TIP3    H218460   4.844   2.748   5.051 -0.4077 -0.8011  0.5144
 6152TIP3   OH218461   1.862   0.926   1.495  0.3138 -0.1389 -0.5959
 6152TIP3    H118462   1.943   0.915   1.545  0.0712  1.9733  0.3475
 6152TIP3    H218463   1.881   0.885   1.411  2.4072  0.3692 -0.4381
 6153TIP3   OH218464   4.416   5.685   1.030  0.0949 -0.1938 -0.1169
 6153TIP3    H118465   4.466   5.603   1.031  2.5661  1.1848 -0.8517
 6153TIP3    H218466   4.468   5.744   1.085 -0.8872  1.2644 -0.7059
 6154TIP3   OH218467   0.089   1.949   4.636 -0.2220 -0.1151  0.4290
 6154TIP3    H118468   0.085   1.895   4.557  2.2972 -0.1336  0.2051
 6154TIP3    H218469   0.105   2.037   4.604 -3.9701  0.8366  0.8095
 6155TIP3   OH218470   3.808   3.497   0.348  0.4043 -0.2701  0.4245
 6155TIP3    H118471   3.713   3.510   0.352  0.5652  0.8352  0.8598
 6155TIP3    H218472   3.841   3.574   0.301  1.1170 -0.4855  0.5594
 6156TIP3   OH218473   4.996   2.664   1.633  0.1987 -0.4390 -0.0055
 6156TIP3    H118474   5.063   2.682   1.566  0.7673  0.2738  0.7285
 6156TIP3    H218475   4.928   2.729   1.616  0.5592  0.0499  0.3824
 6157TIP3   OH218476   0.263   3.352   0.711  0.2217 -0.2947 -0.1808
 6157TIP3    H118477   0.240   3.346   0.618  0.1605  1.5717 -0.3294
 6157TIP3    H218478   0.356   3.374   0.711 -0.3739  2.5966  0.0443
 6158TIP3   OH218479   3.918   1.623   4.613  0.0088  0.2560 -0.4087
 6158TIP3    H118480   3.970   1.581   4.544  1.0432  2.2796 -0.9622
 6158TIP3    H218481   3.966   1.605   4.694  0.5461  0.5284 -0.6635
 6159TIP3   OH218482   4.795   4.629   4.126 -0.5654 -0.4360 -0.0150
 6159TIP3    H118483   4.728   4.594   4.185 -0.7534 -0.2890 -0.1424
 6159TIP3    H218484   4.763   4.715   4.101  0.9781  0.8857  2.1254
 6160TIP3   OH218485   2.925   2.752   5.165  0.7818  0.0725 -0.1372
 6160TIP3    H118486   2.900   2.692   5.095  0.1930  1.2450 -0.9624
 6160TIP3    H218487   3.002   2.712   5.205  0.3233 -1.2882 -0.5695
 6161TIP3   OH218488   0.061   1.837   0.801 -0.1205 -0.2387  0.2949
 6161TIP3    H118489   0.025   1.759   0.842  0.7924 -0.5134  0.6064
 6161TIP3    H218490   0.087   1.809   0.713  0.0146 -0.2359  0.3334
 6162TIP3   OH218491   1.329   2.794   1.512 -0.1606  0.0319  0.2736
 6162TIP3    H118492   1.333   2.769   1.605 -1.5850 -1.0769  0.0750
 6162TIP3    H218493   1.420   2.807   1.487  0.4296 -1.7403  1.3036
 6163TIP3   OH218494   5.727   3.116   0.541 -0.2648 -0.2920  0.6052
 6163TIP3    H118495   5.749   3.193   0.593 -0.5904  0.0674  0.2173
 6163TIP3    H218496   5.770   3.043   0.586  2.4400  0.4541 -0.5673
 6164TIP3   OH218497   0.816   3.756   4.522 -0.2532  0.4458 -0.1476
 6164TIP3    H118498   0.787   3.671   4.556 -1.7998  1.0513  0.1363
 6164TIP3    H218499   0.906   3.766   4.555 -0.3026 -0.7525  0.4026
 6165TIP3   OH218500   1.153   1.015   3.737  0.1359 -0.5065 -0.8043
 6165TIP3    H118501   1.106   0.937   3.767 -1.6640  0.5370 -0.8199
 6165TIP3    H218502   1.214   1.034   3.809 -0.2771 -1.2048 -0.2449
 6166TIP3   OH218503   3.246   2.503   2.486  0.2778  0.2679  0.2519
 6166TIP3    H118504   3.160   2.486   2.524 -0.2734 -2.9765 -1.9968
 6166TIP3    H218505   3.299   2.534   2.559 -2.4967  1.4363  1.9207
 6167TIP3   OH218506   5.369   1.533   1.074  0.4198 -0.7863 -0.3481
 6167TIP3    H118507   5.448   1.587   1.081  1.0348 -1.5590 -1.1390
 6167TIP3    H218508   5.358   1.495   1.161 -0.4285  1.1136  0.4421
 6168TIP3   OH218509   1.443   0.200   3.024 -0.0842  0.6019  0.1470
 6168TIP3    H118510   1.491   0.139   3.079 -0.5973  1.1583  1.2311
 6168TIP3    H218511   1.488   0.196   2.939  1.0441  0.1331  0.7508
 6169TIP3   OH218512   1.515   4.798   1.311 -0.3462  0.6265  0.0738
 6169TIP3    H118513   1.514   4.703   1.318  0.3681  0.6004 -0.0894
 6169TIP3    H218514   1.438   4.819   1.259 -0.3149  0.1039 -0.1914
 6170TIP3   OH218515   0.187   3.815   2.218 -0.2773  0.5222 -0.0326
 6170TIP3    H118516   0.261   3.780   2.168 -1.4119  1.2224 -2.3070
 6170TIP3    H218517   0.116   3.754   2.201 -0.8206  1.0333  0.3778
 6171TIP3   OH218518   3.580   2.342   2.754  0.1262  0.1296 -0.4282
 6171TIP3    H118519   3.568   2.247   2.761 -0.4721  0.0380 -2.2689
 6171TIP3    H218520   3.653   2.361   2.813  0.3960 -1.4988 -0.1923
 6172TIP3   OH218521   5.370   4.342   2.659  0.6044  0.2984 -0.5800
 6172TIP3    H118522   5.383   4.336   2.564  0.9809 -1.3117 -0.4484
 6172TIP3    H218523   5.458   4.347   2.695  0.4947  0.0606 -0.2768
 6173TIP3   OH218524   4.288   3.651   1.116 -0.2261  0.4113 -0.1593
 6173TIP3    H118525   4.227   3.689   1.052  0.3591  1.4065 -0.1415
 6173TIP3    H218526   4.350   3.601   1.063 -0.0538  0.8028 -0.3329
 6174TIP3   OH218527   0.997   4.839   3.577 -0.3508  0.1723 -0.1783
 6174TIP3    H118528   0.975   4.800   3.661 -0.0270 -0.6735 -0.4801
 6174TIP3    H218529   0.914   4.843   3.530 -0.0759 -2.2745 -1.0087
 6175TIP3   OH218530   4.567   1.571   0.806 -0.1589  0.2257 -0.0696
 6175TIP3    H118531   4.587   1.647   0.861 -0.8638  0.6481 -0.3789
 6175TIP3    H218532   4.607   1.592   0.721 -0.3005  0.2219 -0.1376
 6176TIP3   OH218533   5.234   1.965   2.039  0.6790 -0.2156  0.0579
 6176TIP3    H118534   5.190   1.880   2.049  0.3045 -0.2559 -1.5279
 6176TIP3    H218535   5.288   1.974   2.117 -0.8969 -0.9286  1.2912
 6177TIP3   OH218536   2.900   5.631   3.567  0.1282  0.9394 -0.6517
 6177TIP3    H118537   2.896   5.634   3.472  1.2407  0.5289 -0.7264
 6177TIP3    H218538   2.824   5.682   3.596 -0.8345  0.1757 -1.7438
 6178TIP3   OH218539   2.780   3.521   0.766 -0.6534  0.1211  0.2823
 6178TIP3    H118540   2.693   3.515   0.807 -0.1390  0.2289  1.4276
 6178TIP3    H218541   2.797   3.432   0.734 -0.8576 -0.0993  0.7681
 6179TIP3   OH218542   5.970   2.877   2.085 -0.2321 -0.0342  0.0868
 6179TIP3    H118543   5.933   2.805   2.135  0.0790  0.5414  1.1643
 6179TIP3    H218544   5.893   2.926   2.054 -0.4232  0.3482  1.1181
 6180TIP3   OH218545   0.760   0.725   5.001 -0.1569  0.0198  0.3998
 6180TIP3    H118546   0.799   0.638   4.995 -0.3042  0.0240 -0.8510
 6180TIP3    H218547   0.792   0.760   5.085 -1.2265 -1.7555  1.5992
 6181TIP3   OH218548   5.189   0.936   0.815 -0.0623 -0.3824  0.1828
 6181TIP3    H118549   5.206   1.023   0.778  0.3332 -0.9711 -1.0509
 6181TIP3    H218550   5.102   0.943   0.854 -1.6950 -0.4238 -3.1309
 6182TIP3   OH218551   2.634   4.196   0.792  0.1567  0.3662  0.3603
 6182TIP3    H118552   2.712   4.227   0.837 -0.1127  1.1090  0.3270
 6182TIP3    H218553   2.574   4.170   0.862  0.1686  0.4595  0.4051
 6183TIP3   OH218554   1.452   5.768   1.492 -0.6720  0.2769 -0.0038
 6183TIP3    H118555   1.513   5.785   1.421  0.7184  1.3242  1.3743
 6183TIP3    H218556   1.418   5.680   1.474  1.0818 -0.2459 -0.9295
 6184TIP3   OH218557   2.749   5.902   2.309  0.1883  0.3894  0.2886
 6184TIP3    H118558   2.776   5.962   2.240 -0.9639  0.3226 -0.2371
 6184TIP3    H218559   2.663   5.935   2.338  0.7470  0.5585  1.8600
 6185TIP3   OH218560   3.194   1.521   2.160 -0.2939 -0.0501 -0.4658
 6185TIP3    H118561   3.124   1.462   2.185 -1.1056 -0.1189 -2.6810
 6185TIP3    H218562   3.273   1.484   2.199 -1.1661 -1.1724  0.2689
 6186TIP3   OH218563   0.148   2.372   3.614 -0.3047  0.1860  0.3953
 6186TIP3    H118564   0.070   2.427   3.617  0.0499  0.7824 -0.7755
 6186TIP3    H218565   0.219   2.430   3.640 -0.0427  0.0904 -0.0876
 6187TIP3   OH218566   2.645   5.299   0.370  0.3139  0.9070 -0.4633
 6187TIP3    H118567   2.563   5.273   0.327  1.0850 -0.8417 -0.9644
 6187TIP3    H218568   2.676   5.219   0.412  0.6547  2.0927  1.6431
 6188TIP3   OH218569   4.612   1.705   4.856  0.3684 -0.3573 -0.0185
 6188TIP3    H118570   4.586   1.724   4.946  2.3006  0.1828  0.4571
 6188TIP3    H218571   4.590   1.612   4.845 -0.8303 -0.1792  0.6368
 6189TIP3   OH218572   1.215   1.085   0.709  0.0027  0.4368  0.3962
 6189TIP3    H118573   1.225   1.180   0.711 -2.5666  0.7870  1.1665
 6189TIP3    H218574   1.205   1.060   0.801 -3.0400  0.0400  0.0865
 6190TIP3   OH218575   1.856   4.979   0.741  0.1240 -0.0446 -0.1970
 6190TIP3    H118576   1.917   4.989   0.668 -0.6979  0.5004 -0.8317
 6190TIP3    H218577   1.769   4.988   0.701 -0.3430  0.2710  0.8505
 6191TIP3   OH218578   2.402   1.769   5.197  0.6357  0.0188 -0.1585
 6191TIP3    H118579   2.393   1.818   5.115  0.2594 -1.4542 -1.0259
 6191TIP3    H218580   2.489   1.794   5.230 -0.1284  2.4314  0.2625
 6192TIP3   OH218581   2.414   4.729   4.448  0.0880  0.2553 -0.7883
 6192TIP3    H118582   2.405   4.824   4.457  0.7090  0.0998  3.4971
 6192TIP3    H218583   2.325   4.696   4.457  0.2034  0.3783  1.2864
 6193TIP3   OH218584   5.131   0.166   0.574 -0.3547 -0.5884  0.2890
 6193TIP3    H118585   5.115   0.134   0.663  0.7124 -1.8791  0.0444
 6193TIP3    H218586   5.070   0.117   0.519 -1.9875  1.1786  0.4135
 6194TIP3   OH218587   5.371   2.607   3.292 -0.0607 -0.6600  0.1995
 6194TIP3    H118588   5.405   2.668   3.228 -0.1599 -1.3983 -0.5769
 6194TIP3    H218589   5.296   2.566   3.249  0.7803 -2.2643  0.1935
 6195TIP3   OH218590   1.545   4.792   4.249  0.2305  0.6771  0.5234
 6195TIP3    H118591   1.480   4.862   4.252  0.2971  0.7024  1.8443
 6195TIP3    H218592   1.500   4.721   4.204 -0.1811  1.2186  0.0544
 6196TIP3   OH218593   6.063   3.623   2.023  0.8232 -0.7313 -0.0361
 6196TIP3    H118594   6.083   3.554   1.960 -0.4062 -0.3750 -0.8658
 6196TIP3    H218595   5.970   3.608   2.045  0.9844 -0.2947  0.9933
 6197TIP3   OH218596   5.312   0.928   1.447  0.4074 -0.4385  0.8604
 6197TIP3    H118597   5.236   0.986   1.454  1.2497  1.2176 -2.0525
 6197TIP3    H218598   5.275   0.840   1.452 -1.5758  0.3261  0.6737
 6198TIP3   OH218599   1.621   2.548   1.169 -0.1618  0.1697 -0.0402
 6198TIP3    H118600   1.653   2.591   1.249 -1.0279  1.1474 -0.1981
 6198TIP3    H218601   1.530   2.575   1.163  0.3472  1.6505 -2.3303
 6199TIP3   OH218602   3.957   0.846   3.453 -0.5629 -0.0791  0.0433
 6199TIP3    H118603   3.927   0.883   3.535 -0.8516  0.9295 -0.5000
 6199TIP3    H218604   3.879   0.806   3.414 -0.6973  0.4994 -0.2904
 6200TIP3   OH218605   4.526   0.577   2.606 -0.0901 -0.1379  0.1051
 6200TIP3    H118606   4.442   0.549   2.643 -0.1220 -0.4323 -0.1858
 6200TIP3    H218607   4.519   0.556   2.513  0.1166  0.2949 -0.0124
 6201TIP3   OH218608   0.525   2.196   4.302  0.5696 -0.0511 -0.3561
 6201TIP3    H118609   0.544   2.217   4.211  2.7177 -0.9688 -0.1762
 6201TIP3    H218610   0.532   2.280   4.348  0.8069  0.1993 -0.8448
 6202TIP3   OH218611   1.701   3.292   2.984  0.6035  0.7553 -0.2076
 6202TIP3    H118612   1.660   3.241   2.914  1.4280 -0.3281  0.0754
 6202TIP3    H218613   1.747   3.362   2.938 -0.3874  1.1513 -0.6134
 6203TIP3   OH218614   0.318   0.217   1.161 -0.4398  0.2454 -0.1324
 6203TIP3    H118615   0.289   0.278   1.228  1.9678 -0.6101  1.8478
 6203TIP3    H218616   0.238   0.178   1.127 -1.8742  2.5831  0.3556
 6204TIP3   OH218617   5.333   3.341   0.684 -0.2452  0.1634 -0.1227
 6204TIP3    H118618   5.347   3.282   0.759 -0.6102 -1.3811 -1.2029
 6204TIP3    H218619   5.376   3.422   0.709  2.2385 -1.2417  0.5721
 6205TIP3   OH218620   3.115   0.971   0.932 -0.4310  0.1752  0.1864
 6205TIP3    H118621   3.088   0.908   0.865  1.1609 -0.4395  0.0887
 6205TIP3    H218622   3.088   0.931   1.015 -0.6704  0.0296  0.0397
 6206TIP3   OH218623   1.192   3.065   1.552 -0.1042 -0.1636  0.1147
 6206TIP3    H118624   1.204   3.028   1.640  0.9534 -1.4413 -0.5183
 6206TIP3    H218625   1.238   3.004   1.495 -1.0269  0.4851 -1.3746
 6207TIP3   OH218626   4.243   3.070   1.061  0.1247  0.1125  0.2984
 6207TIP3    H118627   4.307   3.090   0.993 -1.5854  0.6251 -1.2726
 6207TIP3    H218628   4.264   2.982   1.089  0.1901 -0.6179 -1.8236
 6208TIP3   OH218629   4.283   5.471   4.119  0.1730 -0.1367  0.7756
 6208TIP3    H118630   4.225   5.433   4.053  1.1058 -0.1329 -0.0700
 6208TIP3    H218631   4.289   5.404   4.187 -0.8647 -0.1080  0.9158
 6209TIP3   OH218632   0.741   4.899   4.542  0.2548  0.1134  0.3628
 6209TIP3    H118633   0.659   4.916   4.497 -0.3605 -0.5738  1.1960
 6209TIP3    H218634   0.777   4.822   4.497  0.6971  0.7193 -0.3282
 6210TIP3   OH218635   6.222   5.930   2.488  0.6441 -0.1002  0.1833
 6210TIP3    H118636   6.187   5.915   2.575  0.3149 -1.3770 -0.1499
 6210TIP3    H218637   6.167   5.878   2.430  2.0693 -0.8759 -0.5449
 6211TIP3   OH218638   1.982   5.664   3.161 -0.2317  0.2478 -0.6435
 6211TIP3    H118639   2.032   5.612   3.098 -0.9329 -2.3445  0.8076
 6211TIP3    H218640   2.033   5.659   3.242 -0.6811  1.2666 -0.2749
 6212TIP3   OH218641   1.173   4.894   2.301 -0.5116 -0.1221  0.5653
 6212TIP3    H118642   1.264   4.874   2.280 -0.8323 -0.4347 -0.5811
 6212TIP3    H218643   1.122   4.854   2.230 -1.5231  0.2867  1.0379
 6213TIP3   OH218644   3.690   1.524   1.270 -0.3330 -0.3554  0.2145
 6213TIP3    H118645   3.650   1.501   1.186 -1.7399 -0.4661  0.8689
 6213TIP3    H218646   3.622   1.503   1.335  1.1022 -1.3367  1.4932
 6214TIP3   OH218647   2.485   1.350   0.204  0.2392  0.5964 -0.6023
 6214TIP3    H118648   2.422   1.399   0.257 -1.1865 -1.2201 -0.5119
 6214TIP3    H218649   2.538   1.302   0.268 -0.8268 -0.8196 -0.7378
 6215TIP3   OH218650   3.149   0.529   0.126  0.4141  0.6873 -0.0405
 6215TIP3    H118651   3.173   0.437   0.118  0.3491  0.5865  0.7920
 6215TIP3    H218652   3.054   0.528   0.137  0.3158  0.9141 -0.7989
 6216TIP3   OH218653   0.094   5.670   5.000 -0.3130  0.1551  0.0589
 6216TIP3    H118654   0.068   5.715   5.081  0.1177 -0.8609  0.7948
 6216TIP3    H218655   0.189   5.678   4.998 -0.3712  0.7988 -0.7526
 6217TIP3   OH218656   4.260   4.055   2.508 -0.3866 -0.2115  0.9793
 6217TIP3    H118657   4.290   4.140   2.478 -1.4681 -0.1195  0.0895
 6217TIP3    H218658   4.283   3.995   2.437  1.4846 -0.9250  2.1176
 6218TIP3   OH218659   3.648   1.873   0.085 -0.0468  0.0116  0.2310
 6218TIP3    H118660   3.616   1.877  -0.005 -1.2322 -0.2073  0.6163
 6218TIP3    H218661   3.633   1.783   0.112 -0.8704  0.3683  1.0327
 6219TIP3   OH218662   1.845   4.946   4.787 -0.3424 -0.5863  0.6345
 6219TIP3    H118663   1.751   4.956   4.797 -0.2050 -0.7507  2.7618
 6219TIP3    H218664   1.872   4.901   4.867  1.3324 -2.0392 -0.6640
 6220TIP3   OH218665   4.195   5.771   0.700 -0.3447  0.2085  0.3314
 6220TIP3    H118666   4.171   5.730   0.783  0.3343  0.9910  0.9341
 6220TIP3    H218667   4.264   5.833   0.723 -0.3278  0.6289 -0.7837
 6221TIP3   OH218668   1.632   2.779   4.181  0.3028 -0.0194 -0.1785
 6221TIP3    H118669   1.637   2.873   4.160  0.5604 -0.1984 -0.9690
 6221TIP3    H218670   1.699   2.739   4.125 -1.3025 -0.9451 -1.5091
 6222TIP3   OH218671   4.793   2.517   4.277  0.3229  0.4471  0.0226
 6222TIP3    H118672   4.831   2.579   4.215  0.8916  1.2147  1.1143
 6222TIP3    H218673   4.862   2.501   4.341 -0.3786 -0.0426  0.6757
 6223TIP3   OH218674   3.491   0.841   4.633 -0.0235 -0.7537  0.2790
 6223TIP3    H118675   3.465   0.750   4.618  0.5602 -1.0700  1.1072
 6223TIP3    H218676   3.574   0.851   4.588 -0.8314 -0.1622 -1.1343
 6224TIP3   OH218677   3.047   4.716   3.120 -0.5800  0.2278 -0.2969
 6224TIP3    H118678   3.094   4.643   3.080 -1.2365 -1.1077  1.2222
 6224TIP3    H218679   3.086   4.794   3.081  0.7167 -0.8987 -1.3849
 6225TIP3   OH218680   2.930   3.846   2.586 -0.6228  0.4740  0.6692
 6225TIP3    H118681   2.935   3.825   2.679  0.1849  1.0245  0.7654
 6225TIP3    H218682   2.905   3.938   2.583  1.4450  1.0905  0.4334
 6226TIP3   OH218683   2.095   4.540   2.180  0.5562  0.8471 -0.3209
 6226TIP3    H118684   2.172   4.577   2.221  0.6558  0.9352 -0.5816
 6226TIP3    H218685   2.121   4.451   2.155 -0.7118 -0.7551  3.3615
 6227TIP3   OH218686   5.093   4.749   2.688 -0.0394 -0.9213  0.1850
 6227TIP3    H118687   5.017   4.747   2.746 -0.2648 -2.3981 -0.1048
 6227TIP3    H218688   5.066   4.803   2.614 -0.1645  0.0059  0.8920
 6228TIP3   OH218689   4.317   5.526   0.086 -0.1190  0.2819  0.4377
 6228TIP3    H118690   4.326   5.621   0.082 -1.3468  0.3782 -0.8059
 6228TIP3    H218691   4.330   5.497  -0.004 -0.3858 -0.6542  0.6889
 6229TIP3   OH218692   6.038   0.317   1.691  0.0181 -0.2246 -0.3241
 6229TIP3    H118693   6.132   0.311   1.705  0.1182  0.0972 -0.8340
 6229TIP3    H218694   6.002   0.244   1.741  0.6810 -1.2954 -1.3395
 6230TIP3   OH218695   0.059   2.319   0.864 -0.3741 -0.4677  0.5749
 6230TIP3    H118696   0.109   2.306   0.784 -1.0474  0.5180 -0.0238
 6230TIP3    H218697   0.125   2.329   0.933  0.1995 -2.4155  0.3498
 6231TIP3   OH218698   4.034   5.464   4.490 -0.2414 -0.0701  0.3580
 6231TIP3    H118699   3.973   5.396   4.460 -1.5809  1.2613 -0.0816
 6231TIP3    H218700   4.022   5.466   4.585 -0.4756 -0.2027  0.3335
 6232TIP3   OH218701   2.570   1.376   1.562 -0.7019 -0.1363 -0.0418
 6232TIP3    H118702   2.538   1.312   1.626 -1.5614  1.3803  1.1125
 6232TIP3    H218703   2.514   1.453   1.574 -1.2620  0.0399 -3.0301
 6233TIP3   OH218704   6.231   5.691   0.660 -0.2799  0.0461  0.2895
 6233TIP3    H118705   6.324   5.675   0.646 -0.1768 -0.3078  1.2756
 6233TIP3    H218706   6.229   5.750   0.736 -0.8894 -0.8087  0.9530
 6234TIP3   OH218707   4.801   0.698   4.901  0.0530 -0.0147  0.1396
 6234TIP3    H118708   4.801   0.631   4.832  0.7633 -0.3092  0.4098
 6234TIP3    H218709   4.828   0.778   4.856 -2.1431  0.4526 -0.4796
 6235TIP3   OH218710   4.052   1.106   0.824 -0.2201  0.0953 -0.3927
 6235TIP3    H118711   4.021   1.041   0.886  0.9733 -0.9913 -0.8709
 6235TIP3    H218712   4.108   1.164   0.875 -1.7079  1.1230  0.1459
 6236TIP3   OH218713   1.112   1.392   0.485 -0.4691 -0.7196 -0.3520
 6236TIP3    H118714   1.123   1.426   0.396  0.8148 -1.3637 -0.4618
 6236TIP3    H218715   1.017   1.391   0.499 -0.6185  1.8340 -0.7265
 6237TIP3   OH218716   1.746   5.316   2.343  0.0401  0.1515  0.1818
 6237TIP3    H118717   1.759   5.290   2.434  0.6717  1.0283  0.3647
 6237TIP3    H218718   1.790   5.248   2.292  1.9412  0.9576  0.6551
 6238TIP3   OH218719   4.922   2.425   4.494  0.1707 -0.0317  0.1716
 6238TIP3    H118720   5.011   2.415   4.529  0.0639 -0.1126  0.4214
 6238TIP3    H218721   4.865   2.403   4.568 -0.0536 -1.3150 -0.3633
 6239TIP3   OH218722   2.531   4.567   1.976  0.2506 -0.0248 -0.1482
 6239TIP3    H118723   2.487   4.546   2.058  1.8429  0.9726  1.0235
 6239TIP3    H218724   2.614   4.608   2.003  2.6890 -3.1310 -2.1350
 6240TIP3   OH218725   6.275   3.172   1.664  0.5415 -0.5209  0.3687
 6240TIP3    H118726   6.306   3.260   1.688  0.3747 -0.4914  0.4787
 6240TIP3    H218727   6.307   3.116   1.735  2.2463 -0.8731 -0.6156
 6241TIP3   OH218728   2.644   1.471   2.262 -0.2728  0.1965 -0.1479
 6241TIP3    H118729   2.559   1.448   2.300  0.4116 -1.2599  0.6277
 6241TIP3    H218730   2.706   1.460   2.335  0.7085  0.2206 -0.9569
 6242TIP3   OH218731   0.919   4.758   1.806  0.0356  0.1160 -0.2405
 6242TIP3    H118732   0.925   4.724   1.716 -0.0993 -0.2203 -0.1203
 6242TIP3    H218733   0.880   4.845   1.795 -0.6667 -0.2228 -0.4357
 6243TIP3   OH218734   6.260   5.976   3.398  0.4290 -0.4116 -0.0383
 6243TIP3    H118735   6.296   6.010   3.479 -0.2962  1.2819 -0.3969
 6243TIP3    H218736   6.316   5.901   3.377  0.5656 -0.9527  2.0409
 6244TIP3   OH218737   3.832   5.857   3.154  0.4063  0.3596  0.2927
 6244TIP3    H118738   3.902   5.860   3.089 -0.2969  1.0846 -0.4605
 6244TIP3    H218739   3.875   5.833   3.236  1.2581 -0.9889 -0.5061
 6245TIP3   OH218740   5.982   0.174   4.540 -0.2476  0.0031 -0.3255
 6245TIP3    H118741   6.071   0.167   4.505 -0.0948 -0.9182  0.2041
 6245TIP3    H218742   5.960   0.267   4.532  0.2508  0.0346 -1.6866
 6246TIP3   OH218743   0.850   3.963   0.074  0.3485 -0.2161 -0.2366
 6246TIP3    H118744   0.872   3.895   0.138 -0.6923 -1.6162 -1.3244
 6246TIP3    H218745   0.759   3.986   0.094 -0.3185 -1.3702 -1.7747
 6247TIP3   OH218746   5.021   2.079   3.096  0.2687 -0.4327 -0.8590
 6247TIP3    H118747   5.070   2.155   3.065  0.0356  0.0850  0.0127
 6247TIP3    H218748   4.929   2.102   3.081 -0.1179  1.1720  2.8648
 6248TIP3   OH218749   3.606   0.969   0.019  0.6652  0.8431 -0.0113
 6248TIP3    H118750   3.588   0.984   0.111  2.0333  0.1134  0.3995
 6248TIP3    H218751   3.523   0.989  -0.025  0.6344  3.5682  1.0869
 6249TIP3   OH218752   0.950   1.009   1.153  0.3537 -0.0510  0.2914
 6249TIP3    H118753   1.030   1.028   1.201  0.3619  0.7602 -0.0256
 6249TIP3    H218754   0.915   1.095   1.129 -1.3349 -0.3231  1.5723
 6250TIP3   OH218755   5.787   2.495   2.735  0.2566 -0.3673 -0.5666
 6250TIP3    H118756   5.710   2.535   2.693  1.7521  1.8493 -1.3730
 6250TIP3    H218757   5.756   2.472   2.823 -1.3083  0.5772 -0.8150
 6251TIP3   OH218758   3.589   3.220   2.836  0.1502 -0.8107  0.1121
 6251TIP3    H118759   3.658   3.153   2.838  0.0080 -1.0475 -1.3577
 6251TIP3    H218760   3.633   3.301   2.858  0.8068 -1.0478 -0.2856
 6252TIP3   OH218761   6.262   4.325   1.641  0.2751 -0.2328 -0.1057
 6252TIP3    H118762   6.246   4.231   1.638 -0.7675 -0.0449 -1.0134
 6252TIP3    H218763   6.290   4.341   1.731 -1.2145 -1.1631  0.5790
 6253TIP3   OH218764   5.527   0.888   0.109  0.4138 -0.0767 -0.0973
 6253TIP3    H118765   5.527   0.792   0.104  0.0311 -0.0615 -0.4957
 6253TIP3    H218766   5.600   0.915   0.053  1.1587 -0.1625  0.8162
 6254TIP3   OH218767   2.467   0.403   1.892 -0.0602  0.2722  0.1055
 6254TIP3    H118768   2.516   0.453   1.958 -1.4253  0.8616  0.7153
 6254TIP3    H218769   2.381   0.388   1.933 -0.3260 -0.9170 -0.8422
 6255TIP3   OH218770   0.695   0.291   5.144 -0.1979 -0.3057 -0.1864
 6255TIP3    H118771   0.760   0.260   5.081  1.3557  2.2069 -0.0004
 6255TIP3    H218772   0.723   0.255   5.228  1.3412  1.1049 -0.0311
 6256TIP3   OH218773   4.749   0.031   5.098  0.0271  0.4268  0.1021
 6256TIP3    H118774   4.843   0.032   5.081  0.1883  3.2483  0.5712
 6256TIP3    H218775   4.733   0.112   5.146 -2.3044 -1.1627  2.2678
 6257TIP3   OH218776   5.723   3.374   0.698  0.5686 -0.1853 -0.1102
 6257TIP3    H118777   5.632   3.398   0.680  0.1796 -0.5163  1.3072
 6257TIP3    H218778   5.720   3.325   0.780  1.7928 -1.9052 -1.0293
 6258TIP3   OH218779   1.905   5.128   2.226  0.4126  0.2532  0.0890
 6258TIP3    H118780   1.883   5.186   2.153 -1.0562 -2.8243 -2.1561
 6258TIP3    H218781   1.964   5.063   2.188  2.0005  0.1823  2.4720
 6259TIP3   OH218782   1.352   1.387   4.828 -0.6398 -0.3756 -0.0705
 6259TIP3    H118783   1.362   1.412   4.920 -1.0537  2.1416 -0.6554
 6259TIP3    H218784   1.442   1.381   4.795 -0.5173  1.1980 -0.0854
 6260TIP3   OH218785   4.855   1.971   1.124 -0.8989  0.0283  0.3629
 6260TIP3    H118786   4.950   1.954   1.121 -0.9334 -0.3639  1.1613
 6260TIP3    H218787   4.816   1.889   1.094 -0.9941  0.0123  0.5308
 6261TIP3   OH218788   2.976   0.993   2.796 -0.2963 -0.2092  0.4687
 6261TIP3    H118789   2.982   1.057   2.868  1.4798  0.7352 -0.4427
 6261TIP3    H218790   3.014   0.913   2.833  1.3176  0.4844  0.4199
 6262TIP3   OH218791   0.684   2.013   4.087 -0.0507 -0.0226 -0.4154
 6262TIP3    H118792   0.725   2.072   4.150 -0.7707  0.2161 -0.1554
 6262TIP3    H218793   0.757   1.975   4.039  0.5592 -0.6835  0.9652
 6263TIP3   OH218794   4.312   1.139   4.391  0.0404 -0.6921  0.2261
 6263TIP3    H118795   4.391   1.193   4.382 -0.8359  0.3302 -2.4193
 6263TIP3    H218796   4.267   1.176   4.467 -0.5101  2.4866 -1.4637
 6264TIP3   OH218797   1.848   2.781   2.369  0.5415 -0.2922  0.2454
 6264TIP3    H118798   1.761   2.807   2.339  0.7890  1.3862  0.8800
 6264TIP3    H218799   1.855   2.689   2.345 -1.4717 -0.5139  0.3527
 6265TIP3   OH218800   1.062   5.417   1.532 -0.2001  0.4370  0.4372
 6265TIP3    H118801   1.006   5.490   1.559 -0.8376 -0.1343  0.6988
 6265TIP3    H218802   1.117   5.454   1.463 -1.2841  0.8868 -0.2217
 6266TIP3   OH218803   0.135   2.798   3.015  0.3521 -0.2375 -1.0185
 6266TIP3    H118804   0.161   2.767   3.101 -1.2564 -0.0723 -0.4323
 6266TIP3    H218805   0.211   2.783   2.959  1.7304  0.4124  0.6046
 6267TIP3   OH218806   1.209   2.145   4.859  0.1607 -0.5667  0.1803
 6267TIP3    H118807   1.291   2.097   4.867 -0.2026 -1.4241 -1.0172
 6267TIP3    H218808   1.192   2.178   4.947  2.3704  0.6346  0.2101
 6268TIP3   OH218809   0.818   3.522   1.176 -0.2524 -0.0384  0.5726
 6268TIP3    H118810   0.912   3.528   1.157 -0.6766  1.0692 -1.4746
 6268TIP3    H218811   0.800   3.600   1.229 -0.3561  1.0037 -0.9066
 6269TIP3   OH218812   2.698   0.532   4.413  0.0756  0.3152 -0.3566
 6269TIP3    H118813   2.617   0.530   4.363  0.3390  0.7753 -0.8081
 6269TIP3    H218814   2.759   0.583   4.359 -0.1864  2.4405  1.2294
 6270TIP3   OH218815   1.506   3.607   4.023  0.4785  0.4239 -0.1263
 6270TIP3    H118816   1.546   3.535   3.973  0.2004  0.3104 -0.1877
 6270TIP3    H218817   1.567   3.624   4.094  0.2250 -0.3376  0.2900
 6271TIP3   OH218818   3.514   4.367   1.391  0.1186 -0.4478  0.1196
 6271TIP3    H118819   3.468   4.291   1.429 -0.4666 -0.2158 -0.1147
 6271TIP3    H218820   3.450   4.438   1.394  0.4232 -0.1498 -0.3303
 6272TIP3   OH218821   5.331   5.338   5.028  0.2739  0.2545 -0.5139
 6272TIP3    H118822   5.399   5.320   4.962  0.3361 -0.9466 -0.1499
 6272TIP3    H218823   5.360   5.289   5.105  0.6303  2.2692  0.7143
 6273TIP3   OH218824   4.195   2.736   1.317 -0.4362  0.0390 -0.1649
 6273TIP3    H118825   4.245   2.768   1.242 -0.4687 -1.2835 -0.7717
 6273TIP3    H218826   4.199   2.641   1.310  0.0870 -0.1314  1.8717
 6274TIP3   OH218827   5.670   4.732   4.460  0.0772  0.0385  0.4648
 6274TIP3    H118828   5.646   4.817   4.496  0.1105  0.0051  0.5667
 6274TIP3    H218829   5.740   4.752   4.397  1.1944 -0.0650  1.6190
 6275TIP3   OH218830   1.379   5.181   4.635 -0.1797  0.3227  0.3329
 6275TIP3    H118831   1.314   5.250   4.622  1.9949  2.9362  2.0380
 6275TIP3    H218832   1.425   5.175   4.551 -0.1231  1.3476  0.2659
 6276TIP3   OH218833   5.031   3.537   2.943  0.1554 -0.1823 -0.2450
 6276TIP3    H118834   5.043   3.462   3.001 -0.3447 -0.5423 -0.6005
 6276TIP3    H218835   4.937   3.557   2.948  0.6687  2.1975  2.0076
 6277TIP3   OH218836   4.247   4.343   0.710 -0.5363  0.3813  0.2273
 6277TIP3    H118837   4.314   4.277   0.726 -1.3086 -0.8309 -1.3352
 6277TIP3    H218838   4.200   4.312   0.633 -0.2119  3.3206 -1.2947
 6278TIP3   OH218839   2.302   0.655   1.127  0.1974 -0.2176  0.0443
 6278TIP3    H118840   2.358   0.618   1.059 -0.1785 -0.2825 -0.2334
 6278TIP3    H218841   2.349   0.639   1.208 -0.1472 -1.6831 -0.0167
 6279TIP3   OH218842   1.652   2.881   0.794  0.1183  0.1460  0.3706
 6279TIP3    H118843   1.616   2.884   0.705 -1.4734  1.4596  0.9889
 6279TIP3    H218844   1.719   2.814   0.791 -0.0857 -0.0316 -1.7590
 6280TIP3   OH218845   5.867   5.953   4.454  0.5106  0.6989  0.7404
 6280TIP3    H118846   5.838   5.935   4.543  0.5398  0.7353  0.7571
 6280TIP3    H218847   5.934   5.887   4.436  0.5645  0.7460  0.7748
 6281TIP3   OH218848   2.070   4.275   4.848 -0.0745 -0.0775 -0.6668
 6281TIP3    H118849   1.983   4.259   4.812 -0.6127 -1.4229  1.1450
 6281TIP3    H218850   2.083   4.206   4.912  2.1273  0.4215 -0.5039
 6282TIP3   OH218851   3.365   5.534   4.729 -0.2562 -0.4796 -0.1965
 6282TIP3    H118852   3.353   5.542   4.824  0.0014  0.2331 -0.2202
 6282TIP3    H218853   3.346   5.621   4.695 -2.2741 -1.1867 -1.0355
 6283TIP3   OH218854   3.023   4.149   3.564  0.7874  0.2995 -0.2579
 6283TIP3    H118855   2.990   4.230   3.525 -0.3497 -0.7395 -1.5492
 6283TIP3    H218856   3.109   4.137   3.525 -0.0859 -0.4067 -2.0858
 6284TIP3   OH218857   5.527   2.248   1.654 -0.5330 -0.3786  0.0289
 6284TIP3    H118858   5.571   2.229   1.571  1.2706  0.5068  0.7348
 6284TIP3    H218859   5.464   2.317   1.633 -0.2113 -0.2804 -0.6401
 6285TIP3   OH218860   2.861   2.261   2.267 -0.0202  0.0154  0.2513
 6285TIP3    H118861   2.873   2.355   2.253  1.3322 -0.5828 -3.8165
 6285TIP3    H218862   2.945   2.231   2.300 -1.0376  0.3212  3.5807
 6286TIP3   OH218863   4.341   5.015   5.062  0.3674  0.7543  0.0846
 6286TIP3    H118864   4.408   5.068   5.019 -0.1608  0.8763 -0.6290
 6286TIP3    H218865   4.366   5.013   5.154 -0.1096  3.0681  0.3252
 6287TIP3   OH218866   0.116   3.204   2.516 -0.2753 -0.0882  0.3580
 6287TIP3    H118867   0.138   3.279   2.572  3.0701  0.9757 -2.0688
 6287TIP3    H218868   0.057   3.240   2.450 -0.1686 -0.0691  0.2734
 6288TIP3   OH218869   0.262   5.767   4.593  0.1634  0.3688  0.0254
 6288TIP3    H118870   0.243   5.828   4.521  1.4111 -0.7869 -1.3572
 6288TIP3    H218871   0.352   5.788   4.618  0.3460 -0.4228  0.0379
 6289TIP3   OH218872   4.920   4.027   4.346 -0.2349 -0.4996 -0.1914
 6289TIP3    H118873   4.868   4.107   4.352  1.4798  0.6653  0.0736
 6289TIP3    H218874   4.857   3.956   4.353 -1.7057  0.8276  0.6475
 6290TIP3   OH218875   3.693   3.275   2.465  0.3232  0.1602 -0.3089
 6290TIP3    H118876   3.705   3.324   2.384  1.1323  0.4298 -0.0425
 6290TIP3    H218877   3.749   3.321   2.529  0.4671 -0.6287  0.1479
 6291TIP3   OH218878   2.315   3.243   0.211  0.4246  0.4400  0.5416
 6291TIP3    H118879   2.224   3.214   0.201  0.6041 -0.9571  2.3287
 6291TIP3    H218880   2.312   3.338   0.201 -0.7750  0.2053 -2.1198
 6292TIP3   OH218881   3.451   4.496   2.369 -0.3562 -0.2308 -0.6289
 6292TIP3    H118882   3.539   4.529   2.385 -0.7720  0.7441 -0.3156
 6292TIP3    H218883   3.447   4.482   2.274 -0.9991  3.1744 -1.2090
 6293TIP3   OH218884   4.617   0.818   1.993 -0.3708  0.3938 -0.2509
 6293TIP3    H118885   4.642   0.858   1.909 -0.6686  0.0667 -0.5029
 6293TIP3    H218886   4.684   0.846   2.054 -1.2546  2.3322 -0.1055
 6294TIP3   OH218887   4.483   2.300   0.127 -0.0324  0.2177  0.2604
 6294TIP3    H118888   4.510   2.361   0.058 -0.6891  0.3265  0.0956
 6294TIP3    H218889   4.440   2.229   0.080 -0.7667  0.4460  0.5848
 6295TIP3   OH218890   3.388   4.184   4.176  0.1963  0.0277 -0.4271
 6295TIP3    H118891   3.417   4.099   4.211 -1.0035 -0.5900 -0.8916
 6295TIP3    H218892   3.293   4.184   4.187  0.1658  1.2921 -0.5080
 6296TIP3   OH218893   1.637   0.068   2.501 -0.1216 -0.3859  0.3502
 6296TIP3    H118894   1.728   0.090   2.479 -0.3421  0.7868  0.5403
 6296TIP3    H218895   1.597   0.045   2.417  0.4038 -1.1592  0.2982
 6297TIP3   OH218896   2.404   5.957   2.883 -0.1108  0.4585 -0.5023
 6297TIP3    H118897   2.380   5.910   2.963 -0.8182  1.7535  0.0761
 6297TIP3    H218898   2.322   5.965   2.835  0.4654 -1.1206 -1.8480
 6298TIP3   OH218899   5.032   1.968   0.185  0.3576 -0.2659 -0.2555
 6298TIP3    H118900   4.989   1.973   0.099  0.0186 -0.8262 -0.1262
 6298TIP3    H218901   5.113   2.018   0.174 -0.5811  1.3102 -0.3357
 6299TIP3   OH218902   2.786   4.677   3.952  0.0783 -0.0737 -0.0772
 6299TIP3    H118903   2.851   4.691   3.883 -0.0694  0.7045 -0.0729
 6299TIP3    H218904   2.793   4.755   4.008 -2.5923  1.3622 -1.5127
 6300TIP3   OH218905   1.401   1.841   0.886 -0.2494 -0.0782  0.1191
 6300TIP3    H118906   1.406   1.746   0.896  1.0563  0.1466  2.2544
 6300TIP3    H218907   1.491   1.871   0.902 -0.5365  1.4867 -1.0251
 6301TIP3   OH218908   2.904   1.710   3.014 -0.2790  0.1986  0.4108
 6301TIP3    H118909   2.967   1.776   3.041  2.1926 -1.5550 -0.7106
 6301TIP3    H218910   2.908   1.710   2.918 -0.8153 -0.9833  0.3637
 6302TIP3   OH218911   6.188   3.611   1.117  0.2407 -0.6525  0.1506
 6302TIP3    H118912   6.185   3.680   1.183  0.4585  0.2245 -0.7194
 6302TIP3    H218913   6.188   3.530   1.167  1.5799 -0.0172  1.2825
 6303TIP3   OH218914   3.676   3.066   2.141  0.1683  0.7978 -0.0582
 6303TIP3    H118915   3.630   3.115   2.073 -0.4366 -0.8511 -0.8945
 6303TIP3    H218916   3.712   2.990   2.096 -1.1211 -0.9008  1.5831
 6304TIP3   OH218917   4.696   4.135   2.258 -0.3117 -0.0891 -0.3665
 6304TIP3    H118918   4.719   4.126   2.351 -3.0978  1.2313  0.5602
 6304TIP3    H218919   4.647   4.056   2.237  0.2044 -0.3262 -0.7103
 6305TIP3   OH218920   1.736   4.802   1.672  0.5136  0.3045  0.3592
 6305TIP3    H118921   1.821   4.845   1.679  2.1662 -2.8005  0.8872
 6305TIP3    H218922   1.705   4.824   1.584  2.5749  0.2752 -0.4134
 6306TIP3   OH218923   0.380   2.221   2.964  0.7345 -0.3606 -0.3162
 6306TIP3    H118924   0.367   2.300   2.912  1.3501 -1.3704 -2.1396
 6306TIP3    H218925   0.379   2.250   3.055 -1.0342  1.4280 -0.8503
 6307TIP3   OH218926   2.662   5.759   1.055  0.0968  0.4836  0.2431
 6307TIP3    H118927   2.614   5.716   0.985  0.0679  0.0415  0.5306
 6307TIP3    H218928   2.596   5.785   1.118  0.2911 -0.7763  0.9869
 6308TIP3   OH218929   3.487   3.207   3.635  0.2797 -0.1390  0.7378
 6308TIP3    H118930   3.472   3.114   3.616 -0.2838 -0.0198  0.5760
 6308TIP3    H218931   3.408   3.235   3.680 -0.5919  0.8336 -1.2602
 6309TIP3   OH218932   3.979   2.592   0.652  0.3827  0.0852 -0.5754
 6309TIP3    H118933   3.907   2.574   0.713  0.1436  1.6901 -0.3512
 6309TIP3    H218934   3.962   2.534   0.578 -0.1783 -0.7892  0.2071
 6310TIP3   OH218935   5.650   0.153   3.380 -0.0412  0.9332  0.3752
 6310TIP3    H118936   5.557   0.143   3.361  0.1261  1.2715 -0.6856
 6310TIP3    H218937   5.653   0.205   3.460 -0.7817 -0.8523  1.6300
 6311TIP3   OH218938   3.428   0.718   1.700  0.0988  0.0968 -0.2785
 6311TIP3    H118939   3.479   0.698   1.778  1.2578  1.2389 -0.7041
 6311TIP3    H218940   3.368   0.787   1.728  0.6235  0.6185 -0.4247
 6312TIP3   OH218941   0.114   2.764   4.678  0.1807 -0.3281  0.0649
 6312TIP3    H118942   0.115   2.778   4.773 -1.8613  1.6413 -0.1072
 6312TIP3    H218943   0.132   2.851   4.641 -1.5623 -0.4885 -1.2956
 6313TIP3   OH218944   2.215   1.484   3.918 -0.3895 -0.3878 -0.0709
 6313TIP3    H118945   2.148   1.550   3.902 -0.6977 -0.6041  0.3332
 6313TIP3    H218946   2.211   1.466   4.012  0.0594 -0.5904 -0.0836
 6314TIP3   OH218947   0.560   5.925   5.017  0.0639  0.6338  0.2094
 6314TIP3    H118948   0.561   5.901   5.110 -0.4971  0.7863  0.2579
 6314TIP3    H218949   0.580   6.019   5.016 -1.8329  1.0785  0.3331
 6315TIP3   OH218950   3.294   2.290   2.874 -0.2454 -0.3834 -0.6423
 6315TIP3    H118951   3.379   2.315   2.837  0.2734  2.3131  1.9714
 6315TIP3    H218952   3.232   2.351   2.833 -0.8236 -1.7341 -1.8474
 6316TIP3   OH218953   3.351   1.916   3.002 -0.3962 -0.6529 -0.4657
 6316TIP3    H118954   3.376   1.842   3.057 -0.4646 -0.2676  0.0905
 6316TIP3    H218955   3.432   1.966   2.991 -1.1280  1.6165  2.8738
 6317TIP3   OH218956   0.040   0.734   2.710  0.5667 -0.4720 -0.1142
 6317TIP3    H118957   0.074   0.706   2.625  0.0199 -1.1272 -0.1296
 6317TIP3    H218958  -0.054   0.747   2.695  0.4648 -0.6090  0.3951
 6318TIP3   OH218959   1.076   5.541   1.054  0.3004 -0.0136  0.2292
 6318TIP3    H118960   1.152   5.541   0.997  1.3002 -1.3031  1.4635
 6318TIP3    H218961   1.001   5.532   0.995  1.1912 -0.0021 -0.9361
 6319TIP3   OH218962   6.188   0.115   1.087 -0.5076  0.0615  0.0259
 6319TIP3    H118963   6.165   0.108   0.995 -0.4719  2.7120 -0.2655
 6319TIP3    H218964   6.246   0.191   1.092 -0.6135  0.0764  2.2529
 6320TIP3   OH218965   0.903   0.103   1.325 -0.2257 -0.4609 -0.1452
 6320TIP3    H118966   0.813   0.075   1.313 -0.5429 -0.1435  1.2686
 6320TIP3    H218967   0.908   0.128   1.418  0.9245  0.8879 -0.5310
 6321TIP3   OH218968   1.413   5.767   1.802 -0.5179 -0.0921 -0.1930
 6321TIP3    H118969   1.419   5.731   1.891 -0.1420  0.3372 -0.0413
 6321TIP3    H218970   1.360   5.704   1.754  1.3538 -1.6486 -0.3412
 6322TIP3   OH218971   3.687   5.046   4.610  0.0199  0.0068 -0.1571
 6322TIP3    H118972   3.749   5.070   4.542  0.1744  0.9482  0.2955
 6322TIP3    H218973   3.601   5.068   4.574  0.0484 -0.0998 -0.2895
 6323TIP3   OH218974   4.027   4.435   5.179  0.3952  0.0865 -0.5170
 6323TIP3    H118975   4.019   4.378   5.256  0.2181 -1.2312 -1.4878
 6323TIP3    H218976   4.039   4.375   5.106  2.0149  1.3539 -1.3630
 6324TIP3   OH218977   2.035   3.187   0.276  0.5242 -0.2129 -0.6862
 6324TIP3    H118978   1.992   3.103   0.264 -2.9021  1.1490  0.6711
 6324TIP3    H218979   2.029   3.204   0.370  1.7709  1.2590 -0.8209
 6325TIP3   OH218980   3.370   5.530   3.593 -0.4673  0.2094  0.3172
 6325TIP3    H118981   3.433   5.550   3.661 -1.1059  0.8222  0.7422
 6325TIP3    H218982   3.407   5.569   3.514 -0.4505  0.8003  0.6175
 6326TIP3   OH218983   6.186   3.265   3.253 -0.8177 -0.0766  0.3196
 6326TIP3    H118984   6.226   3.299   3.333 -1.4583 -0.1789  0.6941
 6326TIP3    H218985   6.105   3.315   3.243  0.0654  1.1499 -1.2195
 6327TIP3   OH218986   0.680   1.124   1.874 -0.4026 -0.3719 -0.0161
 6327TIP3    H118987   0.648   1.149   1.787 -0.0253  0.5994  0.1116
 6327TIP3    H218988   0.602   1.091   1.919 -0.3805 -2.0207 -1.0950
 6328TIP3   OH218989   3.308   5.318   3.873 -0.6668 -0.1177  0.1481
 6328TIP3    H118990   3.303   5.399   3.822  0.6438 -0.8804 -1.2595
 6328TIP3    H218991   3.383   5.330   3.930 -1.7789  0.4956  1.5414
 6329TIP3   OH218992   4.428   5.026   4.214 -0.6810  0.4109  0.0727
 6329TIP3    H118993   4.440   4.999   4.306  0.2106 -0.6403 -0.3299
 6329TIP3    H218994   4.390   4.949   4.171  1.6261 -0.2015 -1.0376
 6330TIP3   OH218995   0.225   4.642   4.656  0.4991  0.1569 -0.1505
 6330TIP3    H118996   0.306   4.599   4.626 -0.0465 -0.0495 -1.3794
 6330TIP3    H218997   0.240   4.657   4.749  1.0193 -2.0375  0.1921
 6331TIP3   OH218998   3.198   5.841   3.564 -0.0221 -0.0838 -0.2117
 6331TIP3    H118999   3.171   5.876   3.648 -1.3031  2.4724 -1.5631
 6331TIP3    H219000   3.293   5.830   3.571 -0.0606  0.4299  1.4151
 6332TIP3   OH219001   5.957   3.632   4.856  0.1308 -0.4896  0.1174
 6332TIP3    H119002   5.956   3.573   4.780 -0.9865 -1.2326  0.6744
 6332TIP3    H219003   5.868   3.667   4.861  0.7007  1.0489 -0.0232
 6333TIP3   OH219004   0.241   0.281   0.033 -0.2580  0.0707  0.2739
 6333TIP3    H119005   0.290   0.356   0.066 -0.6429  0.2896  0.3641
 6333TIP3    H219006   0.292   0.204   0.059 -0.6608  0.2251  1.5720
 6334TIP3   OH219007   3.202   4.937   4.406 -0.3187 -0.1523 -0.3508
 6334TIP3    H119008   3.212   5.001   4.335 -2.6689  1.1278  0.3592
 6334TIP3    H219009   3.135   4.976   4.463  0.5962 -1.7201  1.9102
 6335TIP3   OH219010   4.203   0.037   4.725 -0.2349  0.1801 -0.0085
 6335TIP3    H119011   4.123  -0.004   4.691  0.2840  0.1754 -1.2841
 6335TIP3    H219012   4.176   0.079   4.806 -0.6724 -3.2764  1.8400
 6336TIP3   OH219013   4.864   5.217   0.132  0.3079  0.2032 -0.6919
 6336TIP3    H119014   4.775   5.185   0.148 -0.2632  1.2996 -1.5643
 6336TIP3    H219015   4.916   5.176   0.201 -1.1452  0.7375  0.8216
 6337TIP3   OH219016   3.968   0.273   3.269  0.4486 -0.4155  0.3781
 6337TIP3    H119017   3.982   0.186   3.306 -0.9483 -0.1978  1.4938
 6337TIP3    H219018   3.889   0.305   3.312  0.8132  1.3250 -0.1724
 6338TIP3   OH219019   5.691   5.162   2.004 -0.6115 -0.2017  0.6301
 6338TIP3    H119020   5.680   5.256   2.016  1.6093  0.3149 -0.8941
 6338TIP3    H219021   5.624   5.138   1.940 -0.8982  0.4304  0.6883
 6339TIP3   OH219022   4.148   4.681   3.623  0.3280 -0.0697  0.0780
 6339TIP3    H119023   4.241   4.699   3.606  0.3387 -0.3585 -0.1829
 6339TIP3    H219024   4.110   4.767   3.640  1.1779 -0.1578  3.0319
 6340TIP3   OH219025   5.202   5.641   0.150 -0.4585  0.5489  0.2658
 6340TIP3    H119026   5.176   5.552   0.172 -1.0785  0.7232  0.2617
 6340TIP3    H219027   5.298   5.638   0.146 -0.4970 -0.2275 -0.2305
 6341TIP3   OH219028   5.493   1.340   3.954 -0.4844  0.7794 -0.0429
 6341TIP3    H119029   5.570   1.348   3.898  1.3434 -2.3170  1.7649
 6341TIP3    H219030   5.500   1.412   4.016 -0.6784  2.1997 -1.5978
 6342TIP3   OH219031   2.324   0.662   0.091 -0.2985 -0.2971  0.2184
 6342TIP3    H119032   2.312   0.623   0.005  0.6865  0.1211 -0.1315
 6342TIP3    H219033   2.238   0.657   0.133 -0.9076 -0.0787 -0.9711
 6343TIP3   OH219034   4.504   4.945   0.889  0.5252  0.4209  0.1071
 6343TIP3    H119035   4.425   4.933   0.941  0.6155 -0.4054  0.0635
 6343TIP3    H219036   4.572   4.966   0.952  0.5603 -0.2273  0.2838
 6344TIP3   OH219037   2.634   3.471   1.854 -0.0620  0.0744 -0.4808
 6344TIP3    H119038   2.666   3.496   1.768 -0.7095 -0.7645 -0.9898
 6344TIP3    H219039   2.541   3.494   1.853  0.1155  0.8493  0.3140
 6345TIP3   OH219040   0.998   5.411   3.386 -0.2036 -0.4914 -0.3917
 6345TIP3    H119041   1.005   5.491   3.334  0.7643 -1.4067 -1.7333
 6345TIP3    H219042   0.965   5.345   3.325  0.8690 -1.5818  0.1619
 6346TIP3   OH219043   0.711   4.176   2.390 -0.6580  0.3674  0.8794
 6346TIP3    H119044   0.713   4.080   2.386 -0.9673  0.4048 -0.6312
 6346TIP3    H219045   0.620   4.197   2.412 -1.3039  0.3389 -1.5005
 6347TIP3   OH219046   0.691   5.424   2.056 -0.0535  0.0099 -0.2526
 6347TIP3    H119047   0.763   5.427   1.993 -0.3630 -1.2549 -0.7032
 6347TIP3    H219048   0.619   5.384   2.007 -1.9119  3.3765 -0.6308
 6348TIP3   OH219049   1.796   5.007   3.903  0.0454  0.3887 -0.0405
 6348TIP3    H119050   1.772   5.091   3.942 -2.0346  0.2477 -0.8726
 6348TIP3    H219051   1.885   5.020   3.872 -0.2765  2.3811 -0.2929
 6349TIP3   OH219052   5.332   5.553   3.188 -0.4685  0.0428 -0.3843
 6349TIP3    H119053   5.375   5.628   3.146  0.8866  0.3909  1.4600
 6349TIP3    H219054   5.400   5.516   3.244 -1.6314 -1.5363  0.0396
 6350TIP3   OH219055   4.497   0.603   1.595  0.0878  0.1813  0.1836
 6350TIP3    H119056   4.491   0.594   1.500  0.0214  1.4480  0.0541
 6350TIP3    H219057   4.561   0.536   1.621 -0.9311 -1.1459 -0.5608
 6351TIP3   OH219058   6.215   3.862   3.261 -0.3568  0.2396  0.5482
 6351TIP3    H119059   6.193   3.954   3.245  0.1299  0.9055  3.1944
 6351TIP3    H219060   6.135   3.814   3.241 -1.0039  1.3924  0.2870
 6352TIP3   OH219061   0.878   3.694   0.465 -0.2645  0.1693 -0.1044
 6352TIP3    H119062   0.824   3.774   0.463 -0.3654  0.1349  0.7759
 6352TIP3    H219063   0.874   3.666   0.556  1.4659  0.3043  0.0385
 6353TIP3   OH219064  -0.022   4.958   0.996  0.0436 -0.0696  0.0457
 6353TIP3    H119065   0.058   5.009   1.007 -0.3052  0.3445  0.7526
 6353TIP3    H219066  -0.021   4.896   1.069  0.0603 -0.5246 -0.3396
 6354TIP3   OH219067   1.688   3.932   1.788  0.5590 -0.0270  0.6210
 6354TIP3    H119068   1.719   3.918   1.698  1.0827 -1.3106  0.9784
 6354TIP3    H219069   1.624   3.862   1.803  1.3029 -0.5188  1.6085
 6355TIP3   OH219070   5.868   0.179   4.853 -0.6224 -0.1952  1.1435
 6355TIP3    H119071   5.961   0.198   4.850 -0.7713  0.8784  2.5904
 6355TIP3    H219072   5.858   0.114   4.922 -0.9652 -0.1649  1.1264
 6356TIP3   OH219073   2.179   3.510   3.102  0.6849  0.7216 -0.2229
 6356TIP3    H119074   2.095   3.551   3.122 -0.0033  1.3544 -3.8267
 6356TIP3    H219075   2.242   3.558   3.157 -1.0167  1.4419  1.2229
 6357TIP3   OH219076   3.403   2.518   0.160 -0.0170  0.2791  0.3072
 6357TIP3    H119077   3.426   2.535   0.068 -0.6315 -0.0705  0.0811
 6357TIP3    H219078   3.370   2.602   0.193 -1.4470 -0.0082 -0.3113
 6358TIP3   OH219079   5.312   1.227   1.165  0.0493 -0.0752  0.5101
 6358TIP3    H119080   5.289   1.135   1.154 -1.6674  0.5080 -1.2185
 6358TIP3    H219081   5.352   1.231   1.252  0.4872 -2.4928  0.4813
 6359TIP3   OH219082   5.360   5.408   0.223 -0.3247  0.5461  0.3193
 6359TIP3    H119083   5.410   5.487   0.202 -1.5957  0.7640 -2.0962
 6359TIP3    H219084   5.328   5.376   0.139 -1.2458 -1.6262  1.4224
 6360TIP3   OH219085   1.576   4.194   1.563  0.2749  0.2231 -0.0629
 6360TIP3    H119086   1.645   4.223   1.504 -0.2722 -1.2020 -1.4727
 6360TIP3    H219087   1.605   4.222   1.650  2.7099 -0.4463 -0.5874
 6361TIP3   OH219088   5.015   5.585   4.620 -0.0652  0.2779 -0.3091
 6361TIP3    H119089   5.045   5.600   4.530  1.1477  0.7178  0.1413
 6361TIP3    H219090   5.096   5.571   4.669 -0.7039  0.2331  0.7503
 6362TIP3   OH219091   0.887   5.483   1.851 -0.6036 -0.1852 -0.0621
 6362TIP3    H119092   0.966   5.513   1.806 -1.5380  1.3775 -0.7416
 6362TIP3    H219093   0.818   5.486   1.785 -1.5297 -0.1275  0.8688
 6363TIP3   OH219094   2.116   1.610   1.335 -0.3822 -0.2378 -0.2560
 6363TIP3    H119095   2.109   1.573   1.247  0.8062  1.4084 -1.1169
 6363TIP3    H219096   2.208   1.597   1.359 -0.6893 -0.6331  0.7308
 6364TIP3   OH219097   4.111   3.709   1.428  0.1420  0.4007 -0.0450
 6364TIP3    H119098   4.016   3.707   1.443  0.2400  0.3558  0.5833
 6364TIP3    H219099   4.129   3.628   1.381 -0.0714  0.2219  0.1812
 6365TIP3   OH219100   2.688   0.190   0.440  0.7343 -0.0659  0.4635
 6365TIP3    H119101   2.702   0.155   0.352 -0.3619  0.8500 -0.1023
 6365TIP3    H219102   2.604   0.236   0.435  1.7194  2.0106  1.3427
 6366TIP3   OH219103   2.155   4.706   3.212 -0.5537  0.0726 -0.1981
 6366TIP3    H119104   2.100   4.778   3.242  1.1911  0.4508  2.5687
 6366TIP3    H219105   2.129   4.632   3.267  1.4081  0.2113  1.0416
 6367TIP3   OH219106   3.374   4.832   1.251 -0.1417  0.3128  0.0704
 6367TIP3    H119107   3.403   4.877   1.330  0.9759  0.4833 -0.4166
 6367TIP3    H219108   3.280   4.848   1.247 -0.5138 -0.9529  2.1591
 6368TIP3   OH219109   2.718   1.433   0.733 -0.6770 -0.6151 -0.1778
 6368TIP3    H119110   2.722   1.502   0.667 -1.0271 -0.6315 -0.2191
 6368TIP3    H219111   2.681   1.358   0.686 -0.3488 -0.8138 -0.1200
 6369TIP3   OH219112   5.655   0.621   0.988  0.2912 -0.5060  0.1303
 6369TIP3    H119113   5.731   0.565   0.973  0.3571 -1.4737  3.3959
 6369TIP3    H219114   5.607   0.579   1.060 -0.7343  2.5329  1.4077
 6370TIP3   OH219115   4.121   2.134   2.053 -0.3817  0.0752  0.1545
 6370TIP3    H119116   4.183   2.142   2.126 -0.9694 -0.9969  0.7998
 6370TIP3    H219117   4.083   2.222   2.044  0.3064  0.4237  0.5816
 6371TIP3   OH219118   2.420   4.931   0.539 -0.2697  0.2531 -0.5661
 6371TIP3    H119119   2.423   4.863   0.606 -1.0268  0.1782 -0.6021
 6371TIP3    H219120   2.328   4.959   0.537 -0.1841  0.4998 -1.3237
 6372TIP3   OH219121   0.100   1.128   0.319 -0.4590 -0.0123  0.8684
 6372TIP3    H119122   0.155   1.086   0.253  0.1940  0.7233  0.9310
 6372TIP3    H219123   0.048   1.057   0.356 -0.1486 -0.5824  0.2274
 6373TIP3   OH219124   4.722   2.250   4.362  0.3877 -0.1732 -0.2886
 6373TIP3    H119125   4.775   2.326   4.389 -0.7247  1.3736 -2.2254
 6373TIP3    H219126   4.633   2.285   4.354 -0.5328 -2.1638  0.5465
 6374TIP3   OH219127   5.664   0.349   4.860 -0.2815  0.7666  0.1277
 6374TIP3    H119128   5.686   0.428   4.810 -0.1778  0.4313 -0.3663
 6374TIP3    H219129   5.729   0.284   4.832 -1.4401 -0.0314 -0.8147
 6375TIP3   OH219130   6.170   5.432   2.496  0.1930 -0.1964  0.2594
 6375TIP3    H119131   6.250   5.482   2.514  0.8875 -1.9685  2.6082
 6375TIP3    H219132   6.189   5.344   2.527 -1.8491 -1.3363 -1.4456
 6376TIP3   OH219133   6.383   5.590   1.476 -0.6934 -0.4036 -0.3513
 6376TIP3    H119134   6.295   5.577   1.512 -0.3406  0.9817  1.1169
 6376TIP3    H219135   6.368   5.611   1.384 -2.0716  1.6492  0.2816
 6377TIP3   OH219136   5.390   2.656   2.354 -0.0278 -0.2697 -0.3263
 6377TIP3    H119137   5.431   2.675   2.438 -0.3546 -0.3183 -0.1545
 6377TIP3    H219138   5.463   2.634   2.296  0.1119 -1.3079  0.2262
 6378TIP3   OH219139   1.838   2.190   5.130 -0.1288  0.3905  0.0163
 6378TIP3    H119140   1.873   2.271   5.166 -0.1674  0.8522 -0.9616
 6378TIP3    H219141   1.822   2.135   5.207 -1.6865  1.9076  0.8356
 6379TIP3   OH219142   3.560   0.216   4.215 -1.1419 -0.1759 -0.2747
 6379TIP3    H119143   3.535   0.231   4.124  1.7480 -0.2608 -1.1848
 6379TIP3    H219144   3.553   0.121   4.227  0.6860 -0.4676 -1.2077
 6380TIP3   OH219145   1.216   2.875   5.193 -0.0618 -0.2493  0.3134
 6380TIP3    H119146   1.121   2.865   5.201 -0.2726  0.6784 -0.7243
 6380TIP3    H219147   1.232   2.882   5.099  1.0256 -0.3036  0.4789
 6381TIP3   OH219148   6.316   5.286   4.635 -0.9172  0.2550  0.1799
 6381TIP3    H119149   6.276   5.373   4.636 -2.1941 -0.3095  0.7032
 6381TIP3    H219150   6.310   5.255   4.725  1.0775  0.2683  0.3741
 6382TIP3   OH219151   5.104   3.918   3.446 -0.7506 -0.1594 -0.3034
 6382TIP3    H119152   5.132   3.872   3.525  1.1453  0.5166 -0.5234
 6382TIP3    H219153   5.076   3.848   3.386 -0.0254 -0.8530  0.1577
 6383TIP3   OH219154   2.846   0.524   1.821  0.1306  0.0481  0.0580
 6383TIP3    H119155   2.759   0.496   1.793 -0.2849  1.6893 -0.4062
 6383TIP3    H219156   2.840   0.620   1.825  1.3291  0.0953  1.9737
 6384TIP3   OH219157   6.196   4.008   2.428 -0.0855  0.0875 -0.0238
 6384TIP3    H119158   6.192   4.075   2.496 -2.1129  1.1423 -1.1140
 6384TIP3    H219159   6.134   3.941   2.457 -0.2591  0.0946 -0.3794
 6385TIP3   OH219160   5.908   3.470   4.625  0.0993  0.0293 -0.0570
 6385TIP3    H119161   5.830   3.493   4.575  0.1947  1.6628  0.4817
 6385TIP3    H219162   5.971   3.539   4.604  0.6847 -0.1331  1.0841
 6386TIP3   OH219163   4.134   0.860   5.169  0.0964 -0.5442  0.1935
 6386TIP3    H119164   4.224   0.843   5.196  0.2783 -1.5950 -0.9933
 6386TIP3    H219165   4.117   0.950   5.198  1.2479 -0.6035  1.1242
 6387TIP3   OH219166   5.771   4.412   1.817 -0.2781  0.1529  0.2756
 6387TIP3    H119167   5.842   4.438   1.875 -0.5788  1.3217  0.1445
 6387TIP3    H219168   5.814   4.366   1.745  0.1316 -1.0111  1.2187
 6388TIP3   OH219169   3.970   2.703   4.553  0.4103 -0.0438 -0.1685
 6388TIP3    H119170   4.041   2.744   4.504 -0.0171 -0.0055 -0.7803
 6388TIP3    H219171   3.998   2.706   4.644  1.1278  0.0912 -0.3867
 6389TIP3   OH219172   2.404   5.397   4.621 -0.1923  0.0118  0.1932
 6389TIP3    H119173   2.428   5.478   4.665  1.2911 -0.1965 -0.1863
 6389TIP3    H219174   2.420   5.328   4.686 -0.2883 -0.0848  0.1168
 6390TIP3   OH219175   0.512   3.413   4.715  0.1334 -0.3066  0.1841
 6390TIP3    H119176   0.480   3.331   4.678 -1.4764  0.5601 -0.4610
 6390TIP3    H219177   0.436   3.471   4.713  1.4193  1.4474 -0.1155
 6391TIP3   OH219178   5.823   0.359   5.078  0.3977  0.6049  0.0037
 6391TIP3    H119179   5.770   0.382   5.002  0.2793  0.0533 -0.0827
 6391TIP3    H219180   5.761   0.355   5.151  0.7233  2.6115  0.4504
 6392TIP3   OH219181   0.356   4.175   4.965  0.4660  0.2534 -0.3503
 6392TIP3    H119182   0.397   4.190   4.880 -1.0798  3.2449 -0.7006
 6392TIP3    H219183   0.391   4.091   4.994  0.5888 -1.2081 -4.1939
 6393TIP3   OH219184   0.469   0.956   1.953  0.3108  0.4259  0.1413
 6393TIP3    H119185   0.411   0.986   2.023  0.2381 -1.3094  0.8755
 6393TIP3    H219186   0.541   0.912   1.998  0.6493 -0.0943 -0.8660
 6394TIP3   OH219187   1.346   0.789   4.797  0.6088  0.2215 -0.6482
 6394TIP3    H119188   1.254   0.765   4.814  0.1664  1.4652 -1.1337
 6394TIP3    H219189   1.348   0.884   4.811  2.3066 -0.0477  1.4090
 6395TIP3   OH219190   2.742   2.070   4.415 -0.0196 -0.3425 -0.4863
 6395TIP3    H119191   2.704   2.102   4.497  0.5675 -1.1330  0.1168
 6395TIP3    H219192   2.837   2.083   4.427  0.1487 -1.3503 -0.6259
 6396TIP3   OH219193   5.673   4.926   5.028  0.2650 -0.1370  0.0807
 6396TIP3    H119194   5.727   4.908   4.952  0.5850 -0.5601  0.4015
 6396TIP3    H219195   5.658   5.020   5.026  0.1584 -0.1646 -0.5751
 6397TIP3   OH219196   1.627   1.254   2.625 -0.5900  0.1241 -0.4734
 6397TIP3    H119197   1.591   1.209   2.702  1.1451 -0.1887  0.2005
 6397TIP3    H219198   1.610   1.194   2.553 -0.2734 -0.6036  0.0449
 6398TIP3   OH219199   5.605   1.926   4.679 -0.2785 -0.1604 -0.0379
 6398TIP3    H119200   5.678   1.933   4.618  1.2270 -1.1001  1.5574
 6398TIP3    H219201   5.620   1.996   4.742  2.1040 -3.1064  3.0429
 6399TIP3   OH219202   0.272   0.925   0.186 -0.2419  0.6663 -0.1078
 6399TIP3    H119203   0.229   0.870   0.120  1.2392 -0.3850 -0.2536
 6399TIP3    H219204   0.350   0.875   0.210 -0.0164  1.7119  1.3999
 6400TIP3   OH219205   5.522   1.769   0.511 -0.2390 -0.0569 -0.5359
 6400TIP3    H119206   5.569   1.850   0.493  0.1277 -0.5064 -1.7057
 6400TIP3    H219207   5.587   1.713   0.553 -0.6193  0.3974  0.6909
 6401TIP3   OH219208   4.847   5.601   4.124  0.2781 -0.2734  0.1751
 6401TIP3    H119209   4.893   5.684   4.114  1.5773 -0.5374  3.1296
 6401TIP3    H219210   4.762   5.625   4.161 -0.0252 -0.1868 -0.5456
 6402TIP3   OH219211   2.659  -0.019   0.585 -0.1282 -0.5655  0.6546
 6402TIP3    H119212   2.669   0.059   0.531 -0.2106 -2.8036 -3.0014
 6402TIP3    H219213   2.746  -0.036   0.621  0.0591  0.7493  0.8436
 6403TIP3   OH219214   4.227   3.348   0.211 -0.8347  0.0724  0.4852
 6403TIP3    H119215   4.155   3.339   0.273 -1.0747 -0.0726  0.1872
 6403TIP3    H219216   4.195   3.412   0.147 -0.3039  0.7764  0.9197
 6404TIP3   OH219217   0.123   0.397   0.779  0.0794 -0.6447 -0.0274
 6404TIP3    H119218   0.107   0.480   0.823  1.2639 -0.0902 -0.5927
 6404TIP3    H219219   0.037   0.366   0.753 -0.3155  0.8226 -0.5476
 6405TIP3   OH219220   4.161   4.900   1.993 -0.3198  0.5261 -0.1736
 6405TIP3    H119221   4.158   4.917   2.087 -1.0607 -0.8425  0.0735
 6405TIP3    H219222   4.184   4.808   1.986  0.5879  0.8157 -1.3702
 6406TIP3   OH219223   4.003   0.682   1.320 -0.1023  0.6072  0.2245
 6406TIP3    H119224   4.095   0.687   1.346 -0.1145  0.6199  0.2651
 6406TIP3    H219225   3.956   0.669   1.402 -0.4558  3.8991  0.6755
 6407TIP3   OH219226   2.542   1.952   0.470 -0.2958 -0.6102 -0.4519
 6407TIP3    H119227   2.547   1.994   0.555 -0.2069 -2.5192  0.5385
 6407TIP3    H219228   2.628   1.911   0.458 -0.2565 -0.2589 -1.5390
 6408TIP3   OH219229   5.862  -0.023   1.728  0.3219 -0.3423 -0.4574
 6408TIP3    H119230   5.878  -0.038   1.635  0.6074 -1.1315 -0.2884
 6408TIP3    H219231   5.817   0.061   1.731 -1.6513 -1.3089 -1.4669
 6409TIP3   OH219232   3.112   5.238   4.453  0.3601  0.7709  0.0026
 6409TIP3    H119233   3.123   5.249   4.358  1.4167 -1.7947 -0.2331
 6409TIP3    H219234   3.034   5.183   4.461  1.5039 -0.8216  0.4798
 6410TIP3   OH219235   6.182   4.274   0.422  0.0970  0.0766  0.6370
 6410TIP3    H119236   6.191   4.201   0.483 -0.4924  0.3461  1.0539
 6410TIP3    H219237   6.088   4.282   0.407  0.2911 -0.7957 -1.3060
 6411TIP3   OH219238   0.424   4.884   0.958  0.0499 -0.1117  0.1347
 6411TIP3    H119239   0.340   4.899   1.001 -0.3435  0.0469 -0.6691
 6411TIP3    H219240   0.482   4.949   0.996 -0.4095  0.3223  0.1009
 6412TIP3   OH219241   5.230   2.735   1.776 -0.6545  0.0213 -0.2409
 6412TIP3    H119242   5.147   2.700   1.744 -0.8462  0.6865 -0.4817
 6412TIP3    H219243   5.223   2.830   1.763  0.2358  0.0604 -0.5009
 6413TIP3   OH219244   3.618   0.239   5.038  0.0953  0.1259 -0.1669
 6413TIP3    H119245   3.609   0.287   5.120 -0.0736 -0.3270  0.0836
 6413TIP3    H219246   3.712   0.220   5.032  0.2266  0.8332 -0.4723
 6414TIP3   OH219247   4.250   1.874   0.775  0.0398 -0.3749 -0.1840
 6414TIP3    H119248   4.216   1.795   0.734  0.3837 -0.6540  0.0593
 6414TIP3    H219249   4.173   1.923   0.801 -0.1966 -0.0281 -1.4558
 6415TIP3   OH219250   3.027   4.746   1.980 -0.2851  0.3527 -1.0573
 6415TIP3    H119251   3.106   4.718   1.934  0.3501  1.2590 -0.5520
 6415TIP3    H219252   3.059   4.801   2.052 -1.1459 -1.8376  1.1621
 6416TIP3   OH219253   5.884   0.185   3.123 -0.4682  0.3633 -0.3609
 6416TIP3    H119254   5.790   0.200   3.137 -0.2281  0.6354  1.0666
 6416TIP3    H219255   5.887   0.118   3.054 -1.6996  0.5398 -0.6136
 6417TIP3   OH219256   0.474   5.425   5.179 -0.0775 -0.1855 -0.1488
 6417TIP3    H119257   0.547   5.440   5.119 -0.5804 -1.9240 -1.2733
 6417TIP3    H219258   0.455   5.512   5.216  2.2888  0.3653 -0.0867
 6418TIP3   OH219259   0.971   2.402   2.834  0.5434 -0.8991 -0.1490
 6418TIP3    H119260   1.000   2.486   2.871  0.4909 -0.8159 -0.2921
 6418TIP3    H219261   0.894   2.425   2.782  1.7288 -0.6861 -1.9037
 6419TIP3   OH219262   4.614   0.074   1.810 -0.3919 -0.2016 -0.0276
 6419TIP3    H119263   4.523   0.100   1.798 -1.3772 -3.3008 -0.3328
 6419TIP3    H219264   4.634   0.022   1.732  1.9450  1.0407 -0.3286
 6420TIP3   OH219265   4.290   0.578   3.963 -0.5030 -0.6741  0.1304
 6420TIP3    H119266   4.203   0.537   3.956 -0.9897 -0.0261  1.8721
 6420TIP3    H219267   4.272   0.670   3.982  0.5874 -0.1758 -1.1080
 6421TIP3   OH219268   3.186   5.030   1.543 -0.0078  0.0448  0.2018
 6421TIP3    H119269   3.154   5.051   1.630  0.4179  1.0703  0.1331
 6421TIP3    H219270   3.132   5.083   1.484  1.7008  1.8030  0.0878
 6422TIP3   OH219271   2.371   1.962   1.188 -0.1910  0.1793  0.1396
 6422TIP3    H119272   2.293   1.928   1.233  0.5500 -1.3566  0.3565
 6422TIP3    H219273   2.417   2.011   1.256  0.8890 -2.0746  1.1625
 6423TIP3   OH219274   1.720   0.080   0.649 -0.2083  0.3034 -0.1254
 6423TIP3    H119275   1.799   0.087   0.596 -0.3308  0.9047 -0.2410
 6423TIP3    H219276   1.664   0.151   0.618 -0.7904 -0.1132 -0.0398
 6424TIP3   OH219277   5.718   2.340   4.951 -0.1747 -0.1926 -0.3362
 6424TIP3    H119278   5.770   2.378   4.880  2.0069 -0.5221  0.9976
 6424TIP3    H219279   5.709   2.410   5.015 -0.9471 -0.2910 -0.3363
 6425TIP3   OH219280   5.868   3.317   1.251  0.6553  0.2709  0.1773
 6425TIP3    H119281   5.793   3.354   1.297  0.0727  0.6708 -1.0652
 6425TIP3    H219282   5.870   3.225   1.277  0.3262  0.4869  0.9772
 6426TIP3   OH219283   0.350   0.942   0.954 -0.3146 -0.3465 -0.1965
 6426TIP3    H119284   0.269   0.993   0.950 -0.4916 -0.6711 -0.7590
 6426TIP3    H219285   0.329   0.860   0.910  0.9407  0.4015 -2.2965
 6427TIP3   OH219286   0.746   2.707   4.060 -0.5275  0.0847 -0.1334
 6427TIP3    H119287   0.779   2.628   4.019 -1.1855  0.0068 -0.5315
 6427TIP3    H219288   0.818   2.770   4.054  0.9071 -1.1778  2.3277
 6428TIP3   OH219289   6.212   3.909   4.067 -0.4453  0.2363  0.3054
 6428TIP3    H119290   6.279   3.931   4.003 -0.6785  0.0923  0.0087
 6428TIP3    H219291   6.240   3.824   4.102 -0.2655  0.3620  0.4672
 6429TIP3   OH219292   3.640   0.590   5.014 -0.2162 -0.5125 -0.8279
 6429TIP3    H119293   3.552   0.567   5.045  0.2736 -1.0015  0.2772
 6429TIP3    H219294   3.697   0.573   5.090  0.7511  0.3538 -1.3332
 6430TIP3   OH219295   3.960   1.648   4.170 -0.1831 -0.4010 -0.0523
 6430TIP3    H119296   3.942   1.681   4.082  1.2980 -0.9074 -0.5919
 6430TIP3    H219297   4.039   1.595   4.159  1.3912  1.3377  1.9664
 6431TIP3   OH219298   3.109   5.531   1.866 -0.3723  0.3359 -0.0528
 6431TIP3    H119299   3.059   5.474   1.808 -0.6347 -0.3957  0.8474
 6431TIP3    H219300   3.062   5.614   1.865 -0.2087  0.4190 -1.0912
 6432TIP3   OH219301   5.375   5.477   2.096  0.1551  0.0893 -0.1907
 6432TIP3    H119302   5.328   5.457   2.015  0.6764  1.4020 -0.8600
 6432TIP3    H219303   5.440   5.408   2.104  1.0131  0.6815 -1.6659
 6433TIP3   OH219304   5.392   3.938   3.083 -0.0015  0.5988  0.2211
 6433TIP3    H119305   5.431   3.866   3.132  0.3098  0.9496  0.4956
 6433TIP3    H219306   5.333   3.896   3.021  1.8477 -0.0610 -1.1904
 6434TIP3   OH219307   2.230   3.381   1.315  0.1025  0.0223 -0.0049
 6434TIP3    H119308   2.180   3.301   1.294  0.9594 -0.5206 -0.0119
 6434TIP3    H219309   2.320   3.351   1.327  0.3388  0.9165  0.5463
 6435TIP3   OH219310   3.696   4.940   1.217  0.1981  0.8968  0.0130
 6435TIP3    H119311   3.647   4.975   1.142  0.5164  0.3956 -0.4297
 6435TIP3    H219312   3.638   4.873   1.253  0.4252  0.5108 -0.3319
 6436TIP3   OH219313   0.104   5.631   0.577  0.3138  0.0417 -0.1099
 6436TIP3    H119314   0.070   5.546   0.604  0.1333  0.1077 -0.1289
 6436TIP3    H219315   0.119   5.621   0.483 -1.3639  0.5755 -0.4671
 6437TIP3   OH219316   2.670  -0.006   1.532 -0.3530  0.4920  0.0395
 6437TIP3    H119317   2.606   0.023   1.597  1.3649  1.2651  1.4662
 6437TIP3    H219318   2.740   0.059   1.537  0.9349 -0.7683 -0.8682
 6438TIP3   OH219319   0.810   3.206   1.231  0.4285 -0.2690  0.1139
 6438TIP3    H119320   0.746   3.136   1.248  1.0841 -0.8804  0.0796
 6438TIP3    H219321   0.876   3.195   1.299 -1.4558  2.8373  2.7289
 6439TIP3   OH219322   1.325   1.789   4.255 -0.4703  0.8563 -0.1149
 6439TIP3    H119323   1.258   1.723   4.234 -0.3727  0.3077  1.1922
 6439TIP3    H219324   1.350   1.826   4.170 -2.2788  0.9310 -0.6556
 6440TIP3   OH219325   5.458   5.033   4.045  0.6326  0.5421 -0.1621
 6440TIP3    H119326   5.518   5.084   3.991  0.0206  0.5633 -0.8314
 6440TIP3    H219327   5.475   4.942   4.020  0.9681  0.4869  0.2546
 6441TIP3   OH219328   5.447   0.458   3.267  0.2077 -0.2720  0.1543
 6441TIP3    H119329   5.458   0.400   3.191  1.5724  1.3552 -0.9586
 6441TIP3    H219330   5.468   0.545   3.234 -1.4380  0.8416  1.8751
 6442TIP3   OH219331   2.754   1.968   3.870  0.2736  1.1461 -0.0974
 6442TIP3    H119332   2.817   1.939   3.937 -1.3617 -1.7160  0.3512
 6442TIP3    H219333   2.722   2.052   3.902 -0.7939 -0.3122  3.0978
 6443TIP3   OH219334   6.085   3.085   1.459 -0.6562  0.8565 -0.0796
 6443TIP3    H119335   6.146   3.121   1.524  0.1445  1.4987 -1.1638
 6443TIP3    H219336   6.141   3.034   1.400 -1.4549 -0.1844  0.0293
 6444TIP3   OH219337   2.911   4.893   4.237 -0.3371  0.2580 -0.5305
 6444TIP3    H119338   2.994   4.876   4.192  0.1243  1.2045 -0.0580
 6444TIP3    H219339   2.845   4.892   4.168  0.0448 -0.5694 -0.9005
 6445TIP3   OH219340   6.121   1.855   3.615 -0.2872 -0.3682  0.3442
 6445TIP3    H119341   6.040   1.851   3.564 -1.0672 -0.3880  1.5550
 6445TIP3    H219342   6.115   1.781   3.676  1.5274 -1.5460 -0.7929
 6446TIP3   OH219343   0.239   3.944   3.621  0.7063  0.1431  0.1289
 6446TIP3    H119344   0.308   3.927   3.557 -0.6637 -0.3502 -1.2633
 6446TIP3    H219345   0.251   3.875   3.687  0.5962 -0.9344 -0.9357
 6447TIP3   OH219346   2.196   3.909   3.836  0.4299 -0.2266  0.1253
 6447TIP3    H119347   2.107   3.895   3.802 -0.1810 -0.0726  1.6020
 6447TIP3    H219348   2.217   3.999   3.811  0.6381 -0.6168 -1.1983
 6448TIP3   OH219349   0.998   3.601   2.574  0.4196  0.0235 -0.2846
 6448TIP3    H119350   0.947   3.679   2.551 -2.1647 -1.5478 -0.3287
 6448TIP3    H219351   1.061   3.591   2.503  0.6480  1.9181 -0.3929
 6449TIP3   OH219352   4.738   2.780   3.881  0.1611  0.1919  0.1604
 6449TIP3    H119353   4.727   2.857   3.936 -0.9054 -0.2000  0.5133
 6449TIP3    H219354   4.722   2.811   3.792  1.2944  0.6986  0.1175
 6450TIP3   OH219355   4.986   2.354   2.925  0.9733  0.0755 -0.0016
 6450TIP3    H119356   4.929   2.381   2.852  1.3277 -0.1364 -0.3627
 6450TIP3    H219357   5.003   2.435   2.973 -3.2104 -0.3887  2.7892
 6451TIP3   OH219358   5.488   0.252   1.797  0.0779  0.5163  0.3115
 6451TIP3    H119359   5.501   0.251   1.702 -0.1753  0.7543  0.2713
 6451TIP3    H219360   5.455   0.340   1.815 -1.7481 -0.1286  0.3555
 6452TIP3   OH219361   3.768   2.554   3.659 -0.7338 -0.2604 -0.6810
 6452TIP3    H119362   3.789   2.647   3.661 -0.6144 -0.2882 -0.6461
 6452TIP3    H219363   3.811   2.517   3.736 -0.5166 -0.3986 -0.8631
 6453TIP3   OH219364   4.974   2.398   1.688  0.3240  0.4453  0.0386
 6453TIP3    H119365   5.059   2.366   1.658  1.3636 -0.1954  3.2190
 6453TIP3    H219366   4.979   2.493   1.678  1.1538  0.3596 -0.4200
 6454TIP3   OH219367   5.806   0.764   1.306 -0.2822 -0.0740  0.2865
 6454TIP3    H119368   5.856   0.682   1.313 -1.1008 -0.8131 -1.7567
 6454TIP3    H219369   5.722   0.745   1.347  0.1356  0.3060  1.3331
 6455TIP3   OH219370   1.984   0.999   4.155  0.2589 -0.1667  0.0146
 6455TIP3    H119371   2.008   0.991   4.248  0.8328  3.2286  0.2789
 6455TIP3    H219372   2.059   0.961   4.108 -1.0406 -4.1479  0.7702
 6456TIP3   OH219373   0.584   3.388   3.902 -0.4924  0.6859  0.0146
 6456TIP3    H119374   0.659   3.357   3.953  1.5977  1.1555 -2.5727
 6456TIP3    H219375   0.531   3.310   3.889  0.0628  0.1111  1.0400
 6457TIP3   OH219376   0.064   5.908   4.155 -0.4768 -0.1352 -0.0092
 6457TIP3    H119377   0.085   5.824   4.113  1.1698 -0.2082  0.8915
 6457TIP3    H219378  -0.031   5.917   4.143 -0.5306 -1.6181 -1.0200
 6458TIP3   OH219379   1.441   4.136   2.362  0.1755  0.1795  0.6490
 6458TIP3    H119380   1.460   4.051   2.324  0.4623 -0.3023  1.8181
 6458TIP3    H219381   1.389   4.181   2.296 -2.6241 -2.0194  1.1591
 6459TIP3   OH219382   4.706   4.741   0.595  0.1228 -0.4276  0.0816
 6459TIP3    H119383   4.718   4.827   0.634 -1.7900 -1.0539  2.2220
 6459TIP3    H219384   4.616   4.741   0.562 -0.4487 -2.0377  1.4597
 6460TIP3   OH219385   4.008   1.286   1.452 -0.1805  0.1006  0.1377
 6460TIP3    H119386   4.052   1.271   1.535 -0.9254  1.4900  0.8383
 6460TIP3    H219387   3.919   1.312   1.477 -0.0623  1.7755 -1.0179
 6461TIP3   OH219388   4.263   3.436   3.783 -0.2541  0.0817  0.1631
 6461TIP3    H119389   4.201   3.387   3.837 -1.3642 -0.8940 -1.8738
 6461TIP3    H219390   4.349   3.405   3.811 -0.6779  0.8108  2.4378
 6462TIP3   OH219391   1.863   3.329   5.012  0.3380 -0.1239 -0.2026
 6462TIP3    H119392   1.821   3.408   5.048 -0.3924 -0.2144 -0.8155
 6462TIP3    H219393   1.957   3.344   5.025  0.1389  0.0874  1.2113
 6463TIP3   OH219394   0.306   0.170   3.321 -0.3803 -0.3218 -1.0950
 6463TIP3    H119395   0.278   0.154   3.231 -2.1142 -2.4766 -0.2737
 6463TIP3    H219396   0.227   0.201   3.366  0.4956  0.8985 -0.3301
 6464TIP3   OH219397   2.188   5.159   0.415  0.0395  0.1155 -0.2013
 6464TIP3    H119398   2.141   5.228   0.462  0.9571  0.7093 -0.1346
 6464TIP3    H219399   2.173   5.080   0.467 -0.4373  0.4048  0.1060
 6465TIP3   OH219400   3.858   0.207   0.257  0.6153 -0.6043 -0.4914
 6465TIP3    H119401   3.825   0.118   0.271  0.1639 -0.9645 -3.2408
 6465TIP3    H219402   3.953   0.196   0.247  0.7424 -0.5503  0.5545
 6466TIP3   OH219403   4.094   5.626   1.742  0.9167  0.2282 -0.3192
 6466TIP3    H119404   4.085   5.615   1.836 -0.4547  1.7712 -0.2152
 6466TIP3    H219405   4.021   5.683   1.718  1.1128 -0.3092 -2.3521
 6467TIP3   OH219406   5.721   3.809   0.713  0.1281 -0.3779 -0.0914
 6467TIP3    H119407   5.816   3.793   0.717 -0.1022 -1.6402  1.0441
 6467TIP3    H219408   5.695   3.826   0.803 -0.9239 -1.4494 -0.1578
 6468TIP3   OH219409   6.077   3.551   3.900  0.1459 -0.0262 -0.3192
 6468TIP3    H119410   6.110   3.618   3.840  0.5367  0.2566  0.2032
 6468TIP3    H219411   5.985   3.574   3.913 -0.1499 -0.5353 -1.4008
 6469TIP3   OH219412   0.158   3.236   4.717  0.0234 -0.8689  0.0730
 6469TIP3    H119413   0.173   3.145   4.692 -0.2583 -0.4611 -1.7107
 6469TIP3    H219414   0.141   3.281   4.634 -0.6440  0.6564  1.0049
 6470TIP3   OH219415   2.983   1.581   0.198  0.0535  0.0534 -0.1797
 6470TIP3    H119416   3.023   1.528   0.130 -0.8927  0.5377 -1.1524
 6470TIP3    H219417   2.988   1.527   0.277 -1.0010 -1.5724 -1.1561
 6471TIP3   OH219418   5.722   3.169   4.923 -0.2395  0.2377 -0.0133
 6471TIP3    H119419   5.811   3.193   4.948 -0.4700 -0.6350  1.8049
 6471TIP3    H219420   5.672   3.250   4.929  0.2850  0.5869 -0.3440
 6472TIP3   OH219421   0.909   1.514   4.195 -0.2181  0.0937  0.2121
 6472TIP3    H119422   0.889   1.446   4.131 -1.6995  2.1952 -1.7361
 6472TIP3    H219423   0.856   1.491   4.272  1.2720 -2.2534  0.6415
 6473TIP3   OH219424   3.568   1.445   1.840  0.4281  0.1329  0.3982
 6473TIP3    H119425   3.521   1.488   1.768  2.8970  0.6033 -1.0370
 6473TIP3    H219426   3.592   1.516   1.900  0.4748  0.0824  0.4395
 6474TIP3   OH219427   6.166   4.433   2.698 -0.5120 -0.5318 -0.4454
 6474TIP3    H119428   6.203   4.390   2.621  1.9039  0.0004  0.3178
 6474TIP3    H219429   6.107   4.500   2.663 -0.6901 -1.3405 -1.7528
 6475TIP3   OH219430   1.789   2.720   3.403  0.0020  0.4297  0.3206
 6475TIP3    H119431   1.834   2.764   3.475  0.3545 -0.3759  0.5995
 6475TIP3    H219432   1.704   2.696   3.439 -0.4199  1.3637 -0.0063
 6476TIP3   OH219433   1.020   5.312   4.893 -0.2050  0.2871 -0.1043
 6476TIP3    H119434   0.980   5.350   4.815 -0.9709  1.5073  0.8428
 6476TIP3    H219435   0.946   5.280   4.945 -0.0036  2.2645  1.5101
 6477TIP3   OH219436   2.489   5.215   1.610 -0.1303 -0.6689 -0.2534
 6477TIP3    H119437   2.482   5.124   1.640 -1.0638 -0.5877 -0.1760
 6477TIP3    H219438   2.471   5.267   1.688  0.4713 -0.4180 -0.2843
 6478TIP3   OH219439   4.134   2.130   0.089 -0.0151 -0.4905 -0.0631
 6478TIP3    H119440   4.057   2.076   0.071 -0.8750  1.0957 -1.3569
 6478TIP3    H219441   4.208   2.079   0.053 -0.8166 -0.7721 -1.3764
 6479TIP3   OH219442   3.460   0.805   3.536 -0.1197 -0.0008  0.0869
 6479TIP3    H119443   3.418   0.831   3.618  0.0613  1.2029 -0.1862
 6479TIP3    H219444   3.388   0.798   3.474  0.0368  2.3721 -0.4607
 6480TIP3   OH219445   1.788   4.180   3.460  0.8338 -0.4996 -0.4692
 6480TIP3    H119446   1.795   4.085   3.462 -0.1634 -0.6016 -1.0717
 6480TIP3    H219447   1.710   4.200   3.513  0.0723 -0.1523 -1.6805
 6481TIP3   OH219448   6.273   2.636   3.188  0.2378 -0.3122 -0.2586
 6481TIP3    H119449   6.281   2.556   3.240 -0.6989 -0.2284  0.0346
 6481TIP3    H219450   6.179   2.656   3.188  0.5320  1.2796  0.4586
 6482TIP3   OH219451   3.177   5.534   2.521  0.3780  0.0348  0.1837
 6482TIP3    H119452   3.182   5.438   2.519  0.4621  0.0497 -0.5251
 6482TIP3    H219453   3.084   5.553   2.519  0.3510 -0.0227 -1.7203
 6483TIP3   OH219454   4.494   2.404   4.195  0.0037 -0.3229 -0.4511
 6483TIP3    H119455   4.448   2.369   4.118  0.8753 -0.2605 -1.0130
 6483TIP3    H219456   4.550   2.473   4.159  2.3460 -1.9717 -0.1685
 6484TIP3   OH219457   4.867   0.645   3.932  0.4221  0.5131 -0.6760
 6484TIP3    H119458   4.879   0.719   3.873 -0.8098  1.8368  0.6772
 6484TIP3    H219459   4.940   0.651   3.993  1.0285 -0.1623 -1.3107
 6485TIP3   OH219460   5.531   4.408   5.010 -0.3190 -0.5545  0.3707
 6485TIP3    H119461   5.489   4.461   5.077  0.4904 -0.5573  0.8825
 6485TIP3    H219462   5.464   4.343   4.985 -0.8843 -0.0696  0.6130
 6486TIP3   OH219463   2.735   3.403   2.536 -0.2158  0.0807 -0.2840
 6486TIP3    H119464   2.685   3.325   2.559  0.4845 -0.7140 -1.3843
 6486TIP3    H219465   2.689   3.474   2.580 -1.3614 -0.8364  0.0568
 6487TIP3   OH219466   4.170   5.290   0.835  0.2927 -0.2028  0.0003
 6487TIP3    H119467   4.243   5.234   0.810  0.4957  0.0401  0.0454
 6487TIP3    H219468   4.177   5.366   0.777  0.0677 -0.1870 -0.0061
 6488TIP3   OH219469   5.457   4.701   1.769  0.2313  0.3497  0.1011
 6488TIP3    H119470   5.542   4.675   1.733 -0.2997 -0.3865 -0.6694
 6488TIP3    H219471   5.394   4.649   1.719 -0.6160  0.2550  1.2434
 6489TIP3   OH219472   3.331   4.153   4.639  0.4159 -0.1453  0.1367
 6489TIP3    H119473   3.410   4.170   4.690 -0.3867 -3.2626  2.7300
 6489TIP3    H219474   3.341   4.064   4.607 -1.2209  0.0965 -1.1919
 6490TIP3   OH219475   1.090   5.051   3.995  0.3441  0.1764 -0.4381
 6490TIP3    H119476   1.101   5.124   3.935  2.4392  0.0826 -0.2284
 6490TIP3    H219477   1.120   4.975   3.946  2.5412  0.1636  0.7830
 6491TIP3   OH219478   1.161   2.769   2.443 -0.5849  0.0776 -0.0755
 6491TIP3    H119479   1.207   2.739   2.522 -1.1314 -2.0198 -0.5000
 6491TIP3    H219480   1.069   2.750   2.461 -0.9138  1.1096 -0.5935
 6492TIP3   OH219481   4.724   4.349   2.969  0.4356 -0.1893  0.2896
 6492TIP3    H119482   4.740   4.339   2.875  1.1731  2.8675 -0.0147
 6492TIP3    H219483   4.786   4.417   2.997  0.6390 -1.4048  3.1340
 6493TIP3   OH219484   4.118   4.514   2.996  0.0984  0.2595 -0.2504
 6493TIP3    H119485   4.051   4.460   2.955  1.8186 -1.2950 -1.2048
 6493TIP3    H219486   4.160   4.456   3.060  0.7522  1.0654  0.0743
 6494TIP3   OH219487   5.880   2.873   1.484  0.1830 -0.6198 -0.0542
 6494TIP3    H119488   5.953   2.929   1.511  1.0376 -2.2282  1.0891
 6494TIP3    H219489   5.831   2.927   1.422  0.7121  1.5536  1.3073
 6495TIP3   OH219490   5.750   1.417   4.408  0.4980 -0.3484 -0.1804
 6495TIP3    H119491   5.739   1.470   4.486  0.7239 -0.7865  0.1551
 6495TIP3    H219492   5.820   1.356   4.430  0.5383 -0.5035 -0.7103
 6496TIP3   OH219493   5.769   4.232   2.584  0.1741  0.0944  0.0461
 6496TIP3    H119494   5.818   4.263   2.660 -0.4535  0.7157  0.2064
 6496TIP3    H219495   5.765   4.137   2.596 -0.7393  0.2613  1.3167
 6497TIP3   OH219496   2.720   3.012   2.568 -0.1769  0.5484  0.4419
 6497TIP3    H119497   2.660   3.048   2.634 -0.5282  1.6838 -0.4714
 6497TIP3    H219498   2.722   2.918   2.587 -1.3671  0.6469  1.1902
 6498TIP3   OH219499   4.803   1.203   3.660 -0.4080 -0.2849  0.0964
 6498TIP3    H119500   4.755   1.144   3.719 -0.6108  1.7610  2.1221
 6498TIP3    H219501   4.884   1.156   3.640 -1.8356 -2.4964 -0.8676
 6499TIP3   OH219502   4.999   3.297   4.454  0.8690  0.0058  0.2374
 6499TIP3    H119503   4.984   3.392   4.458  0.7174  0.0465 -0.8673
 6499TIP3    H219504   5.005   3.270   4.545  1.9324  1.2474  0.5804
 6500TIP3   OH219505   6.225   4.816   4.484 -0.3869 -0.5888  0.0148
 6500TIP3    H119506   6.268   4.730   4.482  0.2320 -0.3742  1.7895
 6500TIP3    H219507   6.211   4.838   4.392  0.4197 -2.1029 -0.5123
 6501TIP3   OH219508   4.663   0.628   0.836  0.3575  0.6150  0.3038
 6501TIP3    H119509   4.608   0.608   0.760 -0.0412 -0.3081  0.8259
 6501TIP3    H219510   4.646   0.721   0.853 -1.6546  0.1856  0.9235
 6502TIP3   OH219511   3.722   2.435   2.955 -0.8262  0.1399  0.3486
 6502TIP3    H119512   3.756   2.525   2.950 -1.1544  0.2751  0.5094
 6502TIP3    H219513   3.781   2.391   3.016  0.7890 -0.4291 -1.5342
 6503TIP3   OH219514   0.521   0.957   1.654  0.0900  0.2473  0.2209
 6503TIP3    H119515   0.568   0.874   1.644 -0.1295  0.3132 -1.7526
 6503TIP3    H219516   0.490   0.956   1.745  0.5363 -1.5840  0.3969
 6504TIP3   OH219517   6.331   0.921   0.464  0.4400 -0.2960  0.4753
 6504TIP3    H119518   6.293   0.864   0.397  1.0593  0.5412 -0.6215
 6504TIP3    H219519   6.412   0.876   0.489  1.2609  0.3705 -0.8595
 6505TIP3   OH219520   5.103   5.876   0.328  0.0553 -0.7573 -0.1737
 6505TIP3    H119521   5.140   5.798   0.287 -0.2063 -0.7474 -0.4298
 6505TIP3    H219522   5.095   5.940   0.257  2.8706  0.5225  0.4836
 6506TIP3   OH219523   1.423   2.971   2.771  0.2383 -0.1642  0.5351
 6506TIP3    H119524   1.431   2.935   2.682 -1.4893 -1.9279  1.0363
 6506TIP3    H219525   1.330   2.987   2.782  0.4342  0.0330  2.0485
 6507TIP3   OH219526   1.405   0.080   3.786 -0.1281  0.3286 -0.8155
 6507TIP3    H119527   1.385  -0.006   3.748 -0.2401  0.6932 -1.5997
 6507TIP3    H219528   1.395   0.067   3.880 -1.3511 -0.2121 -0.9962
 6508TIP3   OH219529   2.670   1.116   3.319  0.4996 -0.8223 -0.1945
 6508TIP3    H119530   2.718   1.172   3.381  2.2942 -3.1780  0.7194
 6508TIP3    H219531   2.610   1.066   3.374 -1.8748  0.8316 -1.1297
 6509TIP3   OH219532   5.402   5.734   2.885  0.5807 -0.2584  0.6789
 6509TIP3    H119533   5.481   5.779   2.916  0.5492  0.5535 -0.3782
 6509TIP3    H219534   5.346   5.804   2.853 -0.3575 -0.8809  0.9164
 6510TIP3   OH219535   2.984   3.534   3.280  0.4059 -0.0220  0.7885
 6510TIP3    H119536   2.974   3.440   3.294 -2.3729  0.2451  1.0515
 6510TIP3    H219537   3.017   3.567   3.364  1.8950 -0.7717  0.5328
 6511TIP3   OH219538   2.791   3.114   3.220  0.1816  0.2035 -0.1427
 6511TIP3    H119539   2.739   3.108   3.300 -0.5589 -0.3635 -0.6471
 6511TIP3    H219540   2.861   3.176   3.241 -0.6232  0.8953  0.6082
 6512TIP3   OH219541   1.895   2.322   3.267  0.2506 -0.5219  0.7350
 6512TIP3    H119542   1.899   2.252   3.333  1.9182 -1.1149  0.0738
 6512TIP3    H219543   1.925   2.400   3.313  1.2925 -0.9080  0.7451
 6513TIP3   OH219544   5.605   5.792   1.357  0.7426  0.5331  0.0196
 6513TIP3    H119545   5.682   5.742   1.384  1.6015  0.4538 -2.3009
 6513TIP3    H219546   5.633   5.838   1.278 -1.4848  0.8205 -0.6776
 6514TIP3   OH219547   5.945   4.739   3.816  0.2571  0.6767 -0.0730
 6514TIP3    H119548   6.021   4.691   3.782 -0.8225 -0.4803 -0.9520
 6514TIP3    H219549   5.895   4.673   3.864  0.1419  1.5872  1.0938
 6515TIP3   OH219550   1.173   2.279   2.067  0.3588 -0.0312  0.3859
 6515TIP3    H119551   1.162   2.186   2.085 -1.5231 -0.0541 -0.5897
 6515TIP3    H219552   1.198   2.283   1.975  0.0994  0.4310  0.3320
 6516TIP3   OH219553   5.348   5.177   2.552  0.1575  0.0906 -0.5780
 6516TIP3    H119554   5.416   5.137   2.606  0.4857  0.5132 -0.6740
 6516TIP3    H219555   5.293   5.226   2.613 -0.7387 -1.1386 -0.3376
 6517TIP3   OH219556   0.420   2.121   0.505 -0.2928 -0.0613  0.2799
 6517TIP3    H119557   0.441   2.189   0.441 -2.0825 -0.7488 -1.1450
 6517TIP3    H219558   0.477   2.048   0.483  1.5090  0.8337  1.7027
 6518TIP3   OH219559   0.050   0.417   0.353  0.4335  0.0159  0.2004
 6518TIP3    H119560  -0.035   0.428   0.394  0.9437  0.6268  1.1319
 6518TIP3    H219561   0.083   0.506   0.341  0.5286 -0.1637 -1.0829
 6519TIP3   OH219562   2.798   4.027   3.141  0.5696  0.2857 -0.0369
 6519TIP3    H119563   2.808   3.933   3.151  0.2183  0.1441 -0.9848
 6519TIP3    H219564   2.790   4.059   3.231  0.1054 -0.6562  0.2725
 6520TIP3   OH219565   2.674   2.267   0.851 -0.1482  0.2237 -0.1375
 6520TIP3    H119566   2.704   2.240   0.938 -1.4823 -0.7319  0.0593
 6520TIP3    H219567   2.740   2.232   0.791 -1.0015 -2.2299  0.2444
 6521TIP3   OH219568   1.203   4.838   4.810  0.3772  0.3637 -0.0406
 6521TIP3    H119569   1.276   4.839   4.748 -0.1000  0.4248 -0.6195
 6521TIP3    H219570   1.210   4.754   4.855  0.5640  0.1855 -0.3935
 6522TIP3   OH219571   5.990   5.226   0.809  0.3465 -0.6497  0.3472
 6522TIP3    H119572   6.035   5.310   0.805  2.1850 -1.4278  2.3862
 6522TIP3    H219573   6.022   5.178   0.733  1.8070 -0.6054  0.9036
 6523TIP3   OH219574   3.343   5.003   3.289 -0.4683  0.2884  0.3521
 6523TIP3    H119575   3.304   4.941   3.350 -1.5208  1.1483  0.5829
 6523TIP3    H219576   3.411   4.953   3.244 -0.3365 -0.6330  1.5216
 6524TIP3   OH219577   0.289   3.015   3.514  0.1968  0.2788  0.2767
 6524TIP3    H119578   0.200   3.032   3.483 -0.0168 -1.3565 -0.1073
 6524TIP3    H219579   0.337   3.096   3.496 -0.6532  0.4011 -1.6354
 6525TIP3   OH219580   4.420   3.660   1.712 -0.7237  0.4434 -0.2997
 6525TIP3    H119581   4.510   3.640   1.684 -1.0348 -0.2464 -0.8434
 6525TIP3    H219582   4.390   3.726   1.650 -0.7475  0.3321 -0.4080
 6526TIP3   OH219583   5.535   0.924   0.951 -0.0826  0.0974  0.2000
 6526TIP3    H119584   5.565   0.963   1.034  0.8217  0.7553 -0.4180
 6526TIP3    H219585   5.502   0.998   0.900 -1.6049 -0.4464  0.3534
 6527TIP3   OH219586   4.527   5.309   2.890  0.0228 -0.7693  0.1884
 6527TIP3    H119587   4.464   5.360   2.839  0.3558  0.8685  1.3215
 6527TIP3    H219588   4.521   5.346   2.978  2.7866 -0.2752  0.2677
 6528TIP3   OH219589   6.155   4.429   0.114  0.8282 -0.4615  0.8797
 6528TIP3    H119590   6.064   4.420   0.141  0.6275  0.1835  0.4401
 6528TIP3    H219591   6.185   4.340   0.097  0.1104 -0.6227  0.4578
 6529TIP3   OH219592   1.110   5.373   0.796 -0.0601 -0.1275  0.0533
 6529TIP3    H119593   1.022   5.408   0.810 -0.1625 -0.2084 -0.3653
 6529TIP3    H219594   1.103   5.321   0.716 -0.2783 -2.3571  1.4368
 6530TIP3   OH219595   1.029   3.245   4.672  0.2823 -0.7216  0.3591
 6530TIP3    H119596   1.118   3.211   4.679  0.3530 -0.5374  0.3569
 6530TIP3    H219597   1.039   3.331   4.632  0.1517 -0.4896  0.8082
 6531TIP3   OH219598   1.189   1.283   0.937  0.1947  0.2430 -0.1400
 6531TIP3    H119599   1.145   1.205   0.971 -0.1270 -0.0676 -1.2233
 6531TIP3    H219600   1.126   1.321   0.876  1.2721 -0.0365 -1.4884
 6532TIP3   OH219601   0.382   3.688   0.414  0.5299 -0.8893 -0.2115
 6532TIP3    H119602   0.334   3.689   0.497  1.4500  2.6594  0.4027
 6532TIP3    H219603   0.321   3.726   0.351  1.3541  0.7023 -0.0996
 6533TIP3   OH219604   3.488   1.297   0.219  0.1558  0.0677  0.6570
 6533TIP3    H119605   3.495   1.350   0.140 -0.1061 -0.4042  0.3119
 6533TIP3    H219606   3.396   1.304   0.244  0.3120  0.5061  1.1307
 6534TIP3   OH219607   4.880   5.459   2.466  0.2226 -0.5833 -0.5335
 6534TIP3    H119608   4.942   5.412   2.521  0.5893 -0.2567 -0.6695
 6534TIP3    H219609   4.900   5.430   2.377  1.0008  0.4533 -0.7050
 6535TIP3   OH219610   3.131   1.788   4.688 -0.3640  0.1489  0.3908
 6535TIP3    H119611   3.115   1.749   4.602 -2.9235  0.0149  0.8523
 6535TIP3    H219612   3.139   1.714   4.747 -2.4361  0.1982  0.8163
 6536TIP3   OH219613   0.944   3.013   3.711 -0.0197 -0.1123 -0.0832
 6536TIP3    H119614   0.945   3.069   3.634 -2.2884  0.7007  0.4170
 6536TIP3    H219615   0.991   3.064   3.778  2.8857 -1.2472 -1.0761
 6537TIP3   OH219616   0.157   1.182   1.663  0.1499 -0.6410  0.0408
 6537TIP3    H119617   0.072   1.221   1.643  0.2452 -0.0902  0.6609
 6537TIP3    H219618   0.184   1.139   1.582 -0.6439 -0.6827 -0.2080
 6538TIP3   OH219619   4.135   0.293   0.526 -0.2087 -0.3409  0.0207
 6538TIP3    H119620   4.045   0.286   0.559  0.1318 -1.7529  0.7159
 6538TIP3    H219621   4.135   0.373   0.474 -2.2487 -1.0261 -1.1633
 6539TIP3   OH219622   4.449   5.633   1.401 -0.7819 -0.3305  0.0384
 6539TIP3    H119623   4.413   5.670   1.320 -1.7417 -1.0768  0.1172
 6539TIP3    H219624   4.544   5.633   1.386 -0.9466 -0.4721 -1.0996
 6540TIP3   OH219625   4.967   3.858   1.281  0.2711 -0.8357  0.3930
 6540TIP3    H119626   4.989   3.940   1.238 -0.1729  0.4748  2.5194
 6540TIP3    H219627   4.993   3.790   1.219  1.0113  0.8881 -1.2607
 6541TIP3   OH219628   3.650   3.028   3.243  0.6589  0.0320  0.1819
 6541TIP3    H119629   3.721   2.979   3.201  0.7774  0.8608 -0.6238
 6541TIP3    H219630   3.594   2.960   3.281  0.9254 -0.7196 -0.7149
 6542TIP3   OH219631   2.861   2.519   3.733  1.1992  0.4489 -0.0336
 6542TIP3    H119632   2.832   2.577   3.662 -1.3354  0.8833  1.2289
 6542TIP3    H219633   2.813   2.437   3.717  0.9254  0.4174  0.9167
 6543TIP3   OH219634   1.329   2.732   4.026 -0.4303  0.0644 -0.0167
 6543TIP3    H119635   1.321   2.744   4.121  1.5854  0.6291  0.1203
 6543TIP3    H219636   1.343   2.638   4.015  0.6073  0.1573  0.3814
 6544TIP3   OH219637   2.104   4.433   0.132 -0.6352  0.1197 -0.3547
 6544TIP3    H119638   2.053   4.424   0.051 -2.9141 -0.2449  1.0416
 6544TIP3    H219639   2.040   4.427   0.202  1.5919 -2.5430  1.6699
 6545TIP3   OH219640   3.409   3.066   0.803 -0.0777  0.5497  0.0377
 6545TIP3    H119641   3.368   3.007   0.866  1.3059  0.7813  1.2155
 6545TIP3    H219642   3.454   3.008   0.742  0.7712  0.3312  0.8363
 6546TIP3   OH219643   5.128   2.897   4.409 -0.0613 -0.1363  0.4353
 6546TIP3    H119644   5.044   2.915   4.452 -0.1088 -1.7677  1.0747
 6546TIP3    H219645   5.106   2.896   4.316 -1.1430 -2.1775  0.6545
 6547TIP3   OH219646   1.201   0.296   4.681  0.2278  0.2440 -0.4541
 6547TIP3    H119647   1.291   0.267   4.699 -0.1698 -0.0301  1.2454
 6547TIP3    H219648   1.212   0.372   4.623  1.5975  0.7053  0.3523
 6548TIP3   OH219649   1.434   5.921   4.349  0.3237  0.1587  0.5109
 6548TIP3    H119650   1.350   5.879   4.366 -0.6521  1.5808 -0.5839
 6548TIP3    H219651   1.444   5.986   4.419 -0.2541  1.0582 -0.2233
 6549TIP3   OH219652   1.756   0.117   4.696 -0.4926 -0.3523 -0.3514
 6549TIP3    H119653   1.773   0.052   4.628 -2.8907 -0.7993 -0.6189
 6549TIP3    H219654   1.839   0.127   4.741  0.9184 -0.7872 -2.6956
 6550TIP3   OH219655   3.715   2.522   4.689  1.0331  0.5722 -0.4785
 6550TIP3    H119656   3.730   2.532   4.783  0.4813 -0.9366 -0.1997
 6550TIP3    H219657   3.683   2.432   4.679  0.6971  0.8348 -2.0682
 6551TIP3   OH219658   4.841   5.517   2.140  0.3154 -0.2075  0.1470
 6551TIP3    H119659   4.797   5.477   2.065  1.4302 -0.8259 -0.2117
 6551TIP3    H219660   4.898   5.583   2.101  3.0248 -2.3969  0.0598
 6552TIP3   OH219661   0.777   4.256   4.128  0.2412 -0.1928  0.4413
 6552TIP3    H119662   0.801   4.167   4.156 -0.0780 -0.6362 -0.6551
 6552TIP3    H219663   0.718   4.243   4.054  1.8252  0.9515 -1.0913
 6553TIP3   OH219664   2.131   0.255   3.273  0.9783  0.6036 -0.3305
 6553TIP3    H119665   2.070   0.238   3.345 -0.9009  2.0350 -1.4818
 6553TIP3    H219666   2.146   0.350   3.277  1.2432  0.6231 -1.5200
 6554TIP3   OH219667   1.182   2.518   2.193 -0.0025 -0.3003 -0.4433
 6554TIP3    H119668   1.149   2.451   2.133  0.2962 -1.1747  0.3456
 6554TIP3    H219669   1.126   2.510   2.270 -0.2911  0.7167 -0.5375
 6555TIP3   OH219670   2.812   5.369   0.602 -0.0930 -0.1775 -0.2176
 6555TIP3    H119671   2.822   5.319   0.682 -1.3033 -0.5707 -0.3022
 6555TIP3    H219672   2.741   5.326   0.555 -0.3974  0.9479 -0.8124
 6556TIP3   OH219673   0.746   3.312   2.377  0.0378 -0.2035  0.3523
 6556TIP3    H119674   0.662   3.353   2.400 -0.2458 -0.4719 -0.1930
 6556TIP3    H219675   0.804   3.336   2.449 -0.1655  1.0136  0.1322
 6557TIP3   OH219676   5.946   5.801   3.529 -0.0538  0.0019  0.0417
 6557TIP3    H119677   5.988   5.867   3.584 -0.0122  0.2456 -0.2767
 6557TIP3    H219678   5.979   5.820   3.441 -0.3923 -0.1652 -0.1205
 6558TIP3   OH219679   2.460   3.128   1.526 -0.2535  0.2359  0.5109
 6558TIP3    H119680   2.511   3.174   1.593 -1.0115  0.0139  1.2435
 6558TIP3    H219681   2.399   3.073   1.575  1.1123 -2.1860 -0.3030
 6559TIP3   OH219682   5.396   4.282   1.196 -0.1645  0.1992 -0.1246
 6559TIP3    H119683   5.359   4.341   1.131 -0.3024 -0.1520 -0.3675
 6559TIP3    H219684   5.330   4.276   1.264 -0.1013  0.4163 -0.0439
 6560TIP3   OH219685   2.108   3.337   0.897  0.7122 -0.4098 -0.4737
 6560TIP3    H119686   2.025   3.333   0.848  0.4539 -0.9209 -0.0034
 6560TIP3    H219687   2.150   3.417   0.866 -0.2093  0.1485 -0.3193
 6561TIP3   OH219688   2.234   1.552   3.063 -0.0170  0.2119 -0.0678
 6561TIP3    H119689   2.179   1.607   3.007 -0.1564 -1.3116 -1.4895
 6561TIP3    H219690   2.294   1.509   3.002  0.9669 -0.2186  1.1615
 6562TIP3   OH219691   2.722   1.356   4.517  0.1483  0.1221 -0.7956
 6562TIP3    H119692   2.629   1.339   4.528  0.4702 -0.4833  1.7000
 6562TIP3    H219693   2.733   1.449   4.538  0.2944 -0.2107  0.7011
 6563TIP3   OH219694   1.751   5.424   3.462 -0.3495  0.3266 -0.2726
 6563TIP3    H119695   1.713   5.348   3.418 -0.3254  0.9864 -1.4854
 6563TIP3    H219696   1.732   5.497   3.403 -1.5310  1.5125  1.4708
 6564TIP3   OH219697   0.954   4.241   0.225  0.4786 -0.3342  0.4160
 6564TIP3    H119698   0.993   4.168   0.176 -0.2092 -0.7502  0.4806
 6564TIP3    H219699   0.874   4.205   0.263  0.4765  0.2719  1.0084
 6565TIP3   OH219700   5.596   2.604   1.833 -0.2013 -0.1200  0.2806
 6565TIP3    H119701   5.617   2.514   1.856 -2.0942 -0.4635  0.7538
 6565TIP3    H219702   5.643   2.619   1.751 -0.4415 -1.7710 -0.1910
 6566TIP3   OH219703   1.801   1.896   3.667 -0.4028  0.1180  0.2354
 6566TIP3    H119704   1.882   1.909   3.716  0.0127 -0.9813 -0.1388
 6566TIP3    H219705   1.820   1.932   3.581 -0.8959  1.3995  0.6382
 6567TIP3   OH219706   3.990   0.757   2.500  0.3705 -0.1998 -0.4811
 6567TIP3    H119707   3.951   0.670   2.490 -1.1020  0.0372  2.2080
 6567TIP3    H219708   4.073   0.741   2.543  0.1862 -0.2936 -0.1580
 6568TIP3   OH219709   0.419   5.569   0.601 -0.1334 -0.7880 -0.2194
 6568TIP3    H119710   0.479   5.587   0.528  1.6612 -0.7733  1.1900
 6568TIP3    H219711   0.395   5.477   0.590  1.8601 -1.4272  0.3204
 6569TIP3   OH219712   4.337   5.542   3.709 -0.1426  0.4917  0.0497
 6569TIP3    H119713   4.262   5.490   3.681  0.4030  0.9313 -2.4987
 6569TIP3    H219714   4.311   5.633   3.694  1.8959  0.6358 -4.3987
 6570TIP3   OH219715   5.702   5.702   4.888 -0.4266  0.4996  0.1816
 6570TIP3    H119716   5.611   5.732   4.894 -0.3081  0.7149  0.9498
 6570TIP3    H219717   5.754   5.775   4.922 -0.1907 -0.8416  2.9724
 6571TIP3   OH219718   0.676   3.037   3.703 -0.2226  0.0019 -0.3807
 6571TIP3    H119719   0.656   2.946   3.726  0.1457 -0.0483 -0.2517
 6571TIP3    H219720   0.771   3.042   3.707 -0.1994  0.2121 -1.0896
 6572TIP3   OH219721   1.738   3.608   1.990  0.4599  0.2168  0.3534
 6572TIP3    H119722   1.650   3.640   1.969 -0.7031 -0.3331  3.6734
 6572TIP3    H219723   1.788   3.620   1.910 -2.2809  1.7968 -1.2869
 6573TIP3   OH219724   1.721   5.217   1.737  0.0983  0.2576  0.2318
 6573TIP3    H119725   1.761   5.130   1.727  0.7987  0.6167 -0.1400
 6573TIP3    H219726   1.645   5.215   1.678  0.0738 -0.1267  0.2735
 6574TIP3   OH219727   2.381   0.973   1.168  0.4870 -0.1260  0.2759
 6574TIP3    H119728   2.454   1.035   1.172  0.4658 -0.0831 -0.0199
 6574TIP3    H219729   2.417   0.896   1.123 -0.2288  0.7031 -1.8305
 6575TIP3   OH219730   0.476   1.104   4.087 -0.7477  0.0551  0.1728
 6575TIP3    H119731   0.470   1.199   4.074  0.0361  0.1290  0.2712
 6575TIP3    H219732   0.419   1.066   4.021 -0.0904  0.5566 -0.6953
 6576TIP3   OH219733   5.215   2.231   0.953 -0.0764 -0.3887  0.0832
 6576TIP3    H119734   5.200   2.137   0.944 -1.1446 -0.1712 -0.6323
 6576TIP3    H219735   5.187   2.251   1.042  1.4054 -0.9459  0.7121
 6577TIP3   OH219736   3.980   1.927   0.840 -0.3014 -0.3357 -0.2872
 6577TIP3    H119737   3.889   1.953   0.857  0.1168 -0.3150  2.2663
 6577TIP3    H219738   3.973   1.860   0.771 -2.3358 -0.9056  0.3901
 6578TIP3   OH219739   3.237   2.246   4.574 -0.0223  0.2572  0.4620
 6578TIP3    H119740   3.149   2.213   4.555  0.3807 -0.9784  0.6350
 6578TIP3    H219741   3.295   2.189   4.523  0.7353  0.3740  1.1797
 6579TIP3   OH219742   2.399   5.236   3.630 -0.3677 -0.2653 -0.5713
 6579TIP3    H119743   2.338   5.309   3.644  2.6457  2.1603  1.4377
 6579TIP3    H219744   2.387   5.212   3.538 -2.2678  2.0669 -1.0398
 6580TIP3   OH219745   4.489   2.337   2.486 -0.1005  0.2087 -0.1521
 6580TIP3    H119746   4.415   2.342   2.426 -0.4045 -0.2733  0.1742
 6580TIP3    H219747   4.562   2.375   2.437 -0.1753 -0.7943 -1.0900
 6581TIP3   OH219748   3.784   5.950   2.482  0.1505  0.2954 -0.1206
 6581TIP3    H119749   3.759   5.867   2.442  1.0730  0.3059 -0.7675
 6581TIP3    H219750   3.787   6.011   2.408  1.9352  0.3095 -0.0679
 6582TIP3   OH219751   5.889   1.929   2.144 -0.4454  0.3305 -0.4356
 6582TIP3    H119752   5.936   1.871   2.204 -0.1540 -0.8426 -1.7429
 6582TIP3    H219753   5.937   2.012   2.149 -0.3025  0.1893  0.7702
 6583TIP3   OH219754   2.054   5.580   2.884 -0.2911  0.0533 -0.5492
 6583TIP3    H119755   2.075   5.519   2.814 -1.3782 -1.2105  0.1804
 6583TIP3    H219756   2.064   5.667   2.845  1.4714 -0.5757 -1.5506
 6584TIP3   OH219757   0.844   5.197   1.841 -0.1114  0.4186  0.0012
 6584TIP3    H119758   0.873   5.282   1.874  0.8086 -0.0744  0.4914
 6584TIP3    H219759   0.853   5.138   1.916  0.4943 -0.3865 -0.6867
 6585TIP3   OH219760   2.466   4.534   3.326 -0.2654 -0.0609 -0.4007
 6585TIP3    H119761   2.447   4.478   3.401 -0.4661 -0.6603 -0.8928
 6585TIP3    H219762   2.455   4.624   3.359  2.9051 -0.1160  1.2479
 6586TIP3   OH219763   4.744   5.041   0.618 -0.2458 -0.1550  0.2758
 6586TIP3    H119764   4.796   5.082   0.549 -2.1812  0.7189 -0.7370
 6586TIP3    H219765   4.738   5.108   0.686  0.1204 -0.3268  0.4757
 6587TIP3   OH219766   4.190   3.166   0.748  0.2594 -0.6452  0.2868
 6587TIP3    H119767   4.145   3.088   0.782 -0.4574 -0.3109  0.1335
 6587TIP3    H219768   4.280   3.157   0.779 -0.0998 -0.9280  1.3127
 6588TIP3   OH219769   4.968   0.410   2.053  0.2862 -0.4382  0.7476
 6588TIP3    H119770   4.959   0.407   1.958 -1.6011  0.0236  0.8758
 6588TIP3    H219771   5.023   0.334   2.074  0.4715 -0.7216 -0.6716
 6589TIP3   OH219772   1.219   4.184   5.143  0.2462 -0.3203  0.2178
 6589TIP3    H119773   1.150   4.126   5.110  0.0783  0.2449 -0.4495
 6589TIP3    H219774   1.292   4.171   5.082  0.5925 -0.6173  0.6898
 6590TIP3   OH219775   5.096   2.842   2.119  0.7706 -0.5269  0.1630
 6590TIP3    H119776   5.056   2.818   2.035 -1.6428 -1.5823  1.5287
 6590TIP3    H219777   5.032   2.898   2.162  1.7625 -0.3744  1.5198
 6591TIP3   OH219778   3.897   3.480   1.975 -0.1814 -0.1659 -0.1415
 6591TIP3    H119779   3.937   3.393   1.973  2.1804  0.8237  0.1073
 6591TIP3    H219780   3.905   3.511   1.885  3.5870  1.5926  0.6061
 6592TIP3   OH219781   6.329   1.265   0.524 -0.3873 -0.0741  0.0192
 6592TIP3    H119782   6.413   1.270   0.569 -0.4032 -1.2082  0.2009
 6592TIP3    H219783   6.335   1.187   0.469 -1.4648 -0.4011  0.3372
 6593TIP3   OH219784   5.504   5.597   4.516 -0.4837 -0.3244  0.1501
 6593TIP3    H119785   5.590   5.559   4.498  0.2636  1.6390 -0.5968
 6593TIP3    H219786   5.457   5.591   4.433 -0.2208  0.6615 -0.0876
 6594TIP3   OH219787   4.538   1.239   1.714 -0.2996  0.9334 -0.5789
 6594TIP3    H119788   4.590   1.319   1.725 -1.9261  2.1756 -1.4203
 6594TIP3    H219789   4.459   1.254   1.765 -0.1007 -0.7257  0.2973
 6595TIP3   OH219790   4.342   4.048   4.838 -0.0888  0.7867 -0.1536
 6595TIP3    H119791   4.412   4.077   4.779 -1.7056  1.1457 -2.0125
 6595TIP3    H219792   4.308   4.130   4.875  0.3542  0.6206  0.6483
 6596TIP3   OH219793   6.065   5.343   1.567 -0.2936  0.0206 -0.2372
 6596TIP3    H119794   6.095   5.285   1.636  1.1658 -0.4086 -1.1984
 6596TIP3    H219795   5.973   5.360   1.589 -0.2316 -1.1432  1.0724
 6597TIP3   OH219796   2.065   2.233   4.489 -0.8020 -0.0181  0.1885
 6597TIP3    H119797   2.066   2.159   4.428 -2.2313 -1.1489  1.4606
 6597TIP3    H219798   1.972   2.245   4.510 -0.5822  2.0295  0.1836
 6598TIP3   OH219799   3.639   4.061   1.430 -0.3580  0.2221  0.0982
 6598TIP3    H119800   3.639   4.155   1.447 -2.5401  0.6123 -1.5398
 6598TIP3    H219801   3.686   4.052   1.346  0.1481 -0.2082  0.4200
 6599TIP3   OH219802   2.490   4.506   4.826  0.1681 -0.7392 -0.7187
 6599TIP3    H119803   2.425   4.439   4.804  0.1865 -1.5500  1.4143
 6599TIP3    H219804   2.476   4.523   4.919 -0.4356  2.9904 -1.3561
 6600TIP3   OH219805   0.487   2.841   3.345 -0.4720 -0.7223  0.7247
 6600TIP3    H119806   0.459   2.910   3.405  0.6434 -0.6196  1.1635
 6600TIP3    H219807   0.567   2.806   3.384  2.4230  1.7456 -2.3592
 6601TIP3   OH219808   2.913   1.082   5.002 -0.3027 -0.3760 -0.1603
 6601TIP3    H119809   2.985   1.130   5.044  0.2438 -0.2352 -1.2265
 6601TIP3    H219810   2.852   1.065   5.074  0.0102  0.9410  0.4710
 6602TIP3   OH219811   4.143   5.874   1.931 -0.3529 -0.1583  0.6125
 6602TIP3    H119812   4.214   5.856   1.870 -0.2681 -0.1728  0.7160
 6602TIP3    H219813   4.105   5.788   1.949 -1.6225  0.0281 -0.9282
 6603TIP3   OH219814   5.170   2.488   4.970  0.1287  0.0296 -0.0320
 6603TIP3    H119815   5.149   2.404   5.009  0.4808 -0.3277 -0.6094
 6603TIP3    H219816   5.187   2.469   4.878 -3.1712  1.1835 -1.0410
 6604TIP3   OH219817   6.027   2.867   3.855  0.2549 -0.2369  0.2071
 6604TIP3    H119818   6.023   2.794   3.793 -1.1042 -0.0571  0.0531
 6604TIP3    H219819   6.120   2.890   3.859  0.5242 -1.0736 -0.7925
 6605TIP3   OH219820   1.388   1.506   5.098 -0.4728  0.2458  0.2722
 6605TIP3    H119821   1.434   1.461   5.169  0.3731 -0.6662 -0.7997
 6605TIP3    H219822   1.296   1.503   5.123 -0.2590 -0.6852  1.0043
 6606TIP3   OH219823   4.402   5.067   1.635 -0.0952  0.1488 -0.6133
 6606TIP3    H119824   4.407   5.010   1.712 -3.1593 -0.5070 -0.7502
 6606TIP3    H219825   4.489   5.064   1.597  0.4284 -2.8770  0.5189
 6607TIP3   OH219826   4.235   2.802   5.010 -0.7802  0.1317  0.3966
 6607TIP3    H119827   4.179   2.810   5.087  0.9092 -0.1146  1.7068
 6607TIP3    H219828   4.265   2.891   4.993 -0.2457  0.0290  0.7594
 6608TIP3   OH219829   1.914   0.761   4.427  0.0502  0.1586  0.1989
 6608TIP3    H119830   1.828   0.761   4.470  0.0727 -0.5787  0.2450
 6608TIP3    H219831   1.917   0.680   4.378  0.7511  0.1476  0.2482
 6609TIP3   OH219832   2.153   1.878   1.401  0.2542  0.1227 -0.0043
 6609TIP3    H119833   2.085   1.936   1.366 -1.2868 -1.4447  0.1766
 6609TIP3    H219834   2.119   1.790   1.382  1.2337 -0.7314  1.9762
 6610TIP3   OH219835   5.455   0.099   5.013  0.0295  0.2359  0.3068
 6610TIP3    H119836   5.535   0.135   4.975 -0.8351  0.4880 -1.3713
 6610TIP3    H219837   5.393   0.097   4.940 -2.1829  2.0587  2.0062
 6611TIP3   OH219838   1.522   2.156   3.287 -0.2984  0.2832  0.5724
 6611TIP3    H119839   1.592   2.101   3.323 -1.2281 -0.9722  0.5217
 6611TIP3    H219840   1.568   2.221   3.234  0.8163 -0.6132  0.4014
 6612TIP3   OH219841   6.029   2.372   4.973 -0.1782  0.0693  0.4254
 6612TIP3    H119842   6.001   2.326   5.052  1.8297 -0.0100  1.1564
 6612TIP3    H219843   6.098   2.317   4.936 -0.0859  0.8281 -0.5804
 6613TIP3   OH219844   5.279   4.515   1.654 -0.4288 -0.0444  0.6232
 6613TIP3    H119845   5.228   4.566   1.591  1.8339  1.0788 -0.3870
 6613TIP3    H219846   5.223   4.440   1.675 -1.3869 -0.3228 -2.4962
 6614TIP3   OH219847   5.829   5.397   1.024 -0.0018  0.1517 -0.0819
 6614TIP3    H119848   5.844   5.319   0.971  0.8850  0.6311 -0.5669
 6614TIP3    H219849   5.748   5.434   0.990 -0.4200 -0.5375  0.1407
 6615TIP3   OH219850   1.795   4.767   4.088 -0.1327 -0.4638 -0.4725
 6615TIP3    H119851   1.728   4.781   4.155  1.1845 -1.0982  1.0557
 6615TIP3    H219852   1.809   4.854   4.049  0.4332  0.3641  1.4602
 6616TIP3   OH219853   4.229   3.113   2.936 -0.0681  0.3969  0.5556
 6616TIP3    H119854   4.166   3.044   2.916  1.0854 -0.6483  0.4172
 6616TIP3    H219855   4.225   3.122   3.031 -0.0654 -0.0423  0.6002
 6617TIP3   OH219856   0.903   5.874   2.960  0.0588 -0.3832  0.4175
 6617TIP3    H119857   0.855   5.882   3.042  1.0391 -0.3502  0.9983
 6617TIP3    H219858   0.991   5.905   2.980  0.5682 -1.2362 -0.4039
 6618TIP3   OH219859   5.116   3.622   4.067 -0.3437  0.0612  0.5433
 6618TIP3    H119860   5.073   3.545   4.105 -2.3914  0.2315 -1.2094
 6618TIP3    H219861   5.078   3.696   4.115  1.7345  0.0720  2.3319
 6619TIP3   OH219862   0.648   0.040   1.948  0.1341 -0.0283 -0.3801
 6619TIP3    H119863   0.576  -0.021   1.964  0.7812 -1.0044 -1.0264
 6619TIP3    H219864   0.723   0.001   1.994  0.1513  1.2643  0.7669
 6620TIP3   OH219865   4.103   4.760   0.833 -0.0690 -0.7627  0.5877
 6620TIP3    H119866   4.189   4.773   0.873  0.2161 -0.4334 -0.1131
 6620TIP3    H219867   4.081   4.669   0.852  0.4480 -0.8565  0.7473
 6621TIP3   OH219868   4.718   2.701   2.180  0.1556  0.4758  0.0250
 6621TIP3    H119869   4.647   2.661   2.130  0.2012 -0.9317  1.0390
 6621TIP3    H219870   4.719   2.793   2.152 -2.8330  0.8384  0.8266
 6622TIP3   OH219871   1.419   2.379   2.286 -0.4229  0.7301 -0.4093
 6622TIP3    H119872   1.366   2.418   2.216 -1.3676 -0.7822 -0.5898
 6622TIP3    H219873   1.357   2.326   2.336  0.6318  0.1810  0.3480
 6623TIP3   OH219874   5.306   5.991   0.583  0.4242 -0.0929 -0.4646
 6623TIP3    H119875   5.273   5.992   0.673 -0.4965 -0.0148 -0.7921
 6623TIP3    H219876   5.275   5.907   0.548 -0.2067  0.3787 -1.0569
 6624TIP3   OH219877   5.392   2.231   4.590  0.1640 -0.7470  0.0427
 6624TIP3    H119878   5.487   2.219   4.578  0.0166 -1.2223 -0.7397
 6624TIP3    H219879   5.353   2.164   4.534 -0.6588  0.1543 -0.4734
 6625TIP3   OH219880   5.850   5.448   2.176  0.6791 -0.2577  0.6297
 6625TIP3    H119881   5.826   5.484   2.091 -3.2136 -0.3379  1.5220
 6625TIP3    H219882   5.934   5.490   2.197  2.3678 -1.0137 -3.5706
 6626TIP3   OH219883   3.092   3.914   2.346 -0.2483  0.1078  0.2226
 6626TIP3    H119884   3.160   3.850   2.366  0.8289  1.3717  0.7162
 6626TIP3    H219885   3.033   3.911   2.421 -2.2557 -2.7732 -1.2608
 6627TIP3   OH219886   5.030   5.334   5.016  0.3409  0.6409 -0.3913
 6627TIP3    H119887   5.023   5.429   5.028  1.1965  0.6033  0.6895
 6627TIP3    H219888   5.122   5.321   4.991  0.5479  0.0282  0.6251
 6628TIP3   OH219889   0.595   2.054   3.292 -0.5944 -0.4276 -0.4358
 6628TIP3    H119890   0.612   1.965   3.260  0.2432 -1.1131  1.7292
 6628TIP3    H219891   0.675   2.078   3.339 -1.2021  1.0706 -0.1222
 6629TIP3   OH219892   1.014   5.800   0.123 -0.2512 -0.2678 -0.2298
 6629TIP3    H119893   0.949   5.835   0.062 -0.4083  1.7794  1.0473
 6629TIP3    H219894   1.078   5.870   0.133  0.6663 -1.2120  0.6938
 6630TIP3   OH219895   4.669   3.623   1.559 -0.7272  0.1681 -0.8132
 6630TIP3    H119896   4.762   3.608   1.545 -0.7726 -0.9141 -0.0350
 6630TIP3    H219897   4.636   3.650   1.473  0.2487  0.2607 -1.1622
 6631TIP3   OH219898   1.386   0.651   4.305 -0.0474 -0.2090 -0.5091
 6631TIP3    H119899   1.414   0.560   4.291  0.1807 -0.8797  3.3430
 6631TIP3    H219900   1.290   0.646   4.309 -0.0466 -0.2226 -0.5056
 6632TIP3   OH219901   2.011   4.557   1.238  0.5617 -0.3844  0.3866
 6632TIP3    H119902   2.101   4.575   1.212  0.3961 -2.2528 -1.8168
 6632TIP3    H219903   2.008   4.577   1.332  2.6337  1.8625  0.0664
 6633TIP3   OH219904   5.419   4.385   4.000  0.7397  0.4314  0.1270
 6633TIP3    H119905   5.413   4.424   3.913 -1.6465  0.4333  0.2313
 6633TIP3    H219906   5.397   4.456   4.060  0.1949 -0.1022  0.5731
 6634TIP3   OH219907   5.538   3.729   1.799 -0.5976 -0.0172  0.4269
 6634TIP3    H119908   5.454   3.683   1.802  0.4544 -2.0094  1.1113
 6634TIP3    H219909   5.532   3.795   1.869 -1.6395 -0.0105  0.3419
 6635TIP3   OH219910   4.050   3.867   4.999 -0.1238  0.0024 -0.3179
 6635TIP3    H119911   4.026   3.943   5.052  0.0226  0.1507 -0.4677
 6635TIP3    H219912   3.984   3.864   4.930 -0.8834 -0.7484  0.4223
 6636TIP3   OH219913   4.564   1.736   0.159 -0.0652 -0.0464 -0.2188
 6636TIP3    H119914   4.480   1.770   0.190 -0.1696  0.0215 -0.5731
 6636TIP3    H219915   4.540   1.668   0.096  0.0819 -2.3194  2.0104
 6637TIP3   OH219916   1.967   1.542   0.304  0.2796  0.1766 -0.3608
 6637TIP3    H119917   1.908   1.617   0.304  0.4677  0.3603 -1.9742
 6637TIP3    H219918   2.052   1.578   0.276  0.8634 -0.2911  0.7715
 6638TIP3   OH219919   3.137   0.252   0.921 -0.1567  0.0730  0.2449
 6638TIP3    H119920   3.171   0.163   0.933  2.6923  0.9006 -0.9209
 6638TIP3    H219921   3.188   0.306   0.980 -0.7954  1.1531 -0.1571
 6639TIP3   OH219922   6.163   5.643   0.237 -0.2233  0.0722  0.6727
 6639TIP3    H119923   6.124   5.628   0.324  0.6988 -1.2198  0.8890
 6639TIP3    H219924   6.242   5.695   0.255 -0.3732  0.3520  0.5292
 6640TIP3   OH219925   4.752   5.681   4.670 -0.0155 -0.2922  0.2450
 6640TIP3    H119926   4.699   5.680   4.590 -1.2979  0.3989  1.0542
 6640TIP3    H219927   4.831   5.632   4.647 -0.8930 -1.1520 -1.0751
 6641TIP3   OH219928   5.670   0.630   3.429  0.1299  0.1764 -0.2765
 6641TIP3    H119929   5.641   0.606   3.517 -0.6528  0.3843 -0.4714
 6641TIP3    H219930   5.707   0.549   3.393  0.8858  0.2005  0.3993
 6642TIP3   OH219931   3.975   5.844   1.151 -0.4159  0.0685 -0.1026
 6642TIP3    H119932   4.013   5.797   1.076 -0.5296  1.8167 -1.3232
 6642TIP3    H219933   4.010   5.933   1.143 -1.9198  0.7764  0.8331
 6643TIP3   OH219934   1.476   3.369   3.142 -0.4083 -0.6524  0.0287
 6643TIP3    H119935   1.431   3.291   3.110  0.6683 -1.3454  0.1188
 6643TIP3    H219936   1.560   3.368   3.095 -1.4625  2.0809 -2.2087
 6644TIP3   OH219937   3.997   2.972   1.327  0.3716 -0.3128 -0.9599
 6644TIP3    H119938   3.905   2.947   1.327  0.1291  0.5018 -2.0763
 6644TIP3    H219939   4.044   2.890   1.311 -0.3002 -0.3992 -2.7079
 6645TIP3   OH219940   5.931   1.569   0.788 -0.0281 -0.6902  0.1236
 6645TIP3    H119941   5.994   1.510   0.745  1.8571  0.7086  0.8449
 6645TIP3    H219942   5.958   1.570   0.880  0.1057  1.4018  0.0982
   6.36209   5.99823   5.19462   0.00000   0.00000  -2.12070   0.00000  -2.12070  -2.99912
