Title t= 235.00000 step= 117500
29212
    1ASP      N    1   2.115   0.977   2.755
    1ASP    HT1    2   2.189   0.911   2.725
    1ASP    HT2    3   2.067   0.932   2.836
    1ASP    HT3    4   2.160   1.059   2.801
    1ASP     CA    5   2.018   1.017   2.648
    1ASP     HA    6   2.075   1.059   2.566
    1ASP     CB    7   1.948   0.894   2.591
    1ASP    HB1    8   1.862   0.931   2.531
    1ASP    HB2    9   1.916   0.825   2.672
    1ASP     CG   10   2.040   0.818   2.496
    1ASP    OD1   11   2.164   0.837   2.496
    1ASP    OD2   12   1.990   0.724   2.426
    1ASP      C   13   1.923   1.122   2.703
    1ASP      O   14   1.917   1.148   2.819
    2GLY      N   15   1.842   1.173   2.610
    2GLY     HN   16   1.854   1.143   2.515
    2GLY     CA   17   1.743   1.277   2.628
    2GLY    HA1   18   1.770   1.372   2.585
    2GLY    HA2   19   1.720   1.272   2.734
    2GLY      C   20   1.614   1.240   2.564
    2GLY      O   21   1.602   1.144   2.489
    3ASP      N   22   1.511   1.323   2.584
    3ASP     HN   23   1.521   1.400   2.647
    3ASP     CA   24   1.386   1.313   2.520
    3ASP     HA   25   1.395   1.268   2.422
    3ASP     CB   26   1.273   1.226   2.588
    3ASP    HB1   27   1.174   1.225   2.538
    3ASP    HB2   28   1.261   1.267   2.691
    3ASP     CG   29   1.315   1.084   2.598
    3ASP    OD1   30   1.286   1.008   2.696
    3ASP    OD2   31   1.352   1.035   2.484
    3ASP      C   32   1.329   1.453   2.489
    3ASP      O   33   1.332   1.536   2.579
    4GLY      N   34   1.281   1.479   2.372
    4GLY     HN   35   1.277   1.414   2.296
    4GLY     CA   36   1.227   1.607   2.335
    4GLY    HA1   37   1.182   1.602   2.237
    4GLY    HA2   38   1.310   1.677   2.326
    4GLY      C   39   1.117   1.666   2.420
    4GLY      O   40   1.053   1.594   2.499
    5PRO      N   41   1.079   1.799   2.414
    5PRO     CD   42   1.157   1.911   2.356
    5PRO    HD1   43   1.177   1.895   2.248
    5PRO    HD2   44   1.254   1.919   2.410
    5PRO     CA   45   0.967   1.847   2.491
    5PRO     HA   46   0.971   1.803   2.590
    5PRO     CB   47   0.989   1.995   2.504
    5PRO    HB1   48   1.049   2.021   2.594
    5PRO    HB2   49   0.892   2.047   2.513
    5PRO     CG   50   1.069   2.034   2.379
    5PRO    HG1   51   0.991   2.045   2.300
    5PRO    HG2   52   1.127   2.128   2.390
    5PRO      C   53   0.827   1.817   2.432
    5PRO      O   54   0.798   1.872   2.325
    6GLY      N   55   0.752   1.734   2.509
    6GLY     HN   56   0.788   1.695   2.593
    6GLY     CA   57   0.615   1.698   2.480
    6GLY    HA1   58   0.595   1.595   2.506
    6GLY    HA2   59   0.587   1.717   2.377
    6GLY      C   60   0.525   1.781   2.559
    6GLY      O   61   0.567   1.879   2.624
    7ASP      N   62   0.394   1.753   2.554
    7ASP     HN   63   0.359   1.674   2.503
    7ASP     CA   64   0.295   1.831   2.611
    7ASP     HA   65   0.319   1.932   2.580
    7ASP     CB   66   0.155   1.782   2.568
    7ASP    HB1   67   0.080   1.852   2.611
    7ASP    HB2   68   0.133   1.677   2.598
    7ASP     CG   69   0.144   1.799   2.417
    7ASP    OD1   70   0.075   1.707   2.365
    7ASP    OD2   71   0.190   1.895   2.353
    7ASP      C   72   0.298   1.826   2.768
    7ASP      O   73   0.307   1.716   2.826
    8PRO      N   74   0.290   1.940   2.841
    8PRO     CD   75   0.240   2.061   2.785
    8PRO    HD1   76   0.130   2.050   2.775
    8PRO    HD2   77   0.292   2.100   2.695
    8PRO     CA   78   0.323   1.950   2.982
    8PRO     HA   79   0.430   1.955   2.985
    8PRO     CB   80   0.251   2.082   3.031
    8PRO    HB1   81   0.298   2.139   3.114
    8PRO    HB2   82   0.148   2.058   3.065
    8PRO     CG   83   0.244   2.162   2.899
    8PRO    HG1   84   0.153   2.225   2.892
    8PRO    HG2   85   0.333   2.227   2.887
    8PRO      C   86   0.293   1.839   3.083
    8PRO      O   87   0.179   1.798   3.103
    9GLY      N   88   0.402   1.787   3.155
    9GLY     HN   89   0.490   1.831   3.136
    9GLY     CA   90   0.402   1.694   3.265
    9GLY    HA1   91   0.453   1.603   3.237
    9GLY    HA2   92   0.299   1.672   3.290
    9GLY      C   93   0.461   1.761   3.380
    9GLY      O   94   0.432   1.873   3.414
   10ASP      N   95   0.556   1.704   3.455
   10ASP     HN   96   0.588   1.612   3.437
   10ASP     CA   97   0.620   1.760   3.569
   10ASP     HA   98   0.546   1.812   3.628
   10ASP     CB   99   0.684   1.652   3.654
   10ASP    HB1  100   0.760   1.698   3.722
   10ASP    HB2  101   0.735   1.569   3.601
   10ASP     CG  102   0.588   1.576   3.745
   10ASP    OD1  103   0.624   1.544   3.858
   10ASP    OD2  104   0.475   1.541   3.709
   10ASP      C  105   0.713   1.867   3.536
   10ASP      O  106   0.722   1.972   3.601
   11GLY      N  107   0.783   1.851   3.420
   11GLY     HN  108   0.776   1.763   3.374
   11GLY     CA  109   0.879   1.951   3.377
   11GLY    HA1  110   0.870   2.042   3.434
   11GLY    HA2  111   0.867   1.960   3.270
   11GLY      C  112   1.026   1.894   3.400
   11GLY    OT1  113   1.049   1.779   3.354
   11GLY    OT2  114   1.117   1.968   3.449
   12LIT    LIT  115   5.484   5.567   2.124
   13LIT    LIT  116   2.802   2.612   5.414
   14LIT    LIT  117   4.678   0.248   0.332
   15LIT    LIT  118   3.194   2.134   3.096
   16LIT    LIT  119   1.228   1.789   3.407
   17LIT    LIT  120   2.035   5.728   5.511
   18LIT    LIT  121   1.919   1.017   4.903
   19LIT    LIT  122   2.647   6.712   1.172
   20LIT    LIT  123   0.351   3.622   2.867
   21LIT    LIT  124   2.720   0.720   4.891
   22LIT    LIT  125   3.577   5.014   0.281
   23LIT    LIT  126   4.052   4.376   5.873
   24LIT    LIT  127   0.162   4.621   2.496
   25LIT    LIT  128   6.949   1.865   2.176
   26LIT    LIT  129   0.459   1.433   3.873
   27LIT    LIT  130   3.955   1.381   4.401
   28LIT    LIT  131   6.952   5.395   5.733
   29LIT    LIT  132   0.470   2.804   2.667
   30LIT    LIT  133   6.620   2.503   1.432
   31LIT    LIT  134   4.507   0.963   2.321
   32LIT    LIT  135   5.807   1.376   0.511
   33LIT    LIT  136   4.042   3.637   1.861
   34LIT    LIT  137   5.296   1.790   5.114
   35LIT    LIT  138   0.966   1.929   1.660
   36LIT    LIT  139   4.086   2.759   5.547
   37LIT    LIT  140   3.639   4.483   1.276
   38LIT    LIT  141   1.343   4.083   0.105
   39LIT    LIT  142   2.162   0.693   2.378
   40LIT    LIT  143   5.480   0.589   2.756
   41LIT    LIT  144   3.545   1.560   4.067
   42LIT    LIT  145   1.521   0.973   2.489
   43CLA    CLA  146   5.480   0.647   2.524
   44CLA    CLA  147   0.059   2.053   3.875
   45CLA    CLA  148   3.087   1.940   5.044
   46CLA    CLA  149   5.125   4.722   0.195
   47CLA    CLA  150   6.197   0.986   1.709
   48CLA    CLA  151   3.435   3.413   4.789
   49CLA    CLA  152   4.465   4.001   1.967
   50CLA    CLA  153   5.083   6.582   0.370
   51CLA    CLA  154   5.669   1.890   0.217
   52CLA    CLA  155   2.116   1.541   1.302
   53CLA    CLA  156   4.922   3.751   3.088
   54CLA    CLA  157   4.650   2.484   2.606
   55CLA    CLA  158   0.437   2.584   4.881
   56CLA    CLA  159   0.323   2.962   1.491
   57CLA    CLA  160   6.287   0.466   3.754
   58CLA    CLA  161   4.013   3.431   1.717
   59CLA    CLA  162   6.438   5.004   4.179
   60CLA    CLA  163   1.949   1.551   5.180
   61CLA    CLA  164   0.197   6.698   0.493
   62CLA    CLA  165   2.934   5.971   0.897
   63CLA    CLA  166   1.878   1.043   3.198
   64CLA    CLA  167   3.953   1.756   0.333
   65CLA    CLA  168   6.298   4.138   2.719
   66CLA    CLA  169   1.614   1.075   4.509
   67CLA    CLA  170   5.121   3.120   1.665
   68CLA    CLA  171   1.644   2.682   1.806
   69CLA    CLA  172   4.442   4.635   0.822
   70TIP3   OH2  173   0.953   5.910   5.674
   70TIP3    H1  174   1.000   5.982   5.632
   70TIP3    H2  175   0.996   5.831   5.640
   71TIP3   OH2  176   1.981   6.420   3.835
   71TIP3    H1  177   1.994   6.502   3.787
   71TIP3    H2  178   1.919   6.371   3.782
   72TIP3   OH2  179   5.497   5.817   0.197
   72TIP3    H1  180   5.426   5.839   0.136
   72TIP3    H2  181   5.480   5.727   0.222
   73TIP3   OH2  182   4.057   3.298   1.392
   73TIP3    H1  183   4.046   3.373   1.334
   73TIP3    H2  184   4.064   3.335   1.480
   74TIP3   OH2  185   5.172   4.483   2.610
   74TIP3    H1  186   5.205   4.567   2.579
   74TIP3    H2  187   5.202   4.420   2.545
   75TIP3   OH2  188   4.414   4.223   1.590
   75TIP3    H1  189   4.329   4.247   1.553
   75TIP3    H2  190   4.449   4.158   1.530
   76TIP3   OH2  191   4.444   6.448   5.165
   76TIP3    H1  192   4.487   6.470   5.248
   76TIP3    H2  193   4.379   6.517   5.153
   77TIP3   OH2  194   3.612   2.263   2.312
   77TIP3    H1  195   3.559   2.330   2.356
   77TIP3    H2  196   3.665   2.224   2.381
   78TIP3   OH2  197   5.645   1.157   4.676
   78TIP3    H1  198   5.712   1.161   4.608
   78TIP3    H2  199   5.575   1.104   4.638
   79TIP3   OH2  200   1.600   4.899   5.723
   79TIP3    H1  201   1.531   4.887   5.657
   79TIP3    H2  202   1.558   4.950   5.793
   80TIP3   OH2  203   4.000   0.917   0.746
   80TIP3    H1  204   4.028   0.937   0.657
   80TIP3    H2  205   4.073   0.945   0.801
   81TIP3   OH2  206   6.379   2.034   4.641
   81TIP3    H1  207   6.466   2.066   4.665
   81TIP3    H2  208   6.394   1.982   4.562
   82TIP3   OH2  209   4.239   5.050   3.441
   82TIP3    H1  210   4.309   5.095   3.488
   82TIP3    H2  211   4.171   5.036   3.508
   83TIP3   OH2  212   6.326   3.312   1.748
   83TIP3    H1  213   6.342   3.393   1.796
   83TIP3    H2  214   6.347   3.242   1.810
   84TIP3   OH2  215   5.316   5.366   1.633
   84TIP3    H1  216   5.247   5.372   1.699
   84TIP3    H2  217   5.353   5.278   1.645
   85TIP3   OH2  218   4.781   2.018   3.156
   85TIP3    H1  219   4.701   1.987   3.115
   85TIP3    H2  220   4.752   2.075   3.227
   86TIP3   OH2  221   6.514   0.687   3.737
   86TIP3    H1  222   6.434   0.635   3.721
   86TIP3    H2  223   6.570   0.629   3.789
   87TIP3   OH2  224   3.352   1.102   2.383
   87TIP3    H1  225   3.360   1.057   2.299
   87TIP3    H2  226   3.298   1.044   2.437
   88TIP3   OH2  227   0.042   3.457   5.360
   88TIP3    H1  228   0.020   3.395   5.291
   88TIP3    H2  229  -0.030   3.520   5.360
   89TIP3   OH2  230   0.881   4.611   3.254
   89TIP3    H1  231   0.954   4.671   3.241
   89TIP3    H2  232   0.814   4.664   3.297
   90TIP3   OH2  233   6.200   1.390   3.963
   90TIP3    H1  234   6.242   1.351   4.040
   90TIP3    H2  235   6.178   1.316   3.907
   91TIP3   OH2  236   0.427   2.671   4.016
   91TIP3    H1  237   0.477   2.596   4.046
   91TIP3    H2  238   0.362   2.685   4.085
   92TIP3   OH2  239   1.394   5.250   1.224
   92TIP3    H1  240   1.347   5.333   1.220
   92TIP3    H2  241   1.434   5.241   1.137
   93TIP3   OH2  242   0.437   4.471   3.930
   93TIP3    H1  243   0.520   4.480   3.976
   93TIP3    H2  244   0.447   4.394   3.875
   94TIP3   OH2  245   5.069   2.735   2.624
   94TIP3    H1  246   5.091   2.800   2.691
   94TIP3    H2  247   5.017   2.670   2.670
   95TIP3   OH2  248   1.592   5.281   5.640
   95TIP3    H1  249   1.496   5.280   5.639
   95TIP3    H2  250   1.614   5.372   5.619
   96TIP3   OH2  251   0.086   1.508   2.165
   96TIP3    H1  252   0.095   1.561   2.085
   96TIP3    H2  253   0.073   1.572   2.235
   97TIP3   OH2  254   1.185   3.973   0.139
   97TIP3    H1  255   1.164   3.881   0.123
   97TIP3    H2  256   1.104   4.012   0.171
   98TIP3   OH2  257   0.620   1.064   0.661
   98TIP3    H1  258   0.615   1.154   0.694
   98TIP3    H2  259   0.622   1.010   0.740
   99TIP3   OH2  260   1.062   3.976   0.932
   99TIP3    H1  261   0.970   3.978   0.906
   99TIP3    H2  262   1.100   4.054   0.893
  100TIP3   OH2  263   5.330   4.963   1.354
  100TIP3    H1  264   5.339   4.932   1.444
  100TIP3    H2  265   5.414   4.942   1.313
  101TIP3   OH2  266   2.422   3.546   3.619
  101TIP3    H1  267   2.467   3.584   3.695
  101TIP3    H2  268   2.486   3.485   3.582
  102TIP3   OH2  269   2.436   2.269   1.744
  102TIP3    H1  270   2.425   2.355   1.705
  102TIP3    H2  271   2.347   2.233   1.746
  103TIP3   OH2  272   5.583   5.737   2.117
  103TIP3    H1  273   5.672   5.725   2.083
  103TIP3    H2  274   5.570   5.832   2.116
  104TIP3   OH2  275   1.735   6.635   5.885
  104TIP3    H1  276   1.649   6.595   5.900
  104TIP3    H2  277   1.725   6.725   5.918
  105TIP3   OH2  278   5.438   5.124   1.667
  105TIP3    H1  279   5.468   5.062   1.601
  105TIP3    H2  280   5.379   5.074   1.723
  106TIP3   OH2  281   2.690   1.600   5.038
  106TIP3    H1  282   2.620   1.657   5.072
  106TIP3    H2  283   2.754   1.660   5.002
  107TIP3   OH2  284   4.935   0.808   1.704
  107TIP3    H1  285   4.909   0.799   1.796
  107TIP3    H2  286   4.872   0.869   1.667
  108TIP3   OH2  287   2.555   1.279   1.544
  108TIP3    H1  288   2.648   1.270   1.524
  108TIP3    H2  289   2.525   1.353   1.491
  109TIP3   OH2  290   0.475   6.818   1.349
  109TIP3    H1  291   0.535   6.752   1.312
  109TIP3    H2  292   0.420   6.844   1.275
  110TIP3   OH2  293   2.404   0.361   1.485
  110TIP3    H1  294   2.459   0.357   1.407
  110TIP3    H2  295   2.408   0.452   1.513
  111TIP3   OH2  296   1.299   3.005   3.246
  111TIP3    H1  297   1.347   3.027   3.166
  111TIP3    H2  298   1.259   2.920   3.228
  112TIP3   OH2  299   6.812   0.653   4.582
  112TIP3    H1  300   6.900   0.655   4.546
  112TIP3    H2  301   6.755   0.678   4.509
  113TIP3   OH2  302   0.020   0.248   2.176
  113TIP3    H1  303   0.015   0.225   2.083
  113TIP3    H2  304   0.054   0.337   2.177
  114TIP3   OH2  305   1.191   6.454   5.077
  114TIP3    H1  306   1.205   6.390   5.147
  114TIP3    H2  307   1.130   6.411   5.017
  115TIP3   OH2  308   4.045   0.862   5.210
  115TIP3    H1  309   4.105   0.788   5.202
  115TIP3    H2  310   3.958   0.821   5.217
  116TIP3   OH2  311   4.191   3.756   2.938
  116TIP3    H1  312   4.172   3.662   2.942
  116TIP3    H2  313   4.225   3.779   3.024
  117TIP3   OH2  314   2.960   5.740   1.343
  117TIP3    H1  315   2.937   5.831   1.361
  117TIP3    H2  316   2.989   5.740   1.251
  118TIP3   OH2  317   6.455   3.602   2.527
  118TIP3    H1  318   6.423   3.526   2.479
  118TIP3    H2  319   6.397   3.673   2.502
  119TIP3   OH2  320   5.131   3.731   5.256
  119TIP3    H1  321   5.043   3.755   5.285
  119TIP3    H2  322   5.189   3.789   5.305
  120TIP3   OH2  323   6.608   2.284   1.974
  120TIP3    H1  324   6.619   2.378   1.988
  120TIP3    H2  325   6.693   2.255   1.940
  121TIP3   OH2  326   1.929   0.490   1.612
  121TIP3    H1  327   1.912   0.413   1.667
  121TIP3    H2  328   1.973   0.552   1.670
  122TIP3   OH2  329   4.480   1.663   4.279
  122TIP3    H1  330   4.573   1.644   4.265
  122TIP3    H2  331   4.467   1.747   4.234
  123TIP3   OH2  332   1.793   6.214   4.606
  123TIP3    H1  333   1.736   6.235   4.680
  123TIP3    H2  334   1.800   6.296   4.557
  124TIP3   OH2  335   5.267   1.014   5.851
  124TIP3    H1  336   5.255   0.945   5.786
  124TIP3    H2  337   5.216   1.088   5.819
  125TIP3   OH2  338   5.917   1.417   2.559
  125TIP3    H1  339   5.874   1.450   2.481
  125TIP3    H2  340   5.905   1.486   2.624
  126TIP3   OH2  341   2.918   0.498   3.453
  126TIP3    H1  342   2.923   0.441   3.376
  126TIP3    H2  343   2.950   0.582   3.423
  127TIP3   OH2  344   2.108   3.230   0.231
  127TIP3    H1  345   2.179   3.193   0.283
  127TIP3    H2  346   2.152   3.280   0.162
  128TIP3   OH2  347   3.589   2.916   2.122
  128TIP3    H1  348   3.589   2.827   2.157
  128TIP3    H2  349   3.669   2.922   2.070
  129TIP3   OH2  350   1.457   2.001   3.718
  129TIP3    H1  351   1.440   1.966   3.805
  129TIP3    H2  352   1.373   1.995   3.672
  130TIP3   OH2  353   6.360   4.954   5.585
  130TIP3    H1  354   6.366   4.866   5.622
  130TIP3    H2  355   6.363   5.012   5.661
  131TIP3   OH2  356   4.939   2.652   0.164
  131TIP3    H1  357   5.009   2.716   0.155
  131TIP3    H2  358   4.968   2.577   0.112
  132TIP3   OH2  359   6.251   0.508   4.383
  132TIP3    H1  360   6.169   0.469   4.414
  132TIP3    H2  361   6.235   0.602   4.385
  133TIP3   OH2  362   5.717   1.146   2.798
  133TIP3    H1  363   5.724   1.124   2.891
  133TIP3    H2  364   5.787   1.210   2.783
  134TIP3   OH2  365   0.931   1.740   1.626
  134TIP3    H1  366   0.850   1.694   1.649
  134TIP3    H2  367   0.984   1.674   1.583
  135TIP3   OH2  368   4.664   5.117   2.228
  135TIP3    H1  369   4.680   5.025   2.246
  135TIP3    H2  370   4.708   5.163   2.300
  136TIP3   OH2  371   3.272   0.582   0.091
  136TIP3    H1  372   3.359   0.614   0.114
  136TIP3    H2  373   3.229   0.567   0.175
  137TIP3   OH2  374   2.580   1.474   0.293
  137TIP3    H1  375   2.607   1.456   0.203
  137TIP3    H2  376   2.562   1.568   0.295
  138TIP3   OH2  377   6.588   0.722   1.923
  138TIP3    H1  378   6.632   0.745   2.005
  138TIP3    H2  379   6.578   0.806   1.877
  139TIP3   OH2  380   0.115   2.815   4.550
  139TIP3    H1  381   0.201   2.773   4.560
  139TIP3    H2  382   0.073   2.766   4.479
  140TIP3   OH2  383   2.373   2.646   3.685
  140TIP3    H1  384   2.279   2.633   3.693
  140TIP3    H2  385   2.409   2.614   3.768
  141TIP3   OH2  386   0.675   1.128   2.261
  141TIP3    H1  387   0.612   1.140   2.190
  141TIP3    H2  388   0.727   1.208   2.260
  142TIP3   OH2  389   1.806   1.351   4.826
  142TIP3    H1  390   1.770   1.263   4.817
  142TIP3    H2  391   1.738   1.409   4.793
  143TIP3   OH2  392   0.199   5.459   2.141
  143TIP3    H1  393   0.128   5.523   2.143
  143TIP3    H2  394   0.160   5.378   2.175
  144TIP3   OH2  395   7.067   4.006   4.587
  144TIP3    H1  396   7.010   3.969   4.654
  144TIP3    H2  397   7.030   3.977   4.504
  145TIP3   OH2  398   1.382   2.775  -0.003
  145TIP3    H1  399   1.333   2.694   0.013
  145TIP3    H2  400   1.315   2.843  -0.004
  146TIP3   OH2  401   3.019   5.453   0.337
  146TIP3    H1  402   3.056   5.439   0.424
  146TIP3    H2  403   3.088   5.426   0.277
  147TIP3   OH2  404   3.622   0.791   3.253
  147TIP3    H1  405   3.695   0.849   3.231
  147TIP3    H2  406   3.619   0.728   3.181
  148TIP3   OH2  407   6.537   5.073   0.306
  148TIP3    H1  408   6.503   5.162   0.295
  148TIP3    H2  409   6.513   5.028   0.225
  149TIP3   OH2  410   5.049   5.850   2.782
  149TIP3    H1  411   5.022   5.852   2.874
  149TIP3    H2  412   4.967   5.848   2.733
  150TIP3   OH2  413   0.963   6.582   1.059
  150TIP3    H1  414   1.008   6.550   0.980
  150TIP3    H2  415   0.907   6.509   1.086
  151TIP3   OH2  416   1.661   5.388   3.218
  151TIP3    H1  417   1.572   5.355   3.211
  151TIP3    H2  418   1.716   5.310   3.227
  152TIP3   OH2  419   4.392   3.711   4.786
  152TIP3    H1  420   4.448   3.684   4.714
  152TIP3    H2  421   4.423   3.798   4.811
  153TIP3   OH2  422   1.249   2.013   4.171
  153TIP3    H1  423   1.336   2.041   4.198
  153TIP3    H2  424   1.227   1.941   4.231
  154TIP3   OH2  425   0.705   0.982   3.985
  154TIP3    H1  426   0.695   0.923   3.910
  154TIP3    H2  427   0.658   0.938   4.056
  155TIP3   OH2  428   1.413   2.938   0.642
  155TIP3    H1  429   1.468   2.935   0.721
  155TIP3    H2  430   1.369   3.023   0.647
  156TIP3   OH2  431   3.384   1.777   2.730
  156TIP3    H1  432   3.421   1.865   2.738
  156TIP3    H2  433   3.421   1.728   2.804
  157TIP3   OH2  434   6.767   5.888   2.430
  157TIP3    H1  435   6.728   5.800   2.432
  157TIP3    H2  436   6.822   5.891   2.508
  158TIP3   OH2  437   6.217   6.506   4.538
  158TIP3    H1  438   6.225   6.558   4.457
  158TIP3    H2  439   6.220   6.415   4.508
  159TIP3   OH2  440   4.722   1.250   2.459
  159TIP3    H1  441   4.650   1.314   2.458
  159TIP3    H2  442   4.763   1.261   2.544
  160TIP3   OH2  443   1.514   3.821   2.714
  160TIP3    H1  444   1.451   3.888   2.689
  160TIP3    H2  445   1.460   3.744   2.735
  161TIP3   OH2  446   3.269   3.789   1.949
  161TIP3    H1  447   3.334   3.836   2.001
  161TIP3    H2  448   3.302   3.793   1.859
  162TIP3   OH2  449   5.472   1.574   0.608
  162TIP3    H1  450   5.482   1.479   0.598
  162TIP3    H2  451   5.549   1.611   0.564
  163TIP3   OH2  452   3.249   0.949   2.591
  163TIP3    H1  453   3.220   0.861   2.614
  163TIP3    H2  454   3.210   1.005   2.658
  164TIP3   OH2  455   3.538   4.818   0.344
  164TIP3    H1  456   3.617   4.777   0.380
  164TIP3    H2  457   3.466   4.781   0.395
  165TIP3   OH2  458   5.168   2.564   4.026
  165TIP3    H1  459   5.228   2.493   4.047
  165TIP3    H2  460   5.194   2.592   3.938
  166TIP3   OH2  461   2.715   5.279   4.846
  166TIP3    H1  462   2.748   5.348   4.904
  166TIP3    H2  463   2.724   5.199   4.896
  167TIP3   OH2  464   6.229   1.319   4.223
  167TIP3    H1  465   6.138   1.339   4.201
  167TIP3    H2  466   6.224   1.239   4.276
  168TIP3   OH2  467   0.855   5.807   2.349
  168TIP3    H1  468   0.936   5.756   2.356
  168TIP3    H2  469   0.787   5.746   2.374
  169TIP3   OH2  470   7.061   4.525   2.278
  169TIP3    H1  471   7.031   4.611   2.248
  169TIP3    H2  472   7.024   4.516   2.366
  170TIP3   OH2  473   5.330   2.151   4.479
  170TIP3    H1  474   5.310   2.116   4.392
  170TIP3    H2  475   5.343   2.245   4.465
  171TIP3   OH2  476   0.480   2.674   1.370
  171TIP3    H1  477   0.490   2.635   1.457
  171TIP3    H2  478   0.415   2.743   1.381
  172TIP3   OH2  479   6.267   0.112   2.916
  172TIP3    H1  480   6.265   0.019   2.891
  172TIP3    H2  481   6.315   0.114   2.999
  173TIP3   OH2  482   0.259   1.995   3.636
  173TIP3    H1  483   0.193   2.020   3.701
  173TIP3    H2  484   0.273   1.902   3.650
  174TIP3   OH2  485   6.144   0.681   5.771
  174TIP3    H1  486   6.116   0.606   5.718
  174TIP3    H2  487   6.104   0.757   5.728
  175TIP3   OH2  488   3.855   6.029   1.457
  175TIP3    H1  489   3.763   6.024   1.429
  175TIP3    H2  490   3.860   6.110   1.508
  176TIP3   OH2  491   2.652   3.006   0.669
  176TIP3    H1  492   2.657   2.955   0.750
  176TIP3    H2  493   2.719   2.967   0.613
  177TIP3   OH2  494   4.533   5.405   4.793
  177TIP3    H1  495   4.502   5.425   4.882
  177TIP3    H2  496   4.493   5.471   4.738
  178TIP3   OH2  497   3.712   4.277   1.825
  178TIP3    H1  498   3.637   4.249   1.878
  178TIP3    H2  499   3.735   4.363   1.859
  179TIP3   OH2  500   4.394   4.632   0.114
  179TIP3    H1  501   4.487   4.651   0.103
  179TIP3    H2  502   4.385   4.609   0.207
  180TIP3   OH2  503   3.352   3.751   4.001
  180TIP3    H1  504   3.296   3.748   4.078
  180TIP3    H2  505   3.409   3.826   4.016
  181TIP3   OH2  506   5.656   1.522   1.948
  181TIP3    H1  507   5.724   1.458   1.926
  181TIP3    H2  508   5.587   1.470   1.989
  182TIP3   OH2  509   2.492   1.115   3.948
  182TIP3    H1  510   2.459   1.029   3.923
  182TIP3    H2  511   2.565   1.130   3.888
  183TIP3   OH2  512   2.403   5.072   4.087
  183TIP3    H1  513   2.325   5.022   4.062
  183TIP3    H2  514   2.471   5.006   4.099
  184TIP3   OH2  515   1.079   5.874   4.058
  184TIP3    H1  516   1.023   5.889   3.982
  184TIP3    H2  517   1.017   5.864   4.131
  185TIP3   OH2  518   4.816   5.460   5.272
  185TIP3    H1  519   4.781   5.517   5.204
  185TIP3    H2  520   4.889   5.414   5.230
  186TIP3   OH2  521   4.176   3.194   2.924
  186TIP3    H1  522   4.252   3.253   2.928
  186TIP3    H2  523   4.102   3.252   2.906
  187TIP3   OH2  524   3.777   5.410   4.761
  187TIP3    H1  525   3.832   5.486   4.743
  187TIP3    H2  526   3.768   5.408   4.856
  188TIP3   OH2  527   6.757   5.723   0.427
  188TIP3    H1  528   6.797   5.666   0.493
  188TIP3    H2  529   6.781   5.683   0.343
  189TIP3   OH2  530   6.814   3.317   4.981
  189TIP3    H1  531   6.782   3.256   5.047
  189TIP3    H2  532   6.755   3.304   4.906
  190TIP3   OH2  533   4.755   4.081   0.664
  190TIP3    H1  534   4.756   4.125   0.579
  190TIP3    H2  535   4.834   4.026   0.663
  191TIP3   OH2  536   4.174   1.686   3.220
  191TIP3    H1  537   4.239   1.633   3.264
  191TIP3    H2  538   4.149   1.752   3.284
  192TIP3   OH2  539   4.446   5.046   0.985
  192TIP3    H1  540   4.540   5.036   0.971
  192TIP3    H2  541   4.411   4.957   0.975
  193TIP3   OH2  542   4.372   0.670   4.363
  193TIP3    H1  543   4.279   0.649   4.372
  193TIP3    H2  544   4.413   0.586   4.341
  194TIP3   OH2  545   1.325   3.121   1.870
  194TIP3    H1  546   1.361   3.195   1.920
  194TIP3    H2  547   1.261   3.161   1.812
  195TIP3   OH2  548   4.352   6.717   3.721
  195TIP3    H1  549   4.276   6.687   3.771
  195TIP3    H2  550   4.326   6.804   3.690
  196TIP3   OH2  551   1.250   1.707   5.367
  196TIP3    H1  552   1.218   1.760   5.294
  196TIP3    H2  553   1.259   1.619   5.332
  197TIP3   OH2  554   3.734   1.620   1.745
  197TIP3    H1  555   3.702   1.571   1.821
  197TIP3    H2  556   3.704   1.570   1.670
  198TIP3   OH2  557   1.994   6.143   0.379
  198TIP3    H1  558   1.909   6.137   0.335
  198TIP3    H2  559   2.057   6.141   0.307
  199TIP3   OH2  560   5.494   1.914   3.519
  199TIP3    H1  561   5.587   1.915   3.498
  199TIP3    H2  562   5.464   1.827   3.492
  200TIP3   OH2  563   2.760   3.076   2.067
  200TIP3    H1  564   2.672   3.094   2.099
  200TIP3    H2  565   2.799   3.163   2.053
  201TIP3   OH2  566   2.237   3.428   1.262
  201TIP3    H1  567   2.153   3.474   1.273
  201TIP3    H2  568   2.287   3.452   1.340
  202TIP3   OH2  569   0.690   4.009   2.140
  202TIP3    H1  570   0.700   3.940   2.205
  202TIP3    H2  571   0.703   4.091   2.189
  203TIP3   OH2  572   3.936   0.256   0.087
  203TIP3    H1  573   3.975   0.249   0.174
  203TIP3    H2  574   3.990   0.319   0.041
  204TIP3   OH2  575   0.881   1.982   2.089
  204TIP3    H1  576   0.867   2.037   2.166
  204TIP3    H2  577   0.882   1.892   2.122
  205TIP3   OH2  578   5.387   3.220   4.250
  205TIP3    H1  579   5.310   3.225   4.193
  205TIP3    H2  580   5.354   3.186   4.333
  206TIP3   OH2  581   2.288   2.337   0.844
  206TIP3    H1  582   2.345   2.402   0.804
  206TIP3    H2  583   2.299   2.349   0.938
  207TIP3   OH2  584   6.776   2.683   4.295
  207TIP3    H1  585   6.697   2.701   4.347
  207TIP3    H2  586   6.788   2.589   4.301
  208TIP3   OH2  587   5.841   5.911   5.602
  208TIP3    H1  588   5.820   5.999   5.634
  208TIP3    H2  589   5.884   5.869   5.676
  209TIP3   OH2  590   5.275   6.466   2.048
  209TIP3    H1  591   5.263   6.421   1.964
  209TIP3    H2  592   5.295   6.396   2.110
  210TIP3   OH2  593   6.730   4.449   4.589
  210TIP3    H1  594   6.784   4.514   4.632
  210TIP3    H2  595   6.666   4.500   4.539
  211TIP3   OH2  596   5.259   0.483   1.610
  211TIP3    H1  597   5.206   0.410   1.642
  211TIP3    H2  598   5.349   0.458   1.629
  212TIP3   OH2  599   2.685   4.696   0.576
  212TIP3    H1  600   2.616   4.634   0.554
  212TIP3    H2  601   2.642   4.781   0.580
  213TIP3   OH2  602   1.208   3.992   4.511
  213TIP3    H1  603   1.145   4.004   4.583
  213TIP3    H2  604   1.230   3.899   4.514
  214TIP3   OH2  605   6.875   2.485   3.456
  214TIP3    H1  606   6.815   2.464   3.385
  214TIP3    H2  607   6.962   2.486   3.415
  215TIP3   OH2  608   4.588   1.179   5.703
  215TIP3    H1  609   4.571   1.169   5.610
  215TIP3    H2  610   4.680   1.205   5.708
  216TIP3   OH2  611   0.128   2.508   3.317
  216TIP3    H1  612   0.106   2.414   3.311
  216TIP3    H2  613   0.223   2.510   3.315
  217TIP3   OH2  614   3.043   1.738   5.455
  217TIP3    H1  615   2.962   1.780   5.426
  217TIP3    H2  616   3.109   1.807   5.449
  218TIP3   OH2  617   6.878   1.525   5.347
  218TIP3    H1  618   6.924   1.448   5.314
  218TIP3    H2  619   6.835   1.562   5.270
  219TIP3   OH2  620   4.330   2.195   0.412
  219TIP3    H1  621   4.263   2.136   0.446
  219TIP3    H2  622   4.328   2.270   0.472
  220TIP3   OH2  623   7.089   0.087   2.592
  220TIP3    H1  624   7.087  -0.007   2.574
  220TIP3    H2  625   7.174   0.116   2.558
  221TIP3   OH2  626   6.740   2.947   3.334
  221TIP3    H1  627   6.778   2.868   3.371
  221TIP3    H2  628   6.793   3.018   3.370
  222TIP3   OH2  629   6.530   6.197   2.253
  222TIP3    H1  630   6.621   6.168   2.242
  222TIP3    H2  631   6.478   6.117   2.247
  223TIP3   OH2  632   1.649   2.370   3.355
  223TIP3    H1  633   1.620   2.410   3.437
  223TIP3    H2  634   1.625   2.278   3.363
  224TIP3   OH2  635   2.181   6.299   4.686
  224TIP3    H1  636   2.196   6.227   4.625
  224TIP3    H2  637   2.093   6.283   4.720
  225TIP3   OH2  638   4.781   5.607   5.515
  225TIP3    H1  639   4.758   5.570   5.430
  225TIP3    H2  640   4.876   5.618   5.512
  226TIP3   OH2  641   6.106   2.909   0.219
  226TIP3    H1  642   6.078   3.001   0.226
  226TIP3    H2  643   6.079   2.882   0.132
  227TIP3   OH2  644   4.667   3.283   5.709
  227TIP3    H1  645   4.588   3.230   5.714
  227TIP3    H2  646   4.647   3.361   5.762
  228TIP3   OH2  647   3.009   5.920   5.693
  228TIP3    H1  648   3.034   5.980   5.622
  228TIP3    H2  649   3.034   5.833   5.661
  229TIP3   OH2  650   2.788   6.606   3.151
  229TIP3    H1  651   2.780   6.630   3.243
  229TIP3    H2  652   2.880   6.621   3.129
  230TIP3   OH2  653   4.776   6.684   1.059
  230TIP3    H1  654   4.827   6.750   1.107
  230TIP3    H2  655   4.842   6.632   1.013
  231TIP3   OH2  656   5.211   0.972   2.143
  231TIP3    H1  657   5.172   0.914   2.077
  231TIP3    H2  658   5.285   0.924   2.178
  232TIP3   OH2  659   3.409   5.898   2.237
  232TIP3    H1  660   3.454   5.964   2.289
  232TIP3    H2  661   3.322   5.891   2.276
  233TIP3   OH2  662   1.348   3.335   4.327
  233TIP3    H1  663   1.295   3.258   4.308
  233TIP3    H2  664   1.317   3.401   4.266
  234TIP3   OH2  665   4.921   1.594   2.251
  234TIP3    H1  666   5.016   1.580   2.257
  234TIP3    H2  667   4.887   1.509   2.221
  235TIP3   OH2  668   5.176   4.230   4.173
  235TIP3    H1  669   5.146   4.146   4.140
  235TIP3    H2  670   5.224   4.269   4.100
  236TIP3   OH2  671   2.123   4.909   3.784
  236TIP3    H1  672   2.106   4.849   3.712
  236TIP3    H2  673   2.198   4.871   3.830
  237TIP3   OH2  674   6.564   0.712   0.484
  237TIP3    H1  675   6.546   0.686   0.575
  237TIP3    H2  676   6.656   0.738   0.485
  238TIP3   OH2  677   4.652   5.734   4.872
  238TIP3    H1  678   4.634   5.789   4.948
  238TIP3    H2  679   4.691   5.655   4.909
  239TIP3   OH2  680   5.673   6.227   1.810
  239TIP3    H1  681   5.671   6.313   1.767
  239TIP3    H2  682   5.649   6.165   1.740
  240TIP3   OH2  683   5.845   5.998   1.319
  240TIP3    H1  684   5.853   5.925   1.380
  240TIP3    H2  685   5.836   6.075   1.375
  241TIP3   OH2  686   3.059   4.880   1.687
  241TIP3    H1  687   3.043   4.883   1.593
  241TIP3    H2  688   2.995   4.941   1.724
  242TIP3   OH2  689   5.644   2.291   3.403
  242TIP3    H1  690   5.657   2.262   3.493
  242TIP3    H2  691   5.559   2.253   3.378
  243TIP3   OH2  692   0.174   0.540   0.201
  243TIP3    H1  693   0.180   0.613   0.139
  243TIP3    H2  694   0.127   0.472   0.154
  244TIP3   OH2  695   1.434   0.391   2.917
  244TIP3    H1  696   1.421   0.304   2.955
  244TIP3    H2  697   1.521   0.418   2.948
  245TIP3   OH2  698   1.491   4.248   3.501
  245TIP3    H1  699   1.498   4.210   3.589
  245TIP3    H2  700   1.427   4.194   3.456
  246TIP3   OH2  701   5.691   3.024   5.636
  246TIP3    H1  702   5.664   3.067   5.555
  246TIP3    H2  703   5.609   2.994   5.675
  247TIP3   OH2  704   6.003   3.437   2.131
  247TIP3    H1  705   6.013   3.524   2.169
  247TIP3    H2  706   5.929   3.444   2.071
  248TIP3   OH2  707   1.628   4.530   4.155
  248TIP3    H1  708   1.577   4.463   4.111
  248TIP3    H2  709   1.718   4.499   4.151
  249TIP3   OH2  710   6.703   6.344   3.523
  249TIP3    H1  711   6.724   6.283   3.594
  249TIP3    H2  712   6.722   6.430   3.560
  250TIP3   OH2  713   3.576   2.749   3.679
  250TIP3    H1  714   3.600   2.799   3.757
  250TIP3    H2  715   3.562   2.660   3.711
  251TIP3   OH2  716   0.957   3.650   1.169
  251TIP3    H1  717   0.977   3.557   1.172
  251TIP3    H2  718   0.901   3.660   1.092
  252TIP3   OH2  719   3.152   3.634   0.278
  252TIP3    H1  720   3.182   3.690   0.206
  252TIP3    H2  721   3.218   3.646   0.346
  253TIP3   OH2  722   3.853   4.765   1.552
  253TIP3    H1  723   3.926   4.819   1.521
  253TIP3    H2  724   3.776   4.822   1.544
  254TIP3   OH2  725   2.663   1.902   3.665
  254TIP3    H1  726   2.583   1.862   3.697
  254TIP3    H2  727   2.649   1.913   3.571
  255TIP3   OH2  728   3.234   3.638   1.208
  255TIP3    H1  729   3.190   3.554   1.195
  255TIP3    H2  730   3.288   3.625   1.285
  256TIP3   OH2  731   0.394   0.200   4.786
  256TIP3    H1  732   0.472   0.148   4.806
  256TIP3    H2  733   0.364   0.231   4.871
  257TIP3   OH2  734   4.486   4.937   0.711
  257TIP3    H1  735   4.399   4.975   0.722
  257TIP3    H2  736   4.476   4.847   0.743
  258TIP3   OH2  737   3.593   3.876   4.034
  258TIP3    H1  738   3.594   3.782   4.050
  258TIP3    H2  739   3.660   3.911   4.093
  259TIP3   OH2  740   3.509   4.184   3.102
  259TIP3    H1  741   3.597   4.203   3.137
  259TIP3    H2  742   3.454   4.252   3.141
  260TIP3   OH2  743   2.496   5.711   0.818
  260TIP3    H1  744   2.460   5.728   0.731
  260TIP3    H2  745   2.421   5.678   0.869
  261TIP3   OH2  746   0.969   1.978   3.007
  261TIP3    H1  747   1.019   2.001   2.929
  261TIP3    H2  748   0.995   1.889   3.028
  262TIP3   OH2  749   0.075   1.223   0.185
  262TIP3    H1  750  -0.001   1.275   0.214
  262TIP3    H2  751   0.133   1.222   0.261
  263TIP3   OH2  752   0.866   4.211   0.027
  263TIP3    H1  753   0.835   4.297  -0.001
  263TIP3    H2  754   0.847   4.153  -0.046
  264TIP3   OH2  755   1.077   4.323   1.166
  264TIP3    H1  756   1.136   4.386   1.126
  264TIP3    H2  757   1.015   4.377   1.216
  265TIP3   OH2  758   6.006   3.743   1.139
  265TIP3    H1  759   5.951   3.714   1.066
  265TIP3    H2  760   6.025   3.835   1.119
  266TIP3   OH2  761   6.202   0.370   1.224
  266TIP3    H1  762   6.227   0.358   1.316
  266TIP3    H2  763   6.207   0.282   1.187
  267TIP3   OH2  764   1.617   2.704   0.320
  267TIP3    H1  765   1.533   2.747   0.335
  267TIP3    H2  766   1.603   2.650   0.242
  268TIP3   OH2  767   5.310   6.255   1.039
  268TIP3    H1  768   5.216   6.238   1.027
  268TIP3    H2  769   5.330   6.322   0.973
  269TIP3   OH2  770   2.354   6.183   5.361
  269TIP3    H1  771   2.272   6.171   5.410
  269TIP3    H2  772   2.325   6.202   5.272
  270TIP3   OH2  773   3.400   1.864   3.373
  270TIP3    H1  774   3.436   1.930   3.433
  270TIP3    H2  775   3.330   1.823   3.423
  271TIP3   OH2  776   6.044   0.933   2.706
  271TIP3    H1  777   6.057   1.025   2.681
  271TIP3    H2  778   5.950   0.924   2.718
  272TIP3   OH2  779   0.493   5.008   1.736
  272TIP3    H1  780   0.517   4.946   1.667
  272TIP3    H2  781   0.408   5.044   1.707
  273TIP3   OH2  782   2.032   1.586   2.932
  273TIP3    H1  783   2.085   1.590   3.012
  273TIP3    H2  784   1.944   1.564   2.962
  274TIP3   OH2  785   5.048   0.628   5.878
  274TIP3    H1  786   5.048   0.567   5.951
  274TIP3    H2  787   4.988   0.590   5.814
  275TIP3   OH2  788   5.417   5.787   0.473
  275TIP3    H1  789   5.333   5.832   0.479
  275TIP3    H2  790   5.404   5.720   0.406
  276TIP3   OH2  791   2.230   1.686   5.171
  276TIP3    H1  792   2.145   1.652   5.196
  276TIP3    H2  793   2.284   1.608   5.158
  277TIP3   OH2  794   5.925   0.493   5.382
  277TIP3    H1  795   5.987   0.485   5.455
  277TIP3    H2  796   5.975   0.537   5.313
  278TIP3   OH2  797   0.704   2.283   0.651
  278TIP3    H1  798   0.614   2.302   0.679
  278TIP3    H2  799   0.758   2.318   0.722
  279TIP3   OH2  800   6.727   2.195   2.343
  279TIP3    H1  801   6.787   2.144   2.397
  279TIP3    H2  802   6.757   2.285   2.353
  280TIP3   OH2  803   6.252   0.313   4.172
  280TIP3    H1  804   6.195   0.241   4.146
  280TIP3    H2  805   6.245   0.317   4.268
  281TIP3   OH2  806   7.181   6.790   3.173
  281TIP3    H1  807   7.269   6.778   3.137
  281TIP3    H2  808   7.194   6.783   3.268
  282TIP3   OH2  809   4.822   4.986   5.025
  282TIP3    H1  810   4.773   4.916   5.068
  282TIP3    H2  811   4.833   5.053   5.093
  283TIP3   OH2  812   1.225   1.138   1.412
  283TIP3    H1  813   1.211   1.207   1.346
  283TIP3    H2  814   1.268   1.183   1.485
  284TIP3   OH2  815   0.862   4.606   5.710
  284TIP3    H1  816   0.884   4.529   5.763
  284TIP3    H2  817   0.923   4.673   5.738
  285TIP3   OH2  818   2.320   1.524   4.089
  285TIP3    H1  819   2.301   1.613   4.060
  285TIP3    H2  820   2.318   1.472   4.009
  286TIP3   OH2  821   2.846   6.646   2.703
  286TIP3    H1  822   2.916   6.664   2.766
  286TIP3    H2  823   2.791   6.581   2.746
  287TIP3   OH2  824   3.920   6.758   4.479
  287TIP3    H1  825   3.926   6.794   4.390
  287TIP3    H2  826   3.995   6.797   4.525
  288TIP3   OH2  827   6.737   6.869   5.612
  288TIP3    H1  828   6.719   6.850   5.520
  288TIP3    H2  829   6.785   6.792   5.643
  289TIP3   OH2  830   2.712   3.244   4.990
  289TIP3    H1  831   2.637   3.214   5.041
  289TIP3    H2  832   2.689   3.332   4.962
  290TIP3   OH2  833   4.081   5.734   4.235
  290TIP3    H1  834   4.025   5.797   4.280
  290TIP3    H2  835   4.084   5.766   4.144
  291TIP3   OH2  836   0.370   5.622   4.944
  291TIP3    H1  837   0.314   5.563   4.994
  291TIP3    H2  838   0.337   5.710   4.964
  292TIP3   OH2  839   1.524   2.697   5.834
  292TIP3    H1  840   1.555   2.609   5.855
  292TIP3    H2  841   1.433   2.684   5.806
  293TIP3   OH2  842   5.904   1.635   2.707
  293TIP3    H1  843   5.935   1.626   2.797
  293TIP3    H2  844   5.820   1.680   2.715
  294TIP3   OH2  845   0.156   0.847   4.352
  294TIP3    H1  846   0.238   0.889   4.380
  294TIP3    H2  847   0.143   0.879   4.263
  295TIP3   OH2  848   1.529   0.773   1.460
  295TIP3    H1  849   1.595   0.744   1.398
  295TIP3    H2  850   1.548   0.866   1.474
  296TIP3   OH2  851   3.307   1.370   5.743
  296TIP3    H1  852   3.284   1.454   5.704
  296TIP3    H2  853   3.294   1.383   5.837
  297TIP3   OH2  854   3.958   2.215   3.000
  297TIP3    H1  855   3.947   2.300   2.956
  297TIP3    H2  856   3.910   2.224   3.082
  298TIP3   OH2  857   6.118   0.865   5.325
  298TIP3    H1  858   6.040   0.921   5.317
  298TIP3    H2  859   6.092   0.783   5.281
  299TIP3   OH2  860   3.698   3.758   2.801
  299TIP3    H1  861   3.658   3.808   2.872
  299TIP3    H2  862   3.789   3.787   2.799
  300TIP3   OH2  863   5.633   4.238   0.548
  300TIP3    H1  864   5.584   4.158   0.564
  300TIP3    H2  865   5.627   4.251   0.453
  301TIP3   OH2  866   1.386   2.821   0.384
  301TIP3    H1  867   1.402   2.827   0.478
  301TIP3    H2  868   1.293   2.800   0.376
  302TIP3   OH2  869   3.668   4.731   4.608
  302TIP3    H1  870   3.577   4.705   4.596
  302TIP3    H2  871   3.719   4.660   4.568
  303TIP3   OH2  872   0.285   5.539   4.494
  303TIP3    H1  873   0.269   5.473   4.427
  303TIP3    H2  874   0.336   5.493   4.562
  304TIP3   OH2  875   0.496   3.406   5.723
  304TIP3    H1  876   0.454   3.482   5.763
  304TIP3    H2  877   0.438   3.333   5.744
  305TIP3   OH2  878   7.207   4.830   5.431
  305TIP3    H1  879   7.144   4.869   5.370
  305TIP3    H2  880   7.183   4.737   5.434
  306TIP3   OH2  881   3.336   3.488   3.232
  306TIP3    H1  882   3.352   3.502   3.325
  306TIP3    H2  883   3.254   3.440   3.228
  307TIP3   OH2  884   4.915   3.575   0.356
  307TIP3    H1  885   4.826   3.603   0.378
  307TIP3    H2  886   4.915   3.481   0.375
  308TIP3   OH2  887   1.139   6.391   1.394
  308TIP3    H1  888   1.100   6.473   1.363
  308TIP3    H2  889   1.145   6.337   1.316
  309TIP3   OH2  890   0.609   0.439   1.788
  309TIP3    H1  891   0.692   0.478   1.760
  309TIP3    H2  892   0.546   0.466   1.721
  310TIP3   OH2  893   2.548   2.098   5.245
  310TIP3    H1  894   2.462   2.122   5.212
  310TIP3    H2  895   2.531   2.030   5.310
  311TIP3   OH2  896   5.612   6.028   1.617
  311TIP3    H1  897   5.544   6.020   1.550
  311TIP3    H2  898   5.635   5.938   1.639
  312TIP3   OH2  899   1.113   4.511   3.578
  312TIP3    H1  900   1.186   4.549   3.530
  312TIP3    H2  901   1.068   4.455   3.514
  313TIP3   OH2  902   1.402   0.978   1.892
  313TIP3    H1  903   1.339   0.968   1.964
  313TIP3    H2  904   1.375   1.059   1.848
  314TIP3   OH2  905   1.975   3.594   1.377
  314TIP3    H1  906   1.908   3.533   1.345
  314TIP3    H2  907   1.925   3.665   1.417
  315TIP3   OH2  908   5.334   3.284   3.326
  315TIP3    H1  909   5.346   3.206   3.379
  315TIP3    H2  910   5.287   3.345   3.383
  316TIP3   OH2  911   6.562   5.787   1.696
  316TIP3    H1  912   6.605   5.774   1.612
  316TIP3    H2  913   6.493   5.720   1.698
  317TIP3   OH2  914   1.724   4.234   3.967
  317TIP3    H1  915   1.798   4.210   4.023
  317TIP3    H2  916   1.737   4.183   3.887
  318TIP3   OH2  917   0.116   5.748   4.655
  318TIP3    H1  918   0.184   5.703   4.605
  318TIP3    H2  919   0.092   5.685   4.724
  319TIP3   OH2  920   3.025   2.029   1.424
  319TIP3    H1  921   3.106   2.080   1.416
  319TIP3    H2  922   3.030   1.965   1.353
  320TIP3   OH2  923   5.972   1.924   2.026
  320TIP3    H1  924   5.907   1.973   1.975
  320TIP3    H2  925   6.055   1.939   1.981
  321TIP3   OH2  926   0.386   6.679   5.431
  321TIP3    H1  927   0.386   6.620   5.356
  321TIP3    H2  928   0.316   6.648   5.488
  322TIP3   OH2  929   2.829   4.516   3.977
  322TIP3    H1  930   2.846   4.429   3.942
  322TIP3    H2  931   2.909   4.566   3.959
  323TIP3   OH2  932   1.922   3.031   0.804
  323TIP3    H1  933   2.005   3.036   0.851
  323TIP3    H2  934   1.877   2.956   0.843
  324TIP3   OH2  935   0.222   3.917   3.024
  324TIP3    H1  936   0.160   3.969   2.972
  324TIP3    H2  937   0.298   3.906   2.966
  325TIP3   OH2  938   2.359   6.142   2.491
  325TIP3    H1  939   2.393   6.077   2.552
  325TIP3    H2  940   2.273   6.110   2.467
  326TIP3   OH2  941   6.814   2.995   0.280
  326TIP3    H1  942   6.832   3.032   0.194
  326TIP3    H2  943   6.816   3.069   0.340
  327TIP3   OH2  944   1.131   1.609   0.885
  327TIP3    H1  945   1.099   1.556   0.958
  327TIP3    H2  946   1.116   1.699   0.913
  328TIP3   OH2  947   3.305   2.910   3.067
  328TIP3    H1  948   3.364   2.933   2.995
  328TIP3    H2  949   3.346   2.832   3.106
  329TIP3   OH2  950   1.666   6.692   3.004
  329TIP3    H1  951   1.657   6.723   3.094
  329TIP3    H2  952   1.580   6.708   2.964
  330TIP3   OH2  953   3.866   0.641   0.942
  330TIP3    H1  954   3.867   0.650   1.037
  330TIP3    H2  955   3.953   0.606   0.920
  331TIP3   OH2  956   2.372   1.268   1.776
  331TIP3    H1  957   2.336   1.298   1.693
  331TIP3    H2  958   2.464   1.295   1.774
  332TIP3   OH2  959   5.509   1.802   3.037
  332TIP3    H1  960   5.447   1.755   3.093
  332TIP3    H2  961   5.478   1.787   2.948
  333TIP3   OH2  962   6.535   6.688   1.993
  333TIP3    H1  963   6.617   6.732   2.017
  333TIP3    H2  964   6.563   6.606   1.952
  334TIP3   OH2  965   7.183   6.080   2.033
  334TIP3    H1  966   7.226   6.074   1.947
  334TIP3    H2  967   7.098   6.037   2.020
  335TIP3   OH2  968   5.590   4.275   0.280
  335TIP3    H1  969   5.600   4.310   0.192
  335TIP3    H2  970   5.499   4.244   0.283
  336TIP3   OH2  971   2.988   4.749   4.013
  336TIP3    H1  972   2.940   4.823   3.975
  336TIP3    H2  973   3.081   4.773   4.002
  337TIP3   OH2  974   7.067   1.280   1.986
  337TIP3    H1  975   7.046   1.363   2.030
  337TIP3    H2  976   6.984   1.252   1.947
  338TIP3   OH2  977   1.160   0.463   2.865
  338TIP3    H1  978   1.146   0.455   2.770
  338TIP3    H2  979   1.252   0.441   2.878
  339TIP3   OH2  980   3.980   6.177   2.093
  339TIP3    H1  981   4.024   6.132   2.021
  339TIP3    H2  982   3.896   6.204   2.057
  340TIP3   OH2  983   0.400   1.814   1.702
  340TIP3    H1  984   0.370   1.825   1.792
  340TIP3    H2  985   0.493   1.793   1.709
  341TIP3   OH2  986   6.372   5.306   1.346
  341TIP3    H1  987   6.316   5.383   1.351
  341TIP3    H2  988   6.319   5.240   1.302
  342TIP3   OH2  989   4.697   3.741   2.251
  342TIP3    H1  990   4.768   3.689   2.289
  342TIP3    H2  991   4.631   3.747   2.319
  343TIP3   OH2  992   0.115   0.177   2.512
  343TIP3    H1  993   0.116   0.190   2.607
  343TIP3    H2  994   0.158   0.093   2.499
  344TIP3   OH2  995   1.095   5.704   2.426
  344TIP3    H1  996   1.063   5.659   2.504
  344TIP3    H2  997   1.179   5.741   2.453
  345TIP3   OH2  998   3.626   5.408   5.828
  345TIP3    H1  999   3.598   5.332   5.878
  345TIP3    H2 1000   3.691   5.375   5.766
  346TIP3   OH2 1001   7.109   2.189   4.387
  346TIP3    H1 1002   7.130   2.101   4.355
  346TIP3    H2 1003   7.078   2.236   4.309
  347TIP3   OH2 1004   1.247   4.123   1.266
  347TIP3    H1 1005   1.196   4.190   1.220
  347TIP3    H2 1006   1.209   4.040   1.238
  348TIP3   OH2 1007   4.457   6.454   0.738
  348TIP3    H1 1008   4.512   6.444   0.661
  348TIP3    H2 1009   4.518   6.462   0.811
  349TIP3   OH2 1010   5.437   4.545   2.804
  349TIP3    H1 1011   5.493   4.532   2.880
  349TIP3    H2 1012   5.481   4.497   2.733
  350TIP3   OH2 1013   5.031   5.849   1.262
  350TIP3    H1 1014   5.016   5.755   1.259
  350TIP3    H2 1015   4.946   5.886   1.288
  351TIP3   OH2 1016   6.851   4.466   0.580
  351TIP3    H1 1017   6.809   4.449   0.495
  351TIP3    H2 1018   6.944   4.465   0.560
  352TIP3   OH2 1019   4.859   4.844   4.072
  352TIP3    H1 1020   4.827   4.755   4.084
  352TIP3    H2 1021   4.952   4.834   4.051
  353TIP3   OH2 1022   6.716   4.908   1.916
  353TIP3    H1 1023   6.632   4.900   1.872
  353TIP3    H2 1024   6.781   4.885   1.850
  354TIP3   OH2 1025   7.067   5.124   5.036
  354TIP3    H1 1026   7.038   5.155   4.951
  354TIP3    H2 1027   7.162   5.113   5.026
  355TIP3   OH2 1028   7.031   2.116   3.024
  355TIP3    H1 1029   6.944   2.083   3.048
  355TIP3    H2 1030   7.084   2.036   3.014
  356TIP3   OH2 1031   3.580   1.852   0.291
  356TIP3    H1 1032   3.591   1.937   0.247
  356TIP3    H2 1033   3.608   1.867   0.381
  357TIP3   OH2 1034   0.641   3.052   3.618
  357TIP3    H1 1035   0.561   3.073   3.667
  357TIP3    H2 1036   0.610   3.007   3.540
  358TIP3   OH2 1037   0.593   2.343   4.745
  358TIP3    H1 1038   0.655   2.306   4.807
  358TIP3    H2 1039   0.556   2.419   4.790
  359TIP3   OH2 1040   5.203   2.744   5.434
  359TIP3    H1 1041   5.153   2.797   5.498
  359TIP3    H2 1042   5.136   2.694   5.387
  360TIP3   OH2 1043   1.104   6.179   4.376
  360TIP3    H1 1044   1.051   6.175   4.296
  360TIP3    H2 1045   1.132   6.088   4.390
  361TIP3   OH2 1046   4.192   4.174   2.583
  361TIP3    H1 1047   4.147   4.174   2.667
  361TIP3    H2 1048   4.269   4.229   2.596
  362TIP3   OH2 1049   4.301   2.135   4.019
  362TIP3    H1 1050   4.357   2.192   3.967
  362TIP3    H2 1051   4.266   2.072   3.956
  363TIP3   OH2 1052   3.781   4.619   3.273
  363TIP3    H1 1053   3.827   4.651   3.351
  363TIP3    H2 1054   3.689   4.618   3.297
  364TIP3   OH2 1055   1.818   0.071   2.566
  364TIP3    H1 1056   1.778   0.084   2.480
  364TIP3    H2 1057   1.783  -0.013   2.596
  365TIP3   OH2 1058   3.747   2.248   1.657
  365TIP3    H1 1059   3.763   2.210   1.744
  365TIP3    H2 1060   3.740   2.342   1.673
  366TIP3   OH2 1061   3.898   2.755   4.401
  366TIP3    H1 1062   3.885   2.783   4.491
  366TIP3    H2 1063   3.942   2.829   4.359
  367TIP3   OH2 1064   2.198   6.308   4.008
  367TIP3    H1 1065   2.123   6.321   3.950
  367TIP3    H2 1066   2.220   6.396   4.039
  368TIP3   OH2 1067   0.090   0.898   0.999
  368TIP3    H1 1068   0.029   0.969   0.977
  368TIP3    H2 1069   0.113   0.859   0.915
  369TIP3   OH2 1070   2.888   0.858   1.454
  369TIP3    H1 1071   2.905   0.798   1.381
  369TIP3    H2 1072   2.898   0.804   1.532
  370TIP3   OH2 1073   7.046   2.448   0.517
  370TIP3    H1 1074   7.038   2.481   0.607
  370TIP3    H2 1075   7.097   2.515   0.472
  371TIP3   OH2 1076   7.195   4.017   2.886
  371TIP3    H1 1077   7.170   3.941   2.939
  371TIP3    H2 1078   7.207   4.088   2.950
  372TIP3   OH2 1079   4.757   5.556   5.839
  372TIP3    H1 1080   4.670   5.559   5.799
  372TIP3    H2 1081   4.812   5.514   5.774
  373TIP3   OH2 1082   2.222   2.830   3.950
  373TIP3    H1 1083   2.182   2.743   3.957
  373TIP3    H2 1084   2.315   2.812   3.932
  374TIP3   OH2 1085   1.656   6.309   4.820
  374TIP3    H1 1086   1.580   6.252   4.834
  374TIP3    H2 1087   1.655   6.369   4.895
  375TIP3   OH2 1088   0.993   1.084   1.021
  375TIP3    H1 1089   1.080   1.051   1.000
  375TIP3    H2 1090   0.989   1.170   0.980
  376TIP3   OH2 1091   2.719   3.989   0.794
  376TIP3    H1 1092   2.800   3.964   0.837
  376TIP3    H2 1093   2.746   4.048   0.724
  377TIP3   OH2 1094   3.090   4.392   1.737
  377TIP3    H1 1095   3.031   4.414   1.808
  377TIP3    H2 1096   3.130   4.309   1.763
  378TIP3   OH2 1097   0.080   3.280   4.868
  378TIP3    H1 1098   0.122   3.310   4.948
  378TIP3    H2 1099   0.024   3.207   4.896
  379TIP3   OH2 1100   6.152   4.019   5.680
  379TIP3    H1 1101   6.172   4.107   5.712
  379TIP3    H2 1102   6.091   4.033   5.607
  380TIP3   OH2 1103   0.651   2.557   2.929
  380TIP3    H1 1104   0.697   2.576   3.011
  380TIP3    H2 1105   0.560   2.545   2.954
  381TIP3   OH2 1106   4.098   6.062   4.431
  381TIP3    H1 1107   4.026   6.081   4.372
  381TIP3    H2 1108   4.172   6.112   4.396
  382TIP3   OH2 1109   2.067   2.789   4.827
  382TIP3    H1 1110   1.987   2.821   4.785
  382TIP3    H2 1111   2.114   2.868   4.852
  383TIP3   OH2 1112   5.766   0.407   5.814
  383TIP3    H1 1113   5.698   0.359   5.767
  383TIP3    H2 1114   5.848   0.367   5.786
  384TIP3   OH2 1115   5.306   1.559   3.934
  384TIP3    H1 1116   5.319   1.493   3.867
  384TIP3    H2 1117   5.234   1.613   3.901
  385TIP3   OH2 1118   4.097   1.031   3.690
  385TIP3    H1 1119   4.018   1.029   3.744
  385TIP3    H2 1120   4.074   0.982   3.611
  386TIP3   OH2 1121   6.591   3.981   3.120
  386TIP3    H1 1122   6.514   3.997   3.065
  386TIP3    H2 1123   6.658   4.039   3.085
  387TIP3   OH2 1124  -0.002   4.330   2.103
  387TIP3    H1 1125  -0.020   4.380   2.183
  387TIP3    H2 1126  -0.088   4.295   2.078
  388TIP3   OH2 1127   4.410   5.651   1.691
  388TIP3    H1 1128   4.395   5.590   1.619
  388TIP3    H2 1129   4.349   5.622   1.760
  389TIP3   OH2 1130   0.304   6.673   3.079
  389TIP3    H1 1131   0.244   6.722   3.022
  389TIP3    H2 1132   0.304   6.584   3.044
  390TIP3   OH2 1133   0.088   3.924   3.413
  390TIP3    H1 1134   0.088   4.017   3.390
  390TIP3    H2 1135   0.009   3.889   3.371
  391TIP3   OH2 1136   2.504   2.005   0.489
  391TIP3    H1 1137   2.542   1.935   0.435
  391TIP3    H2 1138   2.457   1.959   0.558
  392TIP3   OH2 1139   2.497   5.817   3.312
  392TIP3    H1 1140   2.517   5.843   3.222
  392TIP3    H2 1141   2.406   5.787   3.309
  393TIP3   OH2 1142   3.498   4.088   3.869
  393TIP3    H1 1143   3.530   4.033   3.941
  393TIP3    H2 1144   3.403   4.094   3.884
  394TIP3   OH2 1145   5.115   1.735   0.200
  394TIP3    H1 1146   5.189   1.764   0.252
  394TIP3    H2 1147   5.061   1.684   0.260
  395TIP3   OH2 1148   6.650   1.331   1.308
  395TIP3    H1 1149   6.660   1.279   1.228
  395TIP3    H2 1150   6.589   1.401   1.284
  396TIP3   OH2 1151   2.272   4.385   5.806
  396TIP3    H1 1152   2.191   4.435   5.798
  396TIP3    H2 1153   2.244   4.296   5.827
  397TIP3   OH2 1154   1.364   1.283   3.951
  397TIP3    H1 1155   1.370   1.218   4.021
  397TIP3    H2 1156   1.272   1.282   3.926
  398TIP3   OH2 1157   2.534   2.454   5.738
  398TIP3    H1 1158   2.609   2.499   5.698
  398TIP3    H2 1159   2.540   2.474   5.831
  399TIP3   OH2 1160   5.213   5.381   2.416
  399TIP3    H1 1161   5.182   5.291   2.415
  399TIP3    H2 1162   5.296   5.378   2.464
  400TIP3   OH2 1163   3.649   2.465   2.813
  400TIP3    H1 1164   3.582   2.451   2.880
  400TIP3    H2 1165   3.731   2.470   2.862
  401TIP3   OH2 1166   3.240   1.311   3.202
  401TIP3    H1 1167   3.232   1.219   3.181
  401TIP3    H2 1168   3.327   1.336   3.170
  402TIP3   OH2 1169   0.878   4.625   1.993
  402TIP3    H1 1170   0.795   4.585   2.015
  402TIP3    H2 1171   0.859   4.719   1.988
  403TIP3   OH2 1172   6.906   1.294   0.768
  403TIP3    H1 1173   6.838   1.227   0.780
  403TIP3    H2 1174   6.938   1.311   0.857
  404TIP3   OH2 1175   0.192   2.052   3.351
  404TIP3    H1 1176   0.161   2.032   3.439
  404TIP3    H2 1177   0.270   1.997   3.341
  405TIP3   OH2 1178   6.021   3.341   1.019
  405TIP3    H1 1179   5.952   3.387   0.971
  405TIP3    H2 1180   6.097   3.398   1.011
  406TIP3   OH2 1181   0.304   3.118   5.032
  406TIP3    H1 1182   0.363   3.099   4.958
  406TIP3    H2 1183   0.293   3.213   5.029
  407TIP3   OH2 1184   2.753   5.688   3.866
  407TIP3    H1 1185   2.796   5.770   3.890
  407TIP3    H2 1186   2.660   5.704   3.885
  408TIP3   OH2 1187   3.628   4.190   2.696
  408TIP3    H1 1188   3.662   4.227   2.778
  408TIP3    H2 1189   3.537   4.169   2.715
  409TIP3   OH2 1190   4.486   0.265   0.286
  409TIP3    H1 1191   4.440   0.271   0.202
  409TIP3    H2 1192   4.417   0.275   0.352
  410TIP3   OH2 1193   5.070   0.347   5.340
  410TIP3    H1 1194   4.985   0.305   5.356
  410TIP3    H2 1195   5.050   0.427   5.293
  411TIP3   OH2 1196   5.877   3.392   5.536
  411TIP3    H1 1197   5.955   3.385   5.482
  411TIP3    H2 1198   5.909   3.384   5.626
  412TIP3   OH2 1199   7.040   4.285   4.973
  412TIP3    H1 1200   7.005   4.373   4.983
  412TIP3    H2 1201   6.970   4.237   4.928
  413TIP3   OH2 1202   1.010   3.904   2.259
  413TIP3    H1 1203   1.022   3.938   2.170
  413TIP3    H2 1204   0.966   3.976   2.305
  414TIP3   OH2 1205   4.216   1.800   0.146
  414TIP3    H1 1206   4.266   1.846   0.214
  414TIP3    H2 1207   4.134   1.778   0.189
  415TIP3   OH2 1208   5.503   1.813   1.329
  415TIP3    H1 1209   5.484   1.730   1.373
  415TIP3    H2 1210   5.512   1.789   1.236
  416TIP3   OH2 1211   5.895   1.907   1.538
  416TIP3    H1 1212   5.859   1.939   1.621
  416TIP3    H2 1213   5.920   1.987   1.490
  417TIP3   OH2 1214   2.157   3.761   0.715
  417TIP3    H1 1215   2.096   3.688   0.706
  417TIP3    H2 1216   2.106   3.838   0.686
  418TIP3   OH2 1217   3.552   1.984   4.294
  418TIP3    H1 1218   3.500   2.057   4.260
  418TIP3    H2 1219   3.501   1.951   4.368
  419TIP3   OH2 1220   6.754   6.038   0.911
  419TIP3    H1 1221   6.837   6.083   0.892
  419TIP3    H2 1222   6.698   6.107   0.947
  420TIP3   OH2 1223   6.314   1.206   3.240
  420TIP3    H1 1224   6.375   1.133   3.248
  420TIP3    H2 1225   6.370   1.283   3.231
  421TIP3   OH2 1226   4.306   1.481   4.170
  421TIP3    H1 1227   4.378   1.530   4.207
  421TIP3    H2 1228   4.321   1.483   4.075
  422TIP3   OH2 1229   0.012   5.885   0.914
  422TIP3    H1 1230  -0.018   5.876   0.824
  422TIP3    H2 1231   0.100   5.848   0.915
  423TIP3   OH2 1232   6.612   1.144   2.446
  423TIP3    H1 1233   6.677   1.176   2.383
  423TIP3    H2 1234   6.578   1.063   2.407
  424TIP3   OH2 1235   5.822   5.453   0.137
  424TIP3    H1 1236   5.752   5.411   0.087
  424TIP3    H2 1237   5.778   5.490   0.214
  425TIP3   OH2 1238   0.664   1.708   4.038
  425TIP3    H1 1239   0.636   1.656   3.963
  425TIP3    H2 1240   0.692   1.792   4.000
  426TIP3   OH2 1241   5.408   5.640   3.947
  426TIP3    H1 1242   5.340   5.654   3.881
  426TIP3    H2 1243   5.359   5.627   4.029
  427TIP3   OH2 1244   6.736   4.171   3.026
  427TIP3    H1 1245   6.811   4.229   3.039
  427TIP3    H2 1246   6.673   4.224   2.977
  428TIP3   OH2 1247   1.875   6.670   2.603
  428TIP3    H1 1248   1.816   6.620   2.546
  428TIP3    H2 1249   1.873   6.623   2.686
  429TIP3   OH2 1250   3.531   6.053   2.528
  429TIP3    H1 1251   3.463   6.121   2.527
  429TIP3    H2 1252   3.572   6.059   2.442
  430TIP3   OH2 1253   6.764   4.473   0.943
  430TIP3    H1 1254   6.668   4.478   0.947
  430TIP3    H2 1255   6.792   4.465   1.034
  431TIP3   OH2 1256   0.721   3.305   1.178
  431TIP3    H1 1257   0.646   3.266   1.133
  431TIP3    H2 1258   0.772   3.230   1.208
  432TIP3   OH2 1259   0.635   0.085   2.409
  432TIP3    H1 1260   0.644   0.033   2.489
  432TIP3    H2 1261   0.550   0.060   2.374
  433TIP3   OH2 1262   0.223   4.546   5.557
  433TIP3    H1 1263   0.128   4.557   5.556
  433TIP3    H2 1264   0.237   4.460   5.517
  434TIP3   OH2 1265   5.628   2.099   0.605
  434TIP3    H1 1266   5.612   2.123   0.514
  434TIP3    H2 1267   5.716   2.133   0.624
  435TIP3   OH2 1268   0.606   4.319   5.036
  435TIP3    H1 1269   0.691   4.339   4.997
  435TIP3    H2 1270   0.597   4.224   5.029
  436TIP3   OH2 1271   4.960   4.173   4.867
  436TIP3    H1 1272   4.895   4.138   4.928
  436TIP3    H2 1273   5.009   4.238   4.919
  437TIP3   OH2 1274   1.245   2.091   5.273
  437TIP3    H1 1275   1.197   2.122   5.349
  437TIP3    H2 1276   1.221   2.152   5.203
  438TIP3   OH2 1277   2.780   0.381   0.681
  438TIP3    H1 1278   2.860   0.340   0.714
  438TIP3    H2 1279   2.786   0.372   0.585
  439TIP3   OH2 1280   6.165   6.644   5.302
  439TIP3    H1 1281   6.123   6.562   5.327
  439TIP3    H2 1282   6.094   6.706   5.291
  440TIP3   OH2 1283   5.768   5.650   4.198
  440TIP3    H1 1284   5.793   5.740   4.217
  440TIP3    H2 1285   5.680   5.641   4.235
  441TIP3   OH2 1286   7.039   3.596   5.337
  441TIP3    H1 1287   7.018   3.652   5.413
  441TIP3    H2 1288   7.017   3.650   5.261
  442TIP3   OH2 1289   6.437   6.153   5.674
  442TIP3    H1 1290   6.353   6.196   5.666
  442TIP3    H2 1291   6.436   6.112   5.761
  443TIP3   OH2 1292   4.767   4.230   4.359
  443TIP3    H1 1293   4.719   4.236   4.276
  443TIP3    H2 1294   4.699   4.217   4.425
  444TIP3   OH2 1295   3.388   5.048   2.948
  444TIP3    H1 1296   3.377   4.968   3.000
  444TIP3    H2 1297   3.433   5.020   2.869
  445TIP3   OH2 1298   0.609   1.134   1.570
  445TIP3    H1 1299   0.583   1.130   1.662
  445TIP3    H2 1300   0.556   1.066   1.528
  446TIP3   OH2 1301   6.039   6.764   4.282
  446TIP3    H1 1302   6.084   6.680   4.272
  446TIP3    H2 1303   6.105   6.824   4.316
  447TIP3   OH2 1304   4.838   1.759   3.821
  447TIP3    H1 1305   4.918   1.776   3.870
  447TIP3    H2 1306   4.869   1.740   3.732
  448TIP3   OH2 1307   0.352   5.613   3.198
  448TIP3    H1 1308   0.360   5.528   3.240
  448TIP3    H2 1309   0.417   5.611   3.128
  449TIP3   OH2 1310   1.982   0.859   5.611
  449TIP3    H1 1311   2.057   0.807   5.580
  449TIP3    H2 1312   1.947   0.900   5.532
  450TIP3   OH2 1313   6.490   3.738   4.464
  450TIP3    H1 1314   6.573   3.767   4.427
  450TIP3    H2 1315   6.424   3.786   4.414
  451TIP3   OH2 1316   2.476   3.915   4.062
  451TIP3    H1 1317   2.482   3.824   4.093
  451TIP3    H2 1318   2.388   3.943   4.087
  452TIP3   OH2 1319   0.245   5.761   5.331
  452TIP3    H1 1320   0.248   5.787   5.423
  452TIP3    H2 1321   0.152   5.755   5.310
  453TIP3   OH2 1322   1.147   2.341   5.130
  453TIP3    H1 1323   1.235   2.377   5.117
  453TIP3    H2 1324   1.100   2.410   5.177
  454TIP3   OH2 1325   3.807   4.982   4.643
  454TIP3    H1 1326   3.875   5.003   4.707
  454TIP3    H2 1327   3.813   4.887   4.633
  455TIP3   OH2 1328   0.565   6.440   0.360
  455TIP3    H1 1329   0.514   6.481   0.291
  455TIP3    H2 1330   0.567   6.347   0.337
  456TIP3   OH2 1331   6.921   0.781   2.324
  456TIP3    H1 1332   6.909   0.704   2.380
  456TIP3    H2 1333   7.007   0.814   2.347
  457TIP3   OH2 1334   2.557   5.400   0.674
  457TIP3    H1 1335   2.539   5.355   0.757
  457TIP3    H2 1336   2.543   5.333   0.607
  458TIP3   OH2 1337   4.641   3.390   1.491
  458TIP3    H1 1338   4.733   3.415   1.483
  458TIP3    H2 1339   4.603   3.457   1.548
  459TIP3   OH2 1340   5.860   0.895   4.374
  459TIP3    H1 1341   5.932   0.942   4.332
  459TIP3    H2 1342   5.898   0.858   4.453
  460TIP3   OH2 1343   2.261   3.118   5.209
  460TIP3    H1 1344   2.320   3.096   5.280
  460TIP3    H2 1345   2.309   3.183   5.157
  461TIP3   OH2 1346   0.471   5.179   0.470
  461TIP3    H1 1347   0.456   5.209   0.560
  461TIP3    H2 1348   0.529   5.103   0.481
  462TIP3   OH2 1349   4.037   5.827   5.051
  462TIP3    H1 1350   4.014   5.737   5.075
  462TIP3    H2 1351   4.127   5.838   5.080
  463TIP3   OH2 1352   7.041   0.408   1.830
  463TIP3    H1 1353   7.120   0.367   1.865
  463TIP3    H2 1354   7.041   0.496   1.868
  464TIP3   OH2 1355   1.532   6.737   3.621
  464TIP3    H1 1356   1.583   6.732   3.702
  464TIP3    H2 1357   1.549   6.824   3.587
  465TIP3   OH2 1358   6.033   6.818   3.927
  465TIP3    H1 1359   6.054   6.733   3.888
  465TIP3    H2 1360   6.001   6.871   3.854
  466TIP3   OH2 1361   2.135   6.638   4.924
  466TIP3    H1 1362   2.109   6.652   5.015
  466TIP3    H2 1363   2.053   6.623   4.877
  467TIP3   OH2 1364   5.749   2.586   0.596
  467TIP3    H1 1365   5.738   2.617   0.506
  467TIP3    H2 1366   5.662   2.559   0.623
  468TIP3   OH2 1367   7.052   6.417   3.949
  468TIP3    H1 1368   7.141   6.416   3.914
  468TIP3    H2 1369   7.037   6.328   3.981
  469TIP3   OH2 1370   4.597   2.379   3.644
  469TIP3    H1 1371   4.692   2.389   3.648
  469TIP3    H2 1372   4.576   2.378   3.551
  470TIP3   OH2 1373   1.603   4.877   3.892
  470TIP3    H1 1374   1.679   4.893   3.836
  470TIP3    H2 1375   1.531   4.922   3.848
  471TIP3   OH2 1376   5.184   1.472   2.214
  471TIP3    H1 1377   5.136   1.429   2.285
  471TIP3    H2 1378   5.276   1.460   2.238
  472TIP3   OH2 1379   6.708   3.505   5.596
  472TIP3    H1 1380   6.665   3.590   5.606
  472TIP3    H2 1381   6.687   3.458   5.676
  473TIP3   OH2 1382   5.885   2.509   1.354
  473TIP3    H1 1383   5.903   2.510   1.448
  473TIP3    H2 1384   5.871   2.416   1.334
  474TIP3   OH2 1385   3.838   0.034   0.807
  474TIP3    H1 1386   3.842  -0.060   0.786
  474TIP3    H2 1387   3.822   0.077   0.723
  475TIP3   OH2 1388   3.946   2.396   1.032
  475TIP3    H1 1389   3.865   2.447   1.041
  475TIP3    H2 1390   3.939   2.354   0.947
  476TIP3   OH2 1391   6.524   0.467   4.375
  476TIP3    H1 1392   6.432   0.479   4.400
  476TIP3    H2 1393   6.548   0.549   4.333
  477TIP3   OH2 1394   6.047   5.031   2.700
  477TIP3    H1 1395   6.027   4.938   2.702
  477TIP3    H2 1396   6.015   5.061   2.615
  478TIP3   OH2 1397   2.742   6.209   3.516
  478TIP3    H1 1398   2.698   6.125   3.530
  478TIP3    H2 1399   2.672   6.274   3.522
  479TIP3   OH2 1400   2.433   5.070   5.547
  479TIP3    H1 1401   2.402   4.981   5.534
  479TIP3    H2 1402   2.513   5.076   5.495
  480TIP3   OH2 1403   1.482   3.961   0.157
  480TIP3    H1 1404   1.553   3.919   0.108
  480TIP3    H2 1405   1.516   3.970   0.246
  481TIP3   OH2 1406   4.650   0.714   3.119
  481TIP3    H1 1407   4.645   0.639   3.059
  481TIP3    H2 1408   4.702   0.778   3.071
  482TIP3   OH2 1409   6.077   2.982   2.833
  482TIP3    H1 1410   6.062   2.931   2.753
  482TIP3    H2 1411   6.010   2.952   2.894
  483TIP3   OH2 1412   6.694   4.118   2.306
  483TIP3    H1 1413   6.625   4.157   2.358
  483TIP3    H2 1414   6.770   4.174   2.320
  484TIP3   OH2 1415   6.262   3.363   4.958
  484TIP3    H1 1416   6.276   3.411   4.877
  484TIP3    H2 1417   6.279   3.427   5.027
  485TIP3   OH2 1418   4.223   1.071   5.136
  485TIP3    H1 1419   4.137   1.043   5.166
  485TIP3    H2 1420   4.249   1.004   5.072
  486TIP3   OH2 1421   5.930   5.169   5.115
  486TIP3    H1 1422   5.996   5.235   5.140
  486TIP3    H2 1423   5.898   5.198   5.030
  487TIP3   OH2 1424   4.132   6.066   3.773
  487TIP3    H1 1425   4.197   5.996   3.774
  487TIP3    H2 1426   4.090   6.058   3.688
  488TIP3   OH2 1427   3.424   1.881   3.755
  488TIP3    H1 1428   3.396   1.954   3.701
  488TIP3    H2 1429   3.427   1.807   3.694
  489TIP3   OH2 1430   3.854   2.822   4.652
  489TIP3    H1 1431   3.808   2.741   4.670
  489TIP3    H2 1432   3.829   2.881   4.723
  490TIP3   OH2 1433   2.496   6.726   1.287
  490TIP3    H1 1434   2.444   6.646   1.295
  490TIP3    H2 1435   2.479   6.773   1.369
  491TIP3   OH2 1436   3.082   6.280   1.700
  491TIP3    H1 1437   3.067   6.340   1.773
  491TIP3    H2 1438   3.104   6.336   1.626
  492TIP3   OH2 1439   2.101   5.400   5.753
  492TIP3    H1 1440   2.131   5.390   5.843
  492TIP3    H2 1441   2.102   5.312   5.716
  493TIP3   OH2 1442   1.957   1.767   5.414
  493TIP3    H1 1443   1.936   1.679   5.445
  493TIP3    H2 1444   1.936   1.765   5.320
  494TIP3   OH2 1445   3.635   2.249   1.384
  494TIP3    H1 1446   3.675   2.266   1.469
  494TIP3    H2 1447   3.543   2.271   1.396
  495TIP3   OH2 1448   2.334   1.954   1.013
  495TIP3    H1 1449   2.306   2.013   1.082
  495TIP3    H2 1450   2.337   1.868   1.054
  496TIP3   OH2 1451   5.760   5.634   2.904
  496TIP3    H1 1452   5.734   5.602   2.991
  496TIP3    H2 1453   5.770   5.554   2.852
  497TIP3   OH2 1454   7.172   5.794   2.830
  497TIP3    H1 1455   7.252   5.807   2.883
  497TIP3    H2 1456   7.102   5.786   2.895
  498TIP3   OH2 1457   1.395   5.400   3.930
  498TIP3    H1 1458   1.301   5.412   3.926
  498TIP3    H2 1459   1.424   5.455   4.002
  499TIP3   OH2 1460   0.568   3.864   0.867
  499TIP3    H1 1461   0.534   3.952   0.849
  499TIP3    H2 1462   0.495   3.817   0.905
  500TIP3   OH2 1463   1.858   1.895   5.085
  500TIP3    H1 1464   1.949   1.875   5.108
  500TIP3    H2 1465   1.821   1.810   5.061
  501TIP3   OH2 1466   3.634   0.886   4.093
  501TIP3    H1 1467   3.696   0.886   4.020
  501TIP3    H2 1468   3.659   0.811   4.147
  502TIP3   OH2 1469   1.497   2.485   2.081
  502TIP3    H1 1470   1.567   2.421   2.096
  502TIP3    H2 1471   1.526   2.534   2.004
  503TIP3   OH2 1472   1.625   2.910   2.050
  503TIP3    H1 1473   1.530   2.909   2.062
  503TIP3    H2 1474   1.643   2.840   1.988
  504TIP3   OH2 1475   5.270   3.024   3.114
  504TIP3    H1 1476   5.251   3.110   3.076
  504TIP3    H2 1477   5.355   3.000   3.079
  505TIP3   OH2 1478   3.057   1.706   2.017
  505TIP3    H1 1479   3.023   1.778   2.071
  505TIP3    H2 1480   2.979   1.657   1.992
  506TIP3   OH2 1481   6.475   1.518   1.198
  506TIP3    H1 1482   6.432   1.556   1.275
  506TIP3    H2 1483   6.404   1.503   1.136
  507TIP3   OH2 1484   1.334   2.768   1.728
  507TIP3    H1 1485   1.418   2.760   1.773
  507TIP3    H2 1486   1.273   2.795   1.797
  508TIP3   OH2 1487   1.881   1.578   4.058
  508TIP3    H1 1488   1.837   1.579   3.974
  508TIP3    H2 1489   1.974   1.568   4.037
  509TIP3   OH2 1490   4.905   0.211   0.961
  509TIP3    H1 1491   4.964   0.173   0.897
  509TIP3    H2 1492   4.891   0.301   0.931
  510TIP3   OH2 1493   5.214   6.321   0.481
  510TIP3    H1 1494   5.177   6.399   0.439
  510TIP3    H2 1495   5.288   6.296   0.424
  511TIP3   OH2 1496   4.177   5.306   3.337
  511TIP3    H1 1497   4.175   5.212   3.353
  511TIP3    H2 1498   4.123   5.344   3.407
  512TIP3   OH2 1499   3.239   3.480   4.109
  512TIP3    H1 1500   3.302   3.532   4.159
  512TIP3    H2 1501   3.155   3.499   4.149
  513TIP3   OH2 1502   1.602   3.771   4.770
  513TIP3    H1 1503   1.687   3.791   4.732
  513TIP3    H2 1504   1.621   3.744   4.860
  514TIP3   OH2 1505   3.399   2.306   4.495
  514TIP3    H1 1506   3.305   2.289   4.508
  514TIP3    H2 1507   3.441   2.222   4.511
  515TIP3   OH2 1508   6.272   4.550   2.570
  515TIP3    H1 1509   6.362   4.523   2.550
  515TIP3    H2 1510   6.267   4.547   2.666
  516TIP3   OH2 1511   6.262   0.385   2.442
  516TIP3    H1 1512   6.192   0.449   2.442
  516TIP3    H2 1513   6.290   0.379   2.533
  517TIP3   OH2 1514   0.908   3.515   0.570
  517TIP3    H1 1515   0.836   3.576   0.552
  517TIP3    H2 1516   0.954   3.553   0.645
  518TIP3   OH2 1517   0.379   6.651   2.362
  518TIP3    H1 1518   0.368   6.592   2.437
  518TIP3    H2 1519   0.321   6.614   2.295
  519TIP3   OH2 1520   6.058   1.216   3.722
  519TIP3    H1 1521   5.969   1.180   3.718
  519TIP3    H2 1522   6.064   1.274   3.646
  520TIP3   OH2 1523   1.057   1.062   2.819
  520TIP3    H1 1524   1.006   1.089   2.742
  520TIP3    H2 1525   1.143   1.038   2.783
  521TIP3   OH2 1526   7.162   4.893   1.454
  521TIP3    H1 1527   7.247   4.933   1.433
  521TIP3    H2 1528   7.100   4.939   1.397
  522TIP3   OH2 1529   5.966   2.634   2.766
  522TIP3    H1 1530   5.927   2.553   2.801
  522TIP3    H2 1531   6.027   2.662   2.834
  523TIP3   OH2 1532   5.746   1.777   5.151
  523TIP3    H1 1533   5.706   1.812   5.230
  523TIP3    H2 1534   5.822   1.832   5.135
  524TIP3   OH2 1535   3.560   6.162   0.368
  524TIP3    H1 1536   3.566   6.092   0.433
  524TIP3    H2 1537   3.616   6.134   0.296
  525TIP3   OH2 1538   1.666   4.201   0.905
  525TIP3    H1 1539   1.639   4.158   0.986
  525TIP3    H2 1540   1.596   4.181   0.843
  526TIP3   OH2 1541   4.599   5.800   0.100
  526TIP3    H1 1542   4.577   5.842   0.184
  526TIP3    H2 1543   4.618   5.872   0.041
  527TIP3   OH2 1544   2.405   4.264   2.396
  527TIP3    H1 1545   2.422   4.262   2.490
  527TIP3    H2 1546   2.380   4.354   2.378
  528TIP3   OH2 1547   7.173   2.605   0.291
  528TIP3    H1 1548   7.102   2.662   0.262
  528TIP3    H2 1549   7.219   2.581   0.211
  529TIP3   OH2 1550   2.726   4.985   3.311
  529TIP3    H1 1551   2.661   5.049   3.283
  529TIP3    H2 1552   2.808   5.016   3.274
  530TIP3   OH2 1553   5.016   6.640   5.750
  530TIP3    H1 1554   5.042   6.725   5.717
  530TIP3    H2 1555   5.049   6.637   5.840
  531TIP3   OH2 1556   5.197   6.201   4.821
  531TIP3    H1 1557   5.148   6.276   4.856
  531TIP3    H2 1558   5.130   6.146   4.780
  532TIP3   OH2 1559   6.145   3.761   5.756
  532TIP3    H1 1560   6.218   3.718   5.710
  532TIP3    H2 1561   6.152   3.853   5.732
  533TIP3   OH2 1562   3.985   2.208   4.048
  533TIP3    H1 1563   3.962   2.203   3.955
  533TIP3    H2 1564   4.080   2.201   4.050
  534TIP3   OH2 1565   3.774   5.015   3.804
  534TIP3    H1 1566   3.776   4.984   3.895
  534TIP3    H2 1567   3.778   5.111   3.812
  535TIP3   OH2 1568   2.469   3.150   4.856
  535TIP3    H1 1569   2.474   3.094   4.934
  535TIP3    H2 1570   2.544   3.209   4.864
  536TIP3   OH2 1571   0.337   0.100   0.665
  536TIP3    H1 1572   0.417   0.113   0.615
  536TIP3    H2 1573   0.318   0.006   0.657
  537TIP3   OH2 1574   6.252   4.232   0.409
  537TIP3    H1 1575   6.198   4.295   0.456
  537TIP3    H2 1576   6.331   4.223   0.462
  538TIP3   OH2 1577   6.514   5.303   3.854
  538TIP3    H1 1578   6.596   5.345   3.830
  538TIP3    H2 1579   6.468   5.367   3.909
  539TIP3   OH2 1580   3.116   3.175   2.675
  539TIP3    H1 1581   3.147   3.087   2.696
  539TIP3    H2 1582   3.128   3.183   2.581
  540TIP3   OH2 1583   2.375   6.217   3.113
  540TIP3    H1 1584   2.465   6.188   3.130
  540TIP3    H2 1585   2.353   6.178   3.028
  541TIP3   OH2 1586   4.636   2.692   5.751
  541TIP3    H1 1587   4.552   2.738   5.756
  541TIP3    H2 1588   4.643   2.664   5.659
  542TIP3   OH2 1589   5.207   5.342   1.051
  542TIP3    H1 1590   5.216   5.437   1.046
  542TIP3    H2 1591   5.289   5.311   1.090
  543TIP3   OH2 1592   6.659   0.020   5.083
  543TIP3    H1 1593   6.744  -0.022   5.074
  543TIP3    H2 1594   6.661   0.092   5.020
  544TIP3   OH2 1595   1.303   3.943   5.252
  544TIP3    H1 1596   1.367   3.876   5.277
  544TIP3    H2 1597   1.276   3.981   5.335
  545TIP3   OH2 1598   2.557   2.609   2.853
  545TIP3    H1 1599   2.593   2.694   2.828
  545TIP3    H2 1600   2.633   2.558   2.883
  546TIP3   OH2 1601   0.181   0.028   3.263
  546TIP3    H1 1602   0.209   0.056   3.175
  546TIP3    H2 1603   0.253  -0.026   3.295
  547TIP3   OH2 1604   5.832   2.371   5.684
  547TIP3    H1 1605   5.898   2.320   5.637
  547TIP3    H2 1606   5.749   2.330   5.660
  548TIP3   OH2 1607   1.428   1.587   0.574
  548TIP3    H1 1608   1.410   1.611   0.665
  548TIP3    H2 1609   1.521   1.565   0.573
  549TIP3   OH2 1610   4.880   6.691   3.943
  549TIP3    H1 1611   4.925   6.666   4.024
  549TIP3    H2 1612   4.805   6.742   3.973
  550TIP3   OH2 1613   0.065   2.298   1.439
  550TIP3    H1 1614   0.051   2.205   1.421
  550TIP3    H2 1615   0.157   2.304   1.465
  551TIP3   OH2 1616   1.015   4.171   2.653
  551TIP3    H1 1617   1.083   4.237   2.671
  551TIP3    H2 1618   0.938   4.203   2.699
  552TIP3   OH2 1619   2.911   1.606   3.059
  552TIP3    H1 1620   2.970   1.575   2.990
  552TIP3    H2 1621   2.942   1.694   3.080
  553TIP3   OH2 1622   0.599   5.666   1.183
  553TIP3    H1 1623   0.670   5.705   1.132
  553TIP3    H2 1624   0.576   5.734   1.246
  554TIP3   OH2 1625   5.057   1.037   5.253
  554TIP3    H1 1626   5.064   1.132   5.264
  554TIP3    H2 1627   5.119   1.001   5.316
  555TIP3   OH2 1628   5.490   0.538   3.155
  555TIP3    H1 1629   5.576   0.508   3.125
  555TIP3    H2 1630   5.433   0.461   3.145
  556TIP3   OH2 1631   1.788   2.576   3.871
  556TIP3    H1 1632   1.843   2.585   3.948
  556TIP3    H2 1633   1.708   2.624   3.892
  557TIP3   OH2 1634   3.864   5.275   3.663
  557TIP3    H1 1635   3.818   5.358   3.646
  557TIP3    H2 1636   3.823   5.213   3.603
  558TIP3   OH2 1637   4.034   5.829   2.823
  558TIP3    H1 1638   3.984   5.863   2.749
  558TIP3    H2 1639   4.031   5.734   2.812
  559TIP3   OH2 1640   6.172   0.438   0.212
  559TIP3    H1 1641   6.127   0.362   0.247
  559TIP3    H2 1642   6.212   0.479   0.289
  560TIP3   OH2 1643   3.612   1.979   5.847
  560TIP3    H1 1644   3.566   2.036   5.909
  560TIP3    H2 1645   3.548   1.912   5.824
  561TIP3   OH2 1646   2.342   4.218   3.221
  561TIP3    H1 1647   2.278   4.147   3.222
  561TIP3    H2 1648   2.374   4.224   3.311
  562TIP3   OH2 1649   2.168   4.067   5.852
  562TIP3    H1 1650   2.081   4.098   5.828
  562TIP3    H2 1651   2.159   4.037   5.943
  563TIP3   OH2 1652   0.840   4.891   2.654
  563TIP3    H1 1653   0.786   4.957   2.697
  563TIP3    H2 1654   0.927   4.901   2.693
  564TIP3   OH2 1655   1.405   5.395   4.436
  564TIP3    H1 1656   1.379   5.464   4.376
  564TIP3    H2 1657   1.325   5.346   4.454
  565TIP3   OH2 1658   3.054   0.985   3.701
  565TIP3    H1 1659   3.009   1.057   3.656
  565TIP3    H2 1660   3.116   0.952   3.636
  566TIP3   OH2 1661   3.215   5.511   2.425
  566TIP3    H1 1662   3.282   5.482   2.364
  566TIP3    H2 1663   3.205   5.605   2.406
  567TIP3   OH2 1664   1.960   2.768   4.529
  567TIP3    H1 1665   1.925   2.759   4.617
  567TIP3    H2 1666   1.990   2.680   4.506
  568TIP3   OH2 1667   4.620   2.927   1.475
  568TIP3    H1 1668   4.595   2.901   1.387
  568TIP3    H2 1669   4.670   3.008   1.463
  569TIP3   OH2 1670   0.972   0.053   4.228
  569TIP3    H1 1671   1.009   0.113   4.163
  569TIP3    H2 1672   1.047   0.020   4.277
  570TIP3   OH2 1673   7.062   1.125   2.431
  570TIP3    H1 1674   7.108   1.074   2.363
  570TIP3    H2 1675   6.994   1.171   2.383
  571TIP3   OH2 1676   3.500   3.222   1.670
  571TIP3    H1 1677   3.575   3.281   1.681
  571TIP3    H2 1678   3.456   3.254   1.592
  572TIP3   OH2 1679   2.528   4.414   3.154
  572TIP3    H1 1680   2.439   4.449   3.157
  572TIP3    H2 1681   2.568   4.443   3.235
  573TIP3   OH2 1682   1.058   1.398   4.648
  573TIP3    H1 1683   1.075   1.370   4.738
  573TIP3    H2 1684   0.963   1.393   4.640
  574TIP3   OH2 1685   0.053   3.818   5.160
  574TIP3    H1 1686   0.111   3.753   5.120
  574TIP3    H2 1687   0.065   3.896   5.106
  575TIP3   OH2 1688   4.369   2.899   3.894
  575TIP3    H1 1689   4.414   2.944   3.965
  575TIP3    H2 1690   4.427   2.909   3.818
  576TIP3   OH2 1691   3.118   4.551   5.529
  576TIP3    H1 1692   3.119   4.642   5.497
  576TIP3    H2 1693   3.144   4.557   5.620
  577TIP3   OH2 1694   6.296   3.033   3.003
  577TIP3    H1 1695   6.240   3.042   2.927
  577TIP3    H2 1696   6.380   3.002   2.968
  578TIP3   OH2 1697   5.464   0.745   4.711
  578TIP3    H1 1698   5.430   0.669   4.759
  578TIP3    H2 1699   5.427   0.736   4.623
  579TIP3   OH2 1700   3.226   3.637   2.261
  579TIP3    H1 1701   3.185   3.626   2.175
  579TIP3    H2 1702   3.178   3.579   2.319
  580TIP3   OH2 1703   7.194   5.743   3.739
  580TIP3    H1 1704   7.098   5.750   3.741
  580TIP3    H2 1705   7.219   5.735   3.831
  581TIP3   OH2 1706   0.259   5.128   4.541
  581TIP3    H1 1707   0.241   5.123   4.635
  581TIP3    H2 1708   0.210   5.055   4.503
  582TIP3   OH2 1709   3.920   4.513   2.793
  582TIP3    H1 1710   3.878   4.517   2.879
  582TIP3    H2 1711   3.980   4.587   2.793
  583TIP3   OH2 1712   6.953   5.420   4.959
  583TIP3    H1 1713   6.981   5.364   4.887
  583TIP3    H2 1714   6.939   5.506   4.920
  584TIP3   OH2 1715   2.425   5.117   2.529
  584TIP3    H1 1716   2.437   5.031   2.490
  584TIP3    H2 1717   2.476   5.114   2.610
  585TIP3   OH2 1718   5.390   1.813   4.310
  585TIP3    H1 1719   5.420   1.805   4.400
  585TIP3    H2 1720   5.469   1.831   4.259
  586TIP3   OH2 1721   1.488   2.945   5.118
  586TIP3    H1 1722   1.463   2.886   5.047
  586TIP3    H2 1723   1.583   2.941   5.121
  587TIP3   OH2 1724   2.352   4.300   2.667
  587TIP3    H1 1725   2.275   4.347   2.700
  587TIP3    H2 1726   2.423   4.364   2.672
  588TIP3   OH2 1727   5.188   3.396   1.271
  588TIP3    H1 1728   5.231   3.481   1.261
  588TIP3    H2 1729   5.229   3.358   1.349
  589TIP3   OH2 1730   0.675   3.683   3.267
  589TIP3    H1 1731   0.622   3.725   3.334
  589TIP3    H2 1732   0.684   3.749   3.198
  590TIP3   OH2 1733   3.850   0.579   1.288
  590TIP3    H1 1734   3.898   0.646   1.336
  590TIP3    H2 1735   3.764   0.618   1.270
  591TIP3   OH2 1736   4.464   4.662   3.489
  591TIP3    H1 1737   4.392   4.719   3.515
  591TIP3    H2 1738   4.543   4.708   3.518
  592TIP3   OH2 1739   6.432   6.027   1.379
  592TIP3    H1 1740   6.400   6.077   1.303
  592TIP3    H2 1741   6.472   6.092   1.436
  593TIP3   OH2 1742   4.680   1.653   1.476
  593TIP3    H1 1743   4.642   1.623   1.394
  593TIP3    H2 1744   4.614   1.712   1.513
  594TIP3   OH2 1745   6.973   0.170   2.259
  594TIP3    H1 1746   7.003   0.080   2.248
  594TIP3    H2 1747   7.050   0.224   2.240
  595TIP3   OH2 1748   6.172   1.657   5.309
  595TIP3    H1 1749   6.221   1.667   5.391
  595TIP3    H2 1750   6.179   1.563   5.289
  596TIP3   OH2 1751   3.252   3.202   3.134
  596TIP3    H1 1752   3.272   3.218   3.042
  596TIP3    H2 1753   3.334   3.172   3.172
  597TIP3   OH2 1754   2.722   4.424   2.107
  597TIP3    H1 1755   2.694   4.345   2.153
  597TIP3    H2 1756   2.641   4.460   2.069
  598TIP3   OH2 1757   6.806   6.671   1.635
  598TIP3    H1 1758   6.765   6.756   1.650
  598TIP3    H2 1759   6.884   6.672   1.690
  599TIP3   OH2 1760  -0.011   4.173   2.450
  599TIP3    H1 1761  -0.057   4.097   2.413
  599TIP3    H2 1762   0.060   4.190   2.389
  600TIP3   OH2 1763   4.626   5.622   4.451
  600TIP3    H1 1764   4.635   5.716   4.467
  600TIP3    H2 1765   4.595   5.616   4.361
  601TIP3   OH2 1766   0.702   0.741   5.447
  601TIP3    H1 1767   0.782   0.759   5.497
  601TIP3    H2 1768   0.634   0.733   5.513
  602TIP3   OH2 1769   2.167   5.171   3.136
  602TIP3    H1 1770   2.144   5.263   3.123
  602TIP3    H2 1771   2.260   5.167   3.113
  603TIP3   OH2 1772   4.848   6.784   5.435
  603TIP3    H1 1773   4.931   6.736   5.433
  603TIP3    H2 1774   4.817   6.783   5.345
  604TIP3   OH2 1775   5.791   5.343   1.489
  604TIP3    H1 1776   5.849   5.325   1.563
  604TIP3    H2 1777   5.729   5.408   1.522
  605TIP3   OH2 1778   6.554   3.705   3.321
  605TIP3    H1 1779   6.507   3.766   3.377
  605TIP3    H2 1780   6.488   3.642   3.293
  606TIP3   OH2 1781   0.442   3.446   0.111
  606TIP3    H1 1782   0.474   3.403   0.190
  606TIP3    H2 1783   0.425   3.375   0.049
  607TIP3   OH2 1784   0.309   2.057   0.950
  607TIP3    H1 1785   0.347   1.975   0.918
  607TIP3    H2 1786   0.295   2.043   1.044
  608TIP3   OH2 1787   3.812   2.392   1.996
  608TIP3    H1 1788   3.791   2.397   2.089
  608TIP3    H2 1789   3.786   2.477   1.961
  609TIP3   OH2 1790   4.182   4.971   5.006
  609TIP3    H1 1791   4.201   4.927   4.924
  609TIP3    H2 1792   4.266   4.977   5.051
  610TIP3   OH2 1793   4.057   1.361   1.759
  610TIP3    H1 1794   4.108   1.346   1.680
  610TIP3    H2 1795   4.042   1.456   1.761
  611TIP3   OH2 1796   5.501   1.874   0.639
  611TIP3    H1 1797   5.525   1.964   0.616
  611TIP3    H2 1798   5.575   1.822   0.609
  612TIP3   OH2 1799   0.313   2.670   3.776
  612TIP3    H1 1800   0.282   2.760   3.778
  612TIP3    H2 1801   0.362   2.659   3.858
  613TIP3   OH2 1802   4.795   5.911   1.974
  613TIP3    H1 1803   4.755   5.983   1.926
  613TIP3    H2 1804   4.830   5.951   2.053
  614TIP3   OH2 1805   4.218   2.569   4.877
  614TIP3    H1 1806   4.286   2.502   4.884
  614TIP3    H2 1807   4.267   2.652   4.875
  615TIP3   OH2 1808   4.209   3.304   1.947
  615TIP3    H1 1809   4.283   3.301   1.886
  615TIP3    H2 1810   4.135   3.330   1.892
  616TIP3   OH2 1811   2.690   4.617   3.635
  616TIP3    H1 1812   2.774   4.615   3.680
  616TIP3    H2 1813   2.682   4.706   3.601
  617TIP3   OH2 1814   2.688   5.229   1.020
  617TIP3    H1 1815   2.728   5.146   1.047
  617TIP3    H2 1816   2.700   5.287   1.096
  618TIP3   OH2 1817   1.094   1.789   0.037
  618TIP3    H1 1818   1.083   1.756   0.126
  618TIP3    H2 1819   1.005   1.808   0.007
  619TIP3   OH2 1820   2.226   3.742   1.868
  619TIP3    H1 1821   2.249   3.663   1.917
  619TIP3    H2 1822   2.307   3.791   1.862
  620TIP3   OH2 1823   4.310   4.330   4.530
  620TIP3    H1 1824   4.322   4.405   4.472
  620TIP3    H2 1825   4.215   4.319   4.535
  621TIP3   OH2 1826   2.709   3.250   1.078
  621TIP3    H1 1827   2.759   3.325   1.110
  621TIP3    H2 1828   2.623   3.259   1.120
  622TIP3   OH2 1829   4.527   5.980   4.821
  622TIP3    H1 1830   4.474   5.904   4.798
  622TIP3    H2 1831   4.501   6.001   4.910
  623TIP3   OH2 1832   4.816   0.343   3.548
  623TIP3    H1 1833   4.783   0.256   3.572
  623TIP3    H2 1834   4.877   0.326   3.477
  624TIP3   OH2 1835   2.177   5.898   2.537
  624TIP3    H1 1836   2.088   5.864   2.542
  624TIP3    H2 1837   2.197   5.927   2.626
  625TIP3   OH2 1838   1.293   5.824   5.099
  625TIP3    H1 1839   1.334   5.753   5.050
  625TIP3    H2 1840   1.242   5.780   5.167
  626TIP3   OH2 1841   1.131   5.791   2.086
  626TIP3    H1 1842   1.156   5.826   2.001
  626TIP3    H2 1843   1.214   5.772   2.130
  627TIP3   OH2 1844   1.550   3.147   3.656
  627TIP3    H1 1845   1.481   3.081   3.669
  627TIP3    H2 1846   1.631   3.097   3.660
  628TIP3   OH2 1847   5.956   4.396   1.248
  628TIP3    H1 1848   5.928   4.481   1.281
  628TIP3    H2 1849   5.930   4.396   1.156
  629TIP3   OH2 1850   2.518   3.218   1.836
  629TIP3    H1 1851   2.430   3.213   1.799
  629TIP3    H2 1852   2.504   3.224   1.931
  630TIP3   OH2 1853   4.953   1.948   1.379
  630TIP3    H1 1854   4.873   1.995   1.357
  630TIP3    H2 1855   4.960   1.879   1.313
  631TIP3   OH2 1856   6.575   5.061   2.533
  631TIP3    H1 1857   6.580   5.136   2.473
  631TIP3    H2 1858   6.482   5.049   2.549
  632TIP3   OH2 1859   4.467   1.797   1.572
  632TIP3    H1 1860   4.394   1.855   1.553
  632TIP3    H2 1861   4.427   1.722   1.617
  633TIP3   OH2 1862   4.634   4.806   4.848
  633TIP3    H1 1863   4.700   4.872   4.867
  633TIP3    H2 1864   4.645   4.789   4.754
  634TIP3   OH2 1865   4.988   6.550   0.989
  634TIP3    H1 1866   5.063   6.541   1.048
  634TIP3    H2 1867   5.027   6.564   0.902
  635TIP3   OH2 1868   2.275   2.153   4.222
  635TIP3    H1 1869   2.184   2.130   4.242
  635TIP3    H2 1870   2.275   2.249   4.216
  636TIP3   OH2 1871   3.711   1.294   5.219
  636TIP3    H1 1872   3.668   1.209   5.222
  636TIP3    H2 1873   3.719   1.313   5.125
  637TIP3   OH2 1874   6.045   6.251   4.213
  637TIP3    H1 1875   6.035   6.240   4.118
  637TIP3    H2 1876   5.956   6.253   4.247
  638TIP3   OH2 1877   3.417   4.792   4.560
  638TIP3    H1 1878   3.347   4.857   4.550
  638TIP3    H2 1879   3.460   4.790   4.474
  639TIP3   OH2 1880   5.403   5.644   5.810
  639TIP3    H1 1881   5.357   5.722   5.839
  639TIP3    H2 1882   5.487   5.676   5.777
  640TIP3   OH2 1883   3.814   0.949   3.158
  640TIP3    H1 1884   3.778   0.992   3.080
  640TIP3    H2 1885   3.886   0.896   3.124
  641TIP3   OH2 1886   2.967   4.130   5.780
  641TIP3    H1 1887   3.050   4.089   5.757
  641TIP3    H2 1888   2.953   4.196   5.711
  642TIP3   OH2 1889   6.831   3.186   3.423
  642TIP3    H1 1890   6.855   3.242   3.350
  642TIP3    H2 1891   6.786   3.244   3.485
  643TIP3   OH2 1892   0.874   4.731   5.411
  643TIP3    H1 1893   0.851   4.728   5.504
  643TIP3    H2 1894   0.951   4.675   5.403
  644TIP3   OH2 1895   2.157   5.492   1.684
  644TIP3    H1 1896   2.184   5.444   1.762
  644TIP3    H2 1897   2.098   5.560   1.717
  645TIP3   OH2 1898   1.680   5.348   4.487
  645TIP3    H1 1899   1.687   5.419   4.551
  645TIP3    H2 1900   1.589   5.352   4.456
  646TIP3   OH2 1901   0.114   4.925   4.442
  646TIP3    H1 1902   0.080   4.874   4.369
  646TIP3    H2 1903   0.074   4.885   4.520
  647TIP3   OH2 1904   4.178   5.761   0.338
  647TIP3    H1 1905   4.256   5.709   0.359
  647TIP3    H2 1906   4.182   5.772   0.243
  648TIP3   OH2 1907   3.663   3.245   0.283
  648TIP3    H1 1908   3.647   3.240   0.189
  648TIP3    H2 1909   3.675   3.339   0.301
  649TIP3   OH2 1910   3.854   3.685   5.348
  649TIP3    H1 1911   3.885   3.667   5.437
  649TIP3    H2 1912   3.851   3.780   5.343
  650TIP3   OH2 1913   2.906   2.200   0.718
  650TIP3    H1 1914   2.865   2.164   0.797
  650TIP3    H2 1915   2.834   2.206   0.655
  651TIP3   OH2 1916   5.397   6.394   2.737
  651TIP3    H1 1917   5.348   6.343   2.673
  651TIP3    H2 1918   5.457   6.448   2.686
  652TIP3   OH2 1919   5.403   3.694   4.617
  652TIP3    H1 1920   5.390   3.610   4.572
  652TIP3    H2 1921   5.476   3.735   4.571
  653TIP3   OH2 1922   0.307   4.173   0.408
  653TIP3    H1 1923   0.362   4.095   0.412
  653TIP3    H2 1924   0.344   4.224   0.335
  654TIP3   OH2 1925   0.348   6.105   3.334
  654TIP3    H1 1926   0.253   6.114   3.335
  654TIP3    H2 1927   0.380   6.189   3.368
  655TIP3   OH2 1928   4.094   0.223   0.713
  655TIP3    H1 1929   4.109   0.141   0.760
  655TIP3    H2 1930   4.005   0.215   0.679
  656TIP3   OH2 1931   0.078   1.678   1.959
  656TIP3    H1 1932   0.172   1.658   1.960
  656TIP3    H2 1933   0.060   1.703   1.869
  657TIP3   OH2 1934   4.040   4.100   1.120
  657TIP3    H1 1935   4.118   4.154   1.104
  657TIP3    H2 1936   4.054   4.021   1.066
  658TIP3   OH2 1937   4.185   5.269   4.501
  658TIP3    H1 1938   4.221   5.274   4.590
  658TIP3    H2 1939   4.096   5.233   4.514
  659TIP3   OH2 1940   0.188   0.088   4.358
  659TIP3    H1 1941   0.111   0.144   4.371
  659TIP3    H2 1942   0.152   0.001   4.342
  660TIP3   OH2 1943   2.142   4.779   3.351
  660TIP3    H1 1944   2.112   4.780   3.442
  660TIP3    H2 1945   2.238   4.778   3.357
  661TIP3   OH2 1946   3.652   4.757   1.048
  661TIP3    H1 1947   3.699   4.803   0.977
  661TIP3    H2 1948   3.597   4.825   1.087
  662TIP3   OH2 1949   2.190   6.524   2.568
  662TIP3    H1 1950   2.186   6.562   2.656
  662TIP3    H2 1951   2.137   6.445   2.574
  663TIP3   OH2 1952   1.110   5.970   1.555
  663TIP3    H1 1953   1.179   6.036   1.550
  663TIP3    H2 1954   1.064   5.977   1.471
  664TIP3   OH2 1955   2.963   4.309   1.205
  664TIP3    H1 1956   2.929   4.340   1.289
  664TIP3    H2 1957   2.907   4.235   1.183
  665TIP3   OH2 1958   3.834   1.529   4.393
  665TIP3    H1 1959   3.852   1.622   4.378
  665TIP3    H2 1960   3.742   1.526   4.420
  666TIP3   OH2 1961   6.465   3.522   2.779
  666TIP3    H1 1962   6.470   3.583   2.853
  666TIP3    H2 1963   6.474   3.577   2.701
  667TIP3   OH2 1964   5.838   5.404   2.769
  667TIP3    H1 1965   5.822   5.310   2.771
  667TIP3    H2 1966   5.915   5.417   2.824
  668TIP3   OH2 1967   0.535   5.410   1.019
  668TIP3    H1 1968   0.561   5.466   1.092
  668TIP3    H2 1969   0.606   5.419   0.955
  669TIP3   OH2 1970   4.589   5.298   0.128
  669TIP3    H1 1971   4.620   5.386   0.105
  669TIP3    H2 1972   4.663   5.259   0.175
  670TIP3   OH2 1973   2.703   4.723   3.205
  670TIP3    H1 1974   2.676   4.737   3.114
  670TIP3    H2 1975   2.729   4.810   3.235
  671TIP3   OH2 1976   0.192   6.128   5.253
  671TIP3    H1 1977   0.232   6.119   5.166
  671TIP3    H2 1978   0.100   6.107   5.239
  672TIP3   OH2 1979   2.297   3.893   3.241
  672TIP3    H1 1980   2.353   3.821   3.268
  672TIP3    H2 1981   2.242   3.856   3.172
  673TIP3   OH2 1982   5.109   0.189   2.076
  673TIP3    H1 1983   5.141   0.255   2.014
  673TIP3    H2 1984   5.031   0.154   2.034
  674TIP3   OH2 1985   3.939   4.326   5.011
  674TIP3    H1 1986   4.025   4.295   4.981
  674TIP3    H2 1987   3.944   4.421   5.006
  675TIP3   OH2 1988   1.151   1.352   3.382
  675TIP3    H1 1989   1.227   1.307   3.420
  675TIP3    H2 1990   1.090   1.282   3.360
  676TIP3   OH2 1991   1.304   5.764   3.605
  676TIP3    H1 1992   1.321   5.671   3.615
  676TIP3    H2 1993   1.279   5.774   3.513
  677TIP3   OH2 1994   1.260   5.728   4.664
  677TIP3    H1 1995   1.338   5.686   4.627
  677TIP3    H2 1996   1.188   5.668   4.642
  678TIP3   OH2 1997   0.323   4.766   5.165
  678TIP3    H1 1998   0.286   4.842   5.211
  678TIP3    H2 1999   0.257   4.697   5.177
  679TIP3   OH2 2000   0.792   5.993   5.875
  679TIP3    H1 2001   0.856   5.949   5.820
  679TIP3    H2 2002   0.730   6.032   5.813
  680TIP3   OH2 2003   1.793   5.500   5.164
  680TIP3    H1 2004   1.732   5.437   5.126
  680TIP3    H2 2005   1.773   5.500   5.257
  681TIP3   OH2 2006   2.284   2.007   1.941
  681TIP3    H1 2007   2.211   1.953   1.972
  681TIP3    H2 2008   2.267   2.018   1.848
  682TIP3   OH2 2009   4.626   3.094   3.054
  682TIP3    H1 2010   4.683   3.135   2.990
  682TIP3    H2 2011   4.671   3.012   3.077
  683TIP3   OH2 2012   6.448   2.493   2.724
  683TIP3    H1 2013   6.361   2.503   2.685
  683TIP3    H2 2014   6.482   2.582   2.730
  684TIP3   OH2 2015   6.878   2.194   1.242
  684TIP3    H1 2016   6.860   2.104   1.215
  684TIP3    H2 2017   6.948   2.223   1.183
  685TIP3   OH2 2018   4.233   6.498   4.803
  685TIP3    H1 2019   4.246   6.550   4.883
  685TIP3    H2 2020   4.300   6.530   4.743
  686TIP3   OH2 2021   6.294   2.642   0.714
  686TIP3    H1 2022   6.309   2.722   0.663
  686TIP3    H2 2023   6.198   2.634   0.717
  687TIP3   OH2 2024   2.859   4.323   5.056
  687TIP3    H1 2025   2.940   4.366   5.085
  687TIP3    H2 2026   2.820   4.386   4.995
  688TIP3   OH2 2027   1.762   0.306   3.732
  688TIP3    H1 2028   1.811   0.258   3.665
  688TIP3    H2 2029   1.676   0.265   3.732
  689TIP3   OH2 2030   0.727   4.728   0.336
  689TIP3    H1 2031   0.693   4.757   0.421
  689TIP3    H2 2032   0.654   4.682   0.295
  690TIP3   OH2 2033   3.626   1.942   5.059
  690TIP3    H1 2034   3.533   1.927   5.043
  690TIP3    H2 2035   3.639   1.919   5.151
  691TIP3   OH2 2036   2.364   6.689   0.068
  691TIP3    H1 2037   2.382   6.630   0.142
  691TIP3    H2 2038   2.334   6.631  -0.002
  692TIP3   OH2 2039   3.396   0.356   4.197
  692TIP3    H1 2040   3.488   0.382   4.194
  692TIP3    H2 2041   3.362   0.378   4.111
  693TIP3   OH2 2042   4.386   4.008   3.974
  693TIP3    H1 2043   4.308   4.039   4.022
  693TIP3    H2 2044   4.369   4.032   3.883
  694TIP3   OH2 2045   2.817   1.580   2.742
  694TIP3    H1 2046   2.740   1.573   2.797
  694TIP3    H2 2047   2.787   1.626   2.663
  695TIP3   OH2 2048   0.727   0.268   3.100
  695TIP3    H1 2049   0.744   0.328   3.027
  695TIP3    H2 2050   0.646   0.300   3.139
  696TIP3   OH2 2051   4.927   6.079   5.402
  696TIP3    H1 2052   5.004   6.134   5.416
  696TIP3    H2 2053   4.957   6.010   5.343
  697TIP3   OH2 2054   3.947   2.740   3.021
  697TIP3    H1 2055   4.023   2.788   2.990
  697TIP3    H2 2056   3.961   2.731   3.116
  698TIP3   OH2 2057   1.573   6.554   0.258
  698TIP3    H1 2058   1.557   6.546   0.164
  698TIP3    H2 2059   1.499   6.509   0.298
  699TIP3   OH2 2060   5.426   6.742   2.651
  699TIP3    H1 2061   5.353   6.680   2.654
  699TIP3    H2 2062   5.502   6.688   2.628
  700TIP3   OH2 2063   5.606   1.631   3.898
  700TIP3    H1 2064   5.601   1.535   3.903
  700TIP3    H2 2065   5.516   1.658   3.876
  701TIP3   OH2 2066   4.197   6.553   5.116
  701TIP3    H1 2067   4.138   6.622   5.147
  701TIP3    H2 2068   4.167   6.474   5.162
  702TIP3   OH2 2069   0.617   4.729   4.605
  702TIP3    H1 2070   0.562   4.807   4.610
  702TIP3    H2 2071   0.564   4.665   4.557
  703TIP3   OH2 2072   3.930   5.455   5.382
  703TIP3    H1 2073   3.980   5.396   5.439
  703TIP3    H2 2074   3.898   5.523   5.441
  704TIP3   OH2 2075   3.967   6.508   2.555
  704TIP3    H1 2076   4.002   6.456   2.628
  704TIP3    H2 2077   3.999   6.597   2.571
  705TIP3   OH2 2078   1.938   6.047   2.454
  705TIP3    H1 2079   1.884   5.969   2.466
  705TIP3    H2 2080   1.967   6.042   2.363
  706TIP3   OH2 2081   4.069   0.517   0.435
  706TIP3    H1 2082   4.129   0.498   0.363
  706TIP3    H2 2083   3.983   0.489   0.404
  707TIP3   OH2 2084   6.282   3.476   4.714
  707TIP3    H1 2085   6.238   3.513   4.638
  707TIP3    H2 2086   6.375   3.479   4.693
  708TIP3   OH2 2087   0.727   2.941   5.336
  708TIP3    H1 2088   0.774   3.006   5.284
  708TIP3    H2 2089   0.636   2.949   5.306
  709TIP3   OH2 2090   3.487   6.121   5.829
  709TIP3    H1 2091   3.521   6.035   5.805
  709TIP3    H2 2092   3.401   6.102   5.868
  710TIP3   OH2 2093   3.274   3.976   0.630
  710TIP3    H1 2094   3.246   3.957   0.541
  710TIP3    H2 2095   3.353   4.029   0.620
  711TIP3   OH2 2096   1.199   4.109   5.769
  711TIP3    H1 2097   1.111   4.145   5.752
  711TIP3    H2 2098   1.187   4.051   5.844
  712TIP3   OH2 2099   0.901   1.095   2.583
  712TIP3    H1 2100   0.948   1.035   2.525
  712TIP3    H2 2101   0.809   1.082   2.562
  713TIP3   OH2 2102   4.834   6.709   4.815
  713TIP3    H1 2103   4.907   6.681   4.760
  713TIP3    H2 2104   4.838   6.805   4.814
  714TIP3   OH2 2105   6.493   4.891   3.728
  714TIP3    H1 2106   6.552   4.931   3.664
  714TIP3    H2 2107   6.539   4.901   3.812
  715TIP3   OH2 2108   2.382   2.399   4.813
  715TIP3    H1 2109   2.383   2.454   4.891
  715TIP3    H2 2110   2.293   2.406   4.779
  716TIP3   OH2 2111   1.217   1.572   3.032
  716TIP3    H1 2112   1.290   1.586   3.092
  716TIP3    H2 2113   1.219   1.478   3.013
  717TIP3   OH2 2114   5.923   0.116   1.018
  717TIP3    H1 2115   5.921   0.167   1.099
  717TIP3    H2 2116   5.993   0.052   1.032
  718TIP3   OH2 2117   5.063   0.554   2.677
  718TIP3    H1 2118   5.022   0.484   2.626
  718TIP3    H2 2119   5.089   0.619   2.611
  719TIP3   OH2 2120   6.012   3.173   5.300
  719TIP3    H1 2121   6.021   3.252   5.352
  719TIP3    H2 2122   5.969   3.203   5.219
  720TIP3   OH2 2123   2.031   3.811   1.619
  720TIP3    H1 2124   2.114   3.783   1.657
  720TIP3    H2 2125   2.043   3.905   1.601
  721TIP3   OH2 2126   0.506   3.399   0.555
  721TIP3    H1 2127   0.471   3.341   0.622
  721TIP3    H2 2128   0.536   3.476   0.603
  722TIP3   OH2 2129   4.023   4.273   4.141
  722TIP3    H1 2130   4.109   4.237   4.165
  722TIP3    H2 2131   4.037   4.368   4.140
  723TIP3   OH2 2132   3.234   0.328   1.106
  723TIP3    H1 2133   3.268   0.242   1.079
  723TIP3    H2 2134   3.186   0.360   1.030
  724TIP3   OH2 2135   6.627   5.656   2.497
  724TIP3    H1 2136   6.534   5.674   2.485
  724TIP3    H2 2137   6.646   5.686   2.586
  725TIP3   OH2 2138   3.131   1.299   5.118
  725TIP3    H1 2139   3.040   1.325   5.104
  725TIP3    H2 2140   3.150   1.327   5.207
  726TIP3   OH2 2141   4.122   2.961   4.378
  726TIP3    H1 2142   4.170   2.929   4.302
  726TIP3    H2 2143   4.191   2.983   4.441
  727TIP3   OH2 2144   4.451   3.534   0.112
  727TIP3    H1 2145   4.477   3.611   0.163
  727TIP3    H2 2146   4.368   3.559   0.071
  728TIP3   OH2 2147   5.858   6.409   5.625
  728TIP3    H1 2148   5.857   6.452   5.711
  728TIP3    H2 2149   5.819   6.474   5.566
  729TIP3   OH2 2150   1.825   5.786   2.481
  729TIP3    H1 2151   1.846   5.727   2.408
  729TIP3    H2 2152   1.734   5.812   2.465
  730TIP3   OH2 2153   4.757   5.932   4.129
  730TIP3    H1 2154   4.793   5.897   4.047
  730TIP3    H2 2155   4.722   6.018   4.104
  731TIP3   OH2 2156   0.674   0.428   5.784
  731TIP3    H1 2157   0.588   0.471   5.782
  731TIP3    H2 2158   0.716   0.461   5.863
  732TIP3   OH2 2159   5.849   5.780   3.829
  732TIP3    H1 2160   5.797   5.796   3.908
  732TIP3    H2 2161   5.786   5.789   3.758
  733TIP3   OH2 2162   6.344   0.427   5.217
  733TIP3    H1 2163   6.282   0.489   5.180
  733TIP3    H2 2164   6.419   0.428   5.157
  734TIP3   OH2 2165   0.087   0.054  -0.043
  734TIP3    H1 2166   0.026   0.090   0.022
  734TIP3    H2 2167   0.174   0.066  -0.004
  735TIP3   OH2 2168   4.003   3.754   3.669
  735TIP3    H1 2169   4.092   3.721   3.684
  735TIP3    H2 2170   3.950   3.713   3.737
  736TIP3   OH2 2171   5.549   3.433   1.560
  736TIP3    H1 2172   5.539   3.522   1.527
  736TIP3    H2 2173   5.466   3.391   1.542
  737TIP3   OH2 2174   7.109   3.040   4.637
  737TIP3    H1 2175   7.201   3.016   4.647
  737TIP3    H2 2176   7.097   3.054   4.543
  738TIP3   OH2 2177   0.885   0.204   0.761
  738TIP3    H1 2178   0.962   0.260   0.761
  738TIP3    H2 2179   0.846   0.216   0.675
  739TIP3   OH2 2180   2.812   1.837   0.567
  739TIP3    H1 2181   2.776   1.925   0.562
  739TIP3    H2 2182   2.873   1.832   0.493
  740TIP3   OH2 2183   3.247   1.251   1.711
  740TIP3    H1 2184   3.316   1.198   1.752
  740TIP3    H2 2185   3.174   1.246   1.772
  741TIP3   OH2 2186   4.353   2.951   1.284
  741TIP3    H1 2187   4.415   2.885   1.253
  741TIP3    H2 2188   4.302   2.906   1.352
  742TIP3   OH2 2189   6.470   2.942   3.575
  742TIP3    H1 2190   6.541   2.893   3.616
  742TIP3    H2 2191   6.501   2.961   3.487
  743TIP3   OH2 2192   6.148   3.006   5.849
  743TIP3    H1 2193   6.079   2.961   5.897
  743TIP3    H2 2194   6.102   3.051   5.778
  744TIP3   OH2 2195   5.437   5.946   1.975
  744TIP3    H1 2196   5.375   5.974   2.042
  744TIP3    H2 2197   5.385   5.895   1.913
  745TIP3   OH2 2198   5.127   2.576   5.740
  745TIP3    H1 2199   5.093   2.637   5.675
  745TIP3    H2 2200   5.053   2.562   5.800
  746TIP3   OH2 2201   5.305   5.946   2.242
  746TIP3    H1 2202   5.323   5.883   2.312
  746TIP3    H2 2203   5.226   5.912   2.199
  747TIP3   OH2 2204   0.699   2.282   0.159
  747TIP3    H1 2205   0.692   2.244   0.246
  747TIP3    H2 2206   0.793   2.299   0.148
  748TIP3   OH2 2207   4.162   2.459   1.822
  748TIP3    H1 2208   4.146   2.455   1.916
  748TIP3    H2 2209   4.258   2.464   1.815
  749TIP3   OH2 2210   4.387   1.443   4.843
  749TIP3    H1 2211   4.398   1.502   4.768
  749TIP3    H2 2212   4.317   1.383   4.815
  750TIP3   OH2 2213   2.985   5.669   2.886
  750TIP3    H1 2214   3.047   5.741   2.897
  750TIP3    H2 2215   3.023   5.615   2.817
  751TIP3   OH2 2216   3.646   6.692   1.082
  751TIP3    H1 2217   3.578   6.630   1.107
  751TIP3    H2 2218   3.716   6.638   1.046
  752TIP3   OH2 2219   1.648   2.965   2.795
  752TIP3    H1 2220   1.742   2.976   2.800
  752TIP3    H2 2221   1.632   2.876   2.828
  753TIP3   OH2 2222   1.883   3.993   5.220
  753TIP3    H1 2223   1.794   4.023   5.198
  753TIP3    H2 2224   1.918   4.061   5.277
  754TIP3   OH2 2225   0.847   4.848   4.540
  754TIP3    H1 2226   0.861   4.934   4.579
  754TIP3    H2 2227   0.763   4.818   4.576
  755TIP3   OH2 2228   6.858   0.730   1.446
  755TIP3    H1 2229   6.811   0.809   1.475
  755TIP3    H2 2230   6.829   0.662   1.506
  756TIP3   OH2 2231   4.042   4.527   2.483
  756TIP3    H1 2232   3.996   4.607   2.458
  756TIP3    H2 2233   3.975   4.471   2.522
  757TIP3   OH2 2234   5.827   3.247   4.422
  757TIP3    H1 2235   5.790   3.192   4.353
  757TIP3    H2 2236   5.792   3.210   4.503
  758TIP3   OH2 2237   5.201   0.613   5.041
  758TIP3    H1 2238   5.157   0.697   5.031
  758TIP3    H2 2239   5.149   0.567   5.108
  759TIP3   OH2 2240   3.095   3.018   4.171
  759TIP3    H1 2241   3.122   2.935   4.132
  759TIP3    H2 2242   3.083   2.998   4.264
  760TIP3   OH2 2243   6.583   2.022   2.101
  760TIP3    H1 2244   6.630   2.070   2.033
  760TIP3    H2 2245   6.563   2.087   2.168
  761TIP3   OH2 2246   5.236   6.635   4.009
  761TIP3    H1 2247   5.186   6.629   4.090
  761TIP3    H2 2248   5.196   6.708   3.961
  762TIP3   OH2 2249   4.849   3.624   4.605
  762TIP3    H1 2250   4.852   3.720   4.602
  762TIP3    H2 2251   4.767   3.605   4.650
  763TIP3   OH2 2252   3.523   4.341   4.407
  763TIP3    H1 2253   3.518   4.328   4.502
  763TIP3    H2 2254   3.617   4.340   4.388
  764TIP3   OH2 2255   6.651   5.172   2.269
  764TIP3    H1 2256   6.697   5.166   2.185
  764TIP3    H2 2257   6.633   5.266   2.279
  765TIP3   OH2 2258   2.945   6.790   1.041
  765TIP3    H1 2259   2.911   6.776   0.953
  765TIP3    H2 2260   2.999   6.713   1.059
  766TIP3   OH2 2261   2.548   5.418   0.163
  766TIP3    H1 2262   2.640   5.443   0.156
  766TIP3    H2 2263   2.547   5.324   0.144
  767TIP3   OH2 2264   5.781   1.717   3.694
  767TIP3    H1 2265   5.799   1.811   3.689
  767TIP3    H2 2266   5.743   1.704   3.781
  768TIP3   OH2 2267   1.267   3.530   5.256
  768TIP3    H1 2268   1.289   3.489   5.172
  768TIP3    H2 2269   1.247   3.457   5.314
  769TIP3   OH2 2270   2.780   6.488   0.160
  769TIP3    H1 2271   2.700   6.460   0.116
  769TIP3    H2 2272   2.831   6.532   0.092
  770TIP3   OH2 2273   2.349   0.871   3.822
  770TIP3    H1 2274   2.315   0.937   3.762
  770TIP3    H2 2275   2.274   0.814   3.840
  771TIP3   OH2 2276   4.290   6.225   4.286
  771TIP3    H1 2277   4.240   6.229   4.205
  771TIP3    H2 2278   4.321   6.315   4.300
  772TIP3   OH2 2279   5.809   0.874   5.128
  772TIP3    H1 2280   5.831   0.967   5.121
  772TIP3    H2 2281   5.714   0.871   5.116
  773TIP3   OH2 2282   2.862   1.098   4.900
  773TIP3    H1 2283   2.930   1.098   4.832
  773TIP3    H2 2284   2.856   1.189   4.928
  774TIP3   OH2 2285   6.446   1.469   1.576
  774TIP3    H1 2286   6.421   1.383   1.541
  774TIP3    H2 2287   6.364   1.506   1.609
  775TIP3   OH2 2288   7.197   6.539   5.652
  775TIP3    H1 2289   7.141   6.465   5.629
  775TIP3    H2 2290   7.285   6.502   5.657
  776TIP3   OH2 2291   0.926   1.274   1.514
  776TIP3    H1 2292   0.840   1.315   1.524
  776TIP3    H2 2293   0.919   1.225   1.431
  777TIP3   OH2 2294   5.683   5.289   5.289
  777TIP3    H1 2295   5.776   5.299   5.310
  777TIP3    H2 2296   5.655   5.214   5.341
  778TIP3   OH2 2297   4.016   3.965   4.780
  778TIP3    H1 2298   3.975   3.926   4.856
  778TIP3    H2 2299   3.951   4.027   4.746
  779TIP3   OH2 2300   6.812   5.343   0.384
  779TIP3    H1 2301   6.735   5.324   0.439
  779TIP3    H2 2302   6.864   5.403   0.436
  780TIP3   OH2 2303   1.914   3.485   2.427
  780TIP3    H1 2304   1.855   3.499   2.353
  780TIP3    H2 2305   1.995   3.455   2.387
  781TIP3   OH2 2306   4.238   3.578   5.485
  781TIP3    H1 2307   4.304   3.542   5.426
  781TIP3    H2 2308   4.272   3.560   5.573
  782TIP3   OH2 2309   3.454   3.158   3.302
  782TIP3    H1 2310   3.500   3.217   3.242
  782TIP3    H2 2311   3.478   3.191   3.389
  783TIP3   OH2 2312   0.094   0.158   0.414
  783TIP3    H1 2313   0.183   0.165   0.380
  783TIP3    H2 2314   0.100   0.185   0.505
  784TIP3   OH2 2315   2.930   0.150   2.915
  784TIP3    H1 2316   2.882   0.130   2.995
  784TIP3    H2 2317   3.020   0.164   2.943
  785TIP3   OH2 2318   6.846   2.258   1.846
  785TIP3    H1 2319   6.896   2.202   1.905
  785TIP3    H2 2320   6.904   2.331   1.826
  786TIP3   OH2 2321   1.118   1.914   5.789
  786TIP3    H1 2322   1.112   1.888   5.697
  786TIP3    H2 2323   1.210   1.933   5.803
  787TIP3   OH2 2324   3.925   2.502   2.894
  787TIP3    H1 2325   3.943   2.532   2.806
  787TIP3    H2 2326   3.951   2.574   2.951
  788TIP3   OH2 2327   6.933   1.643   0.757
  788TIP3    H1 2328   6.951   1.697   0.834
  788TIP3    H2 2329   6.849   1.602   0.775
  789TIP3   OH2 2330   4.592   5.097   1.739
  789TIP3    H1 2331   4.587   5.009   1.701
  789TIP3    H2 2332   4.576   5.156   1.665
  790TIP3   OH2 2333   1.573   6.180   2.823
  790TIP3    H1 2334   1.533   6.261   2.853
  790TIP3    H2 2335   1.656   6.206   2.784
  791TIP3   OH2 2336   1.763   4.838   3.067
  791TIP3    H1 2337   1.733   4.870   2.982
  791TIP3    H2 2338   1.818   4.763   3.045
  792TIP3   OH2 2339   4.780   1.852   2.883
  792TIP3    H1 2340   4.693   1.872   2.917
  792TIP3    H2 2341   4.815   1.785   2.942
  793TIP3   OH2 2342   3.742   6.415   0.061
  793TIP3    H1 2343   3.816   6.360   0.087
  793TIP3    H2 2344   3.688   6.422   0.139
  794TIP3   OH2 2345   5.694   0.819   1.003
  794TIP3    H1 2346   5.779   0.802   0.961
  794TIP3    H2 2347   5.717   0.856   1.088
  795TIP3   OH2 2348   1.578   2.190   1.293
  795TIP3    H1 2349   1.571   2.164   1.201
  795TIP3    H2 2350   1.647   2.134   1.329
  796TIP3   OH2 2351   0.165   2.991   3.450
  796TIP3    H1 2352   0.234   3.002   3.515
  796TIP3    H2 2353   0.088   3.029   3.491
  797TIP3   OH2 2354   4.735   4.290   3.444
  797TIP3    H1 2355   4.724   4.253   3.531
  797TIP3    H2 2356   4.753   4.383   3.459
  798TIP3   OH2 2357   1.883   2.801  -0.004
  798TIP3    H1 2358   1.863   2.866   0.063
  798TIP3    H2 2359   1.797   2.765  -0.030
  799TIP3   OH2 2360   6.385   3.538   1.505
  799TIP3    H1 2361   6.350   3.624   1.481
  799TIP3    H2 2362   6.318   3.476   1.475
  800TIP3   OH2 2363   4.121   6.651   0.886
  800TIP3    H1 2364   4.216   6.652   0.897
  800TIP3    H2 2365   4.099   6.559   0.875
  801TIP3   OH2 2366   1.429   5.843   5.380
  801TIP3    H1 2367   1.456   5.772   5.322
  801TIP3    H2 2368   1.346   5.873   5.344
  802TIP3   OH2 2369   5.165   4.052   0.044
  802TIP3    H1 2370   5.198   4.089  -0.038
  802TIP3    H2 2371   5.190   4.115   0.111
  803TIP3   OH2 2372   1.925   6.616   4.721
  803TIP3    H1 2373   1.989   6.657   4.662
  803TIP3    H2 2374   1.845   6.667   4.709
  804TIP3   OH2 2375   6.668   4.749   3.939
  804TIP3    H1 2376   6.696   4.838   3.960
  804TIP3    H2 2377   6.735   4.716   3.880
  805TIP3   OH2 2378   4.938   4.607   3.080
  805TIP3    H1 2379   4.843   4.604   3.067
  805TIP3    H2 2380   4.974   4.559   3.005
  806TIP3   OH2 2381   1.194   6.091   0.570
  806TIP3    H1 2382   1.250   6.014   0.570
  806TIP3    H2 2383   1.155   6.092   0.482
  807TIP3   OH2 2384   5.897   6.721   1.785
  807TIP3    H1 2385   5.945   6.802   1.806
  807TIP3    H2 2386   5.933   6.693   1.701
  808TIP3   OH2 2387   2.833   1.982   4.352
  808TIP3    H1 2388   2.764   1.930   4.394
  808TIP3    H2 2389   2.830   1.956   4.260
  809TIP3   OH2 2390   3.541   6.508   3.622
  809TIP3    H1 2391   3.544   6.434   3.683
  809TIP3    H2 2392   3.450   6.538   3.626
  810TIP3   OH2 2393   0.130   5.111   4.100
  810TIP3    H1 2394   0.046   5.096   4.144
  810TIP3    H2 2395   0.194   5.065   4.154
  811TIP3   OH2 2396   2.825   5.117   2.797
  811TIP3    H1 2397   2.853   5.083   2.882
  811TIP3    H2 2398   2.905   5.151   2.757
  812TIP3   OH2 2399   4.785   1.885   2.577
  812TIP3    H1 2400   4.803   1.797   2.542
  812TIP3    H2 2401   4.767   1.870   2.670
  813TIP3   OH2 2402   0.160   0.318   0.645
  813TIP3    H1 2403   0.217   0.242   0.656
  813TIP3    H2 2404   0.204   0.388   0.695
  814TIP3   OH2 2405   2.670   2.217   0.582
  814TIP3    H1 2406   2.617   2.158   0.529
  814TIP3    H2 2407   2.607   2.278   0.621
  815TIP3   OH2 2408   0.934   1.823   5.313
  815TIP3    H1 2409   0.862   1.844   5.254
  815TIP3    H2 2410   0.961   1.735   5.287
  816TIP3   OH2 2411   0.794   5.173   4.146
  816TIP3    H1 2412   0.810   5.135   4.060
  816TIP3    H2 2413   0.801   5.099   4.207
  817TIP3   OH2 2414   4.066   1.286   3.069
  817TIP3    H1 2415   4.129   1.286   3.141
  817TIP3    H2 2416   4.119   1.268   2.990
  818TIP3   OH2 2417   0.595   2.061   0.026
  818TIP3    H1 2418   0.622   2.134   0.082
  818TIP3    H2 2419   0.500   2.074   0.016
  819TIP3   OH2 2420   5.489   5.747   5.034
  819TIP3    H1 2421   5.504   5.808   4.962
  819TIP3    H2 2422   5.558   5.765   5.097
  820TIP3   OH2 2423   3.376   2.383   2.479
  820TIP3    H1 2424   3.301   2.431   2.513
  820TIP3    H2 2425   3.452   2.435   2.506
  821TIP3   OH2 2426   0.093   3.931   2.651
  821TIP3    H1 2427   0.033   3.959   2.720
  821TIP3    H2 2428   0.072   3.987   2.577
  822TIP3   OH2 2429   0.990   5.596   1.951
  822TIP3    H1 2430   1.044   5.521   1.925
  822TIP3    H2 2431   1.035   5.632   2.027
  823TIP3   OH2 2432   3.372   6.598   4.344
  823TIP3    H1 2433   3.435   6.526   4.342
  823TIP3    H2 2434   3.377   6.637   4.257
  824TIP3   OH2 2435   4.386   3.086   2.473
  824TIP3    H1 2436   4.366   3.000   2.509
  824TIP3    H2 2437   4.374   3.076   2.379
  825TIP3   OH2 2438   2.607   0.431   1.297
  825TIP3    H1 2439   2.644   0.513   1.330
  825TIP3    H2 2440   2.561   0.456   1.217
  826TIP3   OH2 2441   5.290   3.048   3.472
  826TIP3    H1 2442   5.256   3.126   3.516
  826TIP3    H2 2443   5.248   2.975   3.517
  827TIP3   OH2 2444   0.125   6.149   3.871
  827TIP3    H1 2445   0.113   6.166   3.777
  827TIP3    H2 2446   0.097   6.231   3.913
  828TIP3   OH2 2447   2.371   0.938   2.618
  828TIP3    H1 2448   2.295   0.904   2.569
  828TIP3    H2 2449   2.427   0.862   2.632
  829TIP3   OH2 2450   2.169   3.587   4.100
  829TIP3    H1 2451   2.122   3.665   4.072
  829TIP3    H2 2452   2.188   3.602   4.192
  830TIP3   OH2 2453   0.999   5.801   0.392
  830TIP3    H1 2454   0.904   5.793   0.392
  830TIP3    H2 2455   1.029   5.732   0.332
  831TIP3   OH2 2456   2.767   2.869   5.095
  831TIP3    H1 2457   2.855   2.898   5.073
  831TIP3    H2 2458   2.763   2.778   5.067
  832TIP3   OH2 2459   4.326   3.593   0.665
  832TIP3    H1 2460   4.326   3.527   0.734
  832TIP3    H2 2461   4.384   3.662   0.698
  833TIP3   OH2 2462   2.381   0.926   1.194
  833TIP3    H1 2463   2.378   0.991   1.264
  833TIP3    H2 2464   2.452   0.867   1.220
  834TIP3   OH2 2465   0.106   4.329   2.808
  834TIP3    H1 2466   0.159   4.253   2.783
  834TIP3    H2 2467   0.137   4.351   2.896
  835TIP3   OH2 2468   3.857   2.182   3.808
  835TIP3    H1 2469   3.826   2.100   3.770
  835TIP3    H2 2470   3.875   2.238   3.733
  836TIP3   OH2 2471   7.121   4.582   5.173
  836TIP3    H1 2472   7.179   4.541   5.109
  836TIP3    H2 2473   7.057   4.630   5.120
  837TIP3   OH2 2474   0.394   5.085   5.451
  837TIP3    H1 2475   0.342   5.118   5.524
  837TIP3    H2 2476   0.476   5.056   5.490
  838TIP3   OH2 2477   5.665   2.984   4.295
  838TIP3    H1 2478   5.742   2.945   4.337
  838TIP3    H2 2479   5.700   3.026   4.217
  839TIP3   OH2 2480   1.918   3.685   0.185
  839TIP3    H1 2481   2.009   3.674   0.156
  839TIP3    H2 2482   1.916   3.772   0.225
  840TIP3   OH2 2483   0.729   1.317   2.883
  840TIP3    H1 2484   0.797   1.353   2.827
  840TIP3    H2 2485   0.659   1.383   2.881
  841TIP3   OH2 2486   2.726   2.891   1.362
  841TIP3    H1 2487   2.733   2.837   1.441
  841TIP3    H2 2488   2.658   2.955   1.383
  842TIP3   OH2 2489   4.207   0.468   0.198
  842TIP3    H1 2490   4.141   0.514   0.146
  842TIP3    H2 2491   4.232   0.393   0.143
  843TIP3   OH2 2492   7.071   1.805   0.570
  843TIP3    H1 2493   7.011   1.797   0.644
  843TIP3    H2 2494   7.102   1.895   0.573
  844TIP3   OH2 2495   3.225   2.928   3.351
  844TIP3    H1 2496   3.239   2.953   3.260
  844TIP3    H2 2497   3.313   2.923   3.388
  845TIP3   OH2 2498   2.636   6.130   3.177
  845TIP3    H1 2499   2.712   6.177   3.141
  845TIP3    H2 2500   2.629   6.052   3.122
  846TIP3   OH2 2501   6.415   4.136  -0.016
  846TIP3    H1 2502   6.466   4.211  -0.046
  846TIP3    H2 2503   6.465   4.101   0.058
  847TIP3   OH2 2504   3.556   4.022   0.367
  847TIP3    H1 2505   3.601   4.010   0.284
  847TIP3    H2 2506   3.617   3.987   0.432
  848TIP3   OH2 2507   2.472   6.635   2.736
  848TIP3    H1 2508   2.390   6.629   2.785
  848TIP3    H2 2509   2.446   6.636   2.644
  849TIP3   OH2 2510   1.433   4.889   5.501
  849TIP3    H1 2511   1.403   4.824   5.438
  849TIP3    H2 2512   1.379   4.966   5.485
  850TIP3   OH2 2513   6.133   2.692   2.365
  850TIP3    H1 2514   6.154   2.691   2.458
  850TIP3    H2 2515   6.083   2.611   2.351
  851TIP3   OH2 2516   3.997   0.118   4.345
  851TIP3    H1 2517   4.041   0.053   4.290
  851TIP3    H2 2518   3.936   0.068   4.398
  852TIP3   OH2 2519   4.385   1.892   1.255
  852TIP3    H1 2520   4.357   1.970   1.207
  852TIP3    H2 2521   4.328   1.888   1.332
  853TIP3   OH2 2522   3.498   1.111   4.951
  853TIP3    H1 2523   3.528   1.032   4.906
  853TIP3    H2 2524   3.525   1.098   5.042
  854TIP3   OH2 2525   0.344   0.782   2.237
  854TIP3    H1 2526   0.337   0.748   2.326
  854TIP3    H2 2527   0.437   0.773   2.216
  855TIP3   OH2 2528   0.895   4.342   4.923
  855TIP3    H1 2529   0.874   4.365   4.833
  855TIP3    H2 2530   0.983   4.377   4.937
  856TIP3   OH2 2531   6.737   3.873   4.086
  856TIP3    H1 2532   6.782   3.925   4.020
  856TIP3    H2 2533   6.706   3.796   4.039
  857TIP3   OH2 2534   6.242   4.022   0.246
  857TIP3    H1 2535   6.336   4.008   0.234
  857TIP3    H2 2536   6.236   4.103   0.297
  858TIP3   OH2 2537   5.686   4.701   2.615
  858TIP3    H1 2538   5.620   4.742   2.558
  858TIP3    H2 2539   5.698   4.613   2.578
  859TIP3   OH2 2540   3.354   3.094   0.039
  859TIP3    H1 2541   3.383   3.011   0.079
  859TIP3    H2 2542   3.423   3.156   0.061
  860TIP3   OH2 2543   1.440   3.680   3.383
  860TIP3    H1 2544   1.424   3.592   3.352
  860TIP3    H2 2545   1.398   3.683   3.469
  861TIP3   OH2 2546   2.754   5.592   1.474
  861TIP3    H1 2547   2.812   5.647   1.421
  861TIP3    H2 2548   2.811   5.523   1.508
  862TIP3   OH2 2549   3.126   0.508   0.926
  862TIP3    H1 2550   3.204   0.518   0.872
  862TIP3    H2 2551   3.060   0.562   0.883
  863TIP3   OH2 2552   0.147   6.367   3.203
  863TIP3    H1 2553   0.138   6.287   3.254
  863TIP3    H2 2554   0.158   6.436   3.268
  864TIP3   OH2 2555   5.847   5.146   0.524
  864TIP3    H1 2556   5.806   5.061   0.537
  864TIP3    H2 2557   5.923   5.145   0.583
  865TIP3   OH2 2558   2.467   2.030   4.388
  865TIP3    H1 2559   2.392   2.061   4.337
  865TIP3    H2 2560   2.502   1.957   4.338
  866TIP3   OH2 2561   2.247   5.278   2.311
  866TIP3    H1 2562   2.303   5.251   2.239
  866TIP3    H2 2563   2.283   5.235   2.388
  867TIP3   OH2 2564   2.818   5.952   1.402
  867TIP3    H1 2565   2.736   5.905   1.387
  867TIP3    H2 2566   2.819   6.020   1.334
  868TIP3   OH2 2567   1.789   1.548   3.239
  868TIP3    H1 2568   1.744   1.626   3.207
  868TIP3    H2 2569   1.853   1.527   3.171
  869TIP3   OH2 2570   1.642   0.568   1.648
  869TIP3    H1 2571   1.728   0.585   1.610
  869TIP3    H2 2572   1.587   0.641   1.619
  870TIP3   OH2 2573   5.553   2.907   3.033
  870TIP3    H1 2574   5.569   2.939   2.944
  870TIP3    H2 2575   5.598   2.822   3.036
  871TIP3   OH2 2576   0.819   1.044   1.737
  871TIP3    H1 2577   0.789   1.091   1.659
  871TIP3    H2 2578   0.890   0.988   1.704
  872TIP3   OH2 2579   1.422   1.785   2.634
  872TIP3    H1 2580   1.473   1.794   2.554
  872TIP3    H2 2581   1.374   1.702   2.623
  873TIP3   OH2 2582   2.274   1.773   1.443
  873TIP3    H1 2583   2.276   1.700   1.381
  873TIP3    H2 2584   2.283   1.732   1.529
  874TIP3   OH2 2585   7.114   0.196   0.161
  874TIP3    H1 2586   7.087   0.235   0.244
  874TIP3    H2 2587   7.132   0.104   0.182
  875TIP3   OH2 2588   6.717   4.559   4.138
  875TIP3    H1 2589   6.731   4.641   4.090
  875TIP3    H2 2590   6.794   4.506   4.118
  876TIP3   OH2 2591   1.982   2.262   2.665
  876TIP3    H1 2592   1.992   2.347   2.623
  876TIP3    H2 2593   1.966   2.201   2.592
  877TIP3   OH2 2594   3.614   4.956   1.682
  877TIP3    H1 2595   3.679   5.022   1.658
  877TIP3    H2 2596   3.665   4.882   1.712
  878TIP3   OH2 2597   6.381   6.019   4.314
  878TIP3    H1 2598   6.423   5.968   4.245
  878TIP3    H2 2599   6.324   6.080   4.267
  879TIP3   OH2 2600   4.061   3.333   4.674
  879TIP3    H1 2601   4.083   3.244   4.702
  879TIP3    H2 2602   4.079   3.387   4.750
  880TIP3   OH2 2603   0.928   1.523   3.380
  880TIP3    H1 2604   0.999   1.460   3.388
  880TIP3    H2 2605   0.967   1.607   3.401
  881TIP3   OH2 2606   3.574   1.578   4.483
  881TIP3    H1 2607   3.488   1.579   4.439
  881TIP3    H2 2608   3.558   1.620   4.567
  882TIP3   OH2 2609   1.712   3.597   0.557
  882TIP3    H1 2610   1.741   3.587   0.467
  882TIP3    H2 2611   1.620   3.568   0.556
  883TIP3   OH2 2612   3.497   5.924   3.767
  883TIP3    H1 2613   3.571   5.918   3.827
  883TIP3    H2 2614   3.437   5.986   3.808
  884TIP3   OH2 2615   6.373   6.703   0.546
  884TIP3    H1 2616   6.371   6.668   0.635
  884TIP3    H2 2617   6.281   6.721   0.526
  885TIP3   OH2 2618   3.414   1.177   2.737
  885TIP3    H1 2619   3.443   1.109   2.676
  885TIP3    H2 2620   3.496   1.213   2.772
  886TIP3   OH2 2621   4.694   2.244   3.355
  886TIP3    H1 2622   4.712   2.338   3.353
  886TIP3    H2 2623   4.598   2.237   3.352
  887TIP3   OH2 2624   5.964   6.288   4.942
  887TIP3    H1 2625   6.057   6.267   4.939
  887TIP3    H2 2626   5.921   6.203   4.948
  888TIP3   OH2 2627   2.401   3.526   0.687
  888TIP3    H1 2628   2.423   3.433   0.694
  888TIP3    H2 2629   2.307   3.527   0.670
  889TIP3   OH2 2630   0.761   3.983   0.628
  889TIP3    H1 2631   0.747   3.956   0.719
  889TIP3    H2 2632   0.793   3.905   0.584
  890TIP3   OH2 2633   6.735   3.365   0.971
  890TIP3    H1 2634   6.804   3.300   0.983
  890TIP3    H2 2635   6.779   3.449   0.980
  891TIP3   OH2 2636   2.190   1.056   1.699
  891TIP3    H1 2637   2.125   1.051   1.769
  891TIP3    H2 2638   2.266   1.096   1.740
  892TIP3   OH2 2639   5.284   0.278   4.764
  892TIP3    H1 2640   5.251   0.224   4.835
  892TIP3    H2 2641   5.216   0.276   4.697
  893TIP3   OH2 2642   6.450   0.241   0.242
  893TIP3    H1 2643   6.472   0.148   0.235
  893TIP3    H2 2644   6.419   0.252   0.332
  894TIP3   OH2 2645   0.576   3.302   5.225
  894TIP3    H1 2646   0.484   3.276   5.222
  894TIP3    H2 2647   0.585   3.349   5.308
  895TIP3   OH2 2648   6.937   2.211   1.511
  895TIP3    H1 2649   6.976   2.295   1.535
  895TIP3    H2 2650   6.921   2.217   1.417
  896TIP3   OH2 2651   0.335   4.954   4.185
  896TIP3    H1 2652   0.309   4.864   4.208
  896TIP3    H2 2653   0.357   4.949   4.092
  897TIP3   OH2 2654   6.749   6.741   2.270
  897TIP3    H1 2655   6.692   6.671   2.299
  897TIP3    H2 2656   6.801   6.764   2.347
  898TIP3   OH2 2657   1.036   0.107   2.584
  898TIP3    H1 2658   0.964   0.128   2.643
  898TIP3    H2 2659   1.096   0.181   2.590
  899TIP3   OH2 2660   3.317   3.281   0.388
  899TIP3    H1 2661   3.290   3.319   0.305
  899TIP3    H2 2662   3.376   3.210   0.364
  900TIP3   OH2 2663   5.782   4.815   3.026
  900TIP3    H1 2664   5.839   4.856   2.961
  900TIP3    H2 2665   5.746   4.889   3.075
  901TIP3   OH2 2666   2.667   2.225   4.344
  901TIP3    H1 2667   2.733   2.158   4.362
  901TIP3    H2 2668   2.584   2.178   4.348
  902TIP3   OH2 2669   2.795   2.199   1.825
  902TIP3    H1 2670   2.802   2.288   1.788
  902TIP3    H2 2671   2.875   2.155   1.794
  903TIP3   OH2 2672   4.752   4.561   1.191
  903TIP3    H1 2673   4.690   4.620   1.148
  903TIP3    H2 2674   4.707   4.533   1.271
  904TIP3   OH2 2675   2.890   1.364   5.830
  904TIP3    H1 2676   2.836   1.337   5.904
  904TIP3    H2 2677   2.907   1.283   5.781
  905TIP3   OH2 2678   4.641   0.065   4.719
  905TIP3    H1 2679   4.629   0.002   4.790
  905TIP3    H2 2680   4.735   0.061   4.700
  906TIP3   OH2 2681   4.038   4.287   4.605
  906TIP3    H1 2682   4.029   4.313   4.697
  906TIP3    H2 2683   3.954   4.247   4.583
  907TIP3   OH2 2684   1.365   5.212   4.693
  907TIP3    H1 2685   1.446   5.248   4.657
  907TIP3    H2 2686   1.346   5.136   4.639
  908TIP3   OH2 2687   4.622   5.264   5.038
  908TIP3    H1 2688   4.637   5.317   4.959
  908TIP3    H2 2689   4.706   5.263   5.083
  909TIP3   OH2 2690   6.976   3.479   0.790
  909TIP3    H1 2691   6.945   3.517   0.872
  909TIP3    H2 2692   7.045   3.418   0.817
  910TIP3   OH2 2693   6.053   0.497   2.319
  910TIP3    H1 2694   6.063   0.572   2.261
  910TIP3    H2 2695   5.983   0.445   2.278
  911TIP3   OH2 2696   6.847   5.735   5.176
  911TIP3    H1 2697   6.768   5.703   5.132
  911TIP3    H2 2698   6.899   5.774   5.106
  912TIP3   OH2 2699   5.119   6.095   3.212
  912TIP3    H1 2700   5.090   6.180   3.177
  912TIP3    H2 2701   5.114   6.106   3.307
  913TIP3   OH2 2702   3.305   6.487   0.929
  913TIP3    H1 2703   3.316   6.505   0.836
  913TIP3    H2 2704   3.271   6.397   0.932
  914TIP3   OH2 2705   3.875   5.432   4.197
  914TIP3    H1 2706   3.967   5.455   4.206
  914TIP3    H2 2707   3.832   5.480   4.268
  915TIP3   OH2 2708   4.171   4.073   5.314
  915TIP3    H1 2709   4.231   4.016   5.267
  915TIP3    H2 2710   4.147   4.025   5.393
  916TIP3   OH2 2711   0.260   6.717   2.638
  916TIP3    H1 2712   0.244   6.809   2.618
  916TIP3    H2 2713   0.305   6.718   2.723
  917TIP3   OH2 2714   1.999   1.685   4.649
  917TIP3    H1 2715   1.950   1.623   4.595
  917TIP3    H2 2716   2.006   1.641   4.734
  918TIP3   OH2 2717   4.601   2.655   1.586
  918TIP3    H1 2718   4.681   2.603   1.582
  918TIP3    H2 2719   4.629   2.745   1.568
  919TIP3   OH2 2720   5.139   5.875   3.936
  919TIP3    H1 2721   5.182   5.924   3.866
  919TIP3    H2 2722   5.183   5.904   4.016
  920TIP3   OH2 2723   1.298   1.932   3.018
  920TIP3    H1 2724   1.357   1.943   2.944
  920TIP3    H2 2725   1.242   1.858   2.993
  921TIP3   OH2 2726   0.205   6.617   2.166
  921TIP3    H1 2727   0.282   6.574   2.127
  921TIP3    H2 2728   0.160   6.657   2.091
  922TIP3   OH2 2729   0.120   2.626   1.200
  922TIP3    H1 2730   0.111   2.702   1.257
  922TIP3    H2 2731   0.125   2.663   1.112
  923TIP3   OH2 2732   1.505   3.156   2.263
  923TIP3    H1 2733   1.533   3.075   2.221
  923TIP3    H2 2734   1.568   3.222   2.234
  924TIP3   OH2 2735   5.957   0.306   0.534
  924TIP3    H1 2736   6.022   0.262   0.479
  924TIP3    H2 2737   5.926   0.238   0.594
  925TIP3   OH2 2738   1.831   1.082   4.734
  925TIP3    H1 2739   1.887   1.079   4.656
  925TIP3    H2 2740   1.742   1.076   4.700
  926TIP3   OH2 2741   6.091   2.227   0.038
  926TIP3    H1 2742   6.049   2.256   0.119
  926TIP3    H2 2743   6.167   2.284   0.027
  927TIP3   OH2 2744   0.670   5.731   3.299
  927TIP3    H1 2745   0.754   5.717   3.342
  927TIP3    H2 2746   0.612   5.666   3.339
  928TIP3   OH2 2747   0.225   1.136   0.416
  928TIP3    H1 2748   0.256   1.123   0.505
  928TIP3    H2 2749   0.236   1.050   0.375
  929TIP3   OH2 2750   4.064   4.954   1.457
  929TIP3    H1 2751   4.131   4.933   1.522
  929TIP3    H2 2752   4.094   5.036   1.417
  930TIP3   OH2 2753   2.219   5.733   4.728
  930TIP3    H1 2754   2.224   5.814   4.778
  930TIP3    H2 2755   2.191   5.760   4.641
  931TIP3   OH2 2756   3.554   1.673   3.238
  931TIP3    H1 2757   3.609   1.726   3.180
  931TIP3    H2 2758   3.495   1.736   3.278
  932TIP3   OH2 2759   2.855   0.165   4.287
  932TIP3    H1 2760   2.868   0.181   4.193
  932TIP3    H2 2761   2.762   0.144   4.295
  933TIP3   OH2 2762   3.965   5.363   0.256
  933TIP3    H1 2763   4.057   5.377   0.232
  933TIP3    H2 2764   3.967   5.287   0.314
  934TIP3   OH2 2765   0.399   0.758   3.600
  934TIP3    H1 2766   0.396   0.716   3.514
  934TIP3    H2 2767   0.367   0.847   3.584
  935TIP3   OH2 2768   4.488   3.311   5.436
  935TIP3    H1 2769   4.537   3.390   5.457
  935TIP3    H2 2770   4.457   3.278   5.520
  936TIP3   OH2 2771   5.071   4.952   2.085
  936TIP3    H1 2772   5.055   4.933   2.178
  936TIP3    H2 2773   4.993   4.919   2.040
  937TIP3   OH2 2774   6.897   2.731   2.701
  937TIP3    H1 2775   6.911   2.675   2.778
  937TIP3    H2 2776   6.833   2.685   2.648
  938TIP3   OH2 2777   0.365   1.032   3.788
  938TIP3    H1 2778   0.402   0.952   3.825
  938TIP3    H2 2779   0.439   1.075   3.745
  939TIP3   OH2 2780   5.981   1.067   2.252
  939TIP3    H1 2781   5.942   1.019   2.325
  939TIP3    H2 2782   5.957   1.159   2.268
  940TIP3   OH2 2783   6.915   5.365   1.894
  940TIP3    H1 2784   7.001   5.363   1.936
  940TIP3    H2 2785   6.930   5.329   1.806
  941TIP3   OH2 2786   2.309   0.611   4.135
  941TIP3    H1 2787   2.295   0.637   4.044
  941TIP3    H2 2788   2.272   0.683   4.187
  942TIP3   OH2 2789   2.373   2.609   5.027
  942TIP3    H1 2790   2.346   2.673   4.961
  942TIP3    H2 2791   2.358   2.653   5.111
  943TIP3   OH2 2792   4.408   5.366   0.344
  943TIP3    H1 2793   4.486   5.324   0.309
  943TIP3    H2 2794   4.346   5.365   0.271
  944TIP3   OH2 2795   5.038   1.135   2.929
  944TIP3    H1 2796   4.977   1.117   2.858
  944TIP3    H2 2797   5.020   1.067   2.994
  945TIP3   OH2 2798   0.500   2.424   1.579
  945TIP3    H1 2799   0.427   2.365   1.562
  945TIP3    H2 2800   0.578   2.369   1.570
  946TIP3   OH2 2801   0.828   1.815   4.460
  946TIP3    H1 2802   0.865   1.753   4.396
  946TIP3    H2 2803   0.743   1.838   4.423
  947TIP3   OH2 2804   6.059   6.006   2.532
  947TIP3    H1 2805   6.053   6.019   2.626
  947TIP3    H2 2806   6.018   5.921   2.517
  948TIP3   OH2 2807   0.257   1.136   1.617
  948TIP3    H1 2808   0.182   1.113   1.562
  948TIP3    H2 2809   0.289   1.219   1.582
  949TIP3   OH2 2810   3.471   5.178   5.503
  949TIP3    H1 2811   3.413   5.253   5.512
  949TIP3    H2 2812   3.550   5.213   5.462
  950TIP3   OH2 2813   0.816   0.184   5.825
  950TIP3    H1 2814   0.730   0.142   5.834
  950TIP3    H2 2815   0.797   0.276   5.807
  951TIP3   OH2 2816   4.467   0.793   2.704
  951TIP3    H1 2817   4.422   0.854   2.763
  951TIP3    H2 2818   4.402   0.725   2.686
  952TIP3   OH2 2819   7.035   3.782   0.244
  952TIP3    H1 2820   7.065   3.828   0.165
  952TIP3    H2 2821   7.053   3.690   0.226
  953TIP3   OH2 2822   7.110   3.081   3.368
  953TIP3    H1 2823   7.142   2.998   3.403
  953TIP3    H2 2824   7.015   3.074   3.372
  954TIP3   OH2 2825   2.665   1.457   2.345
  954TIP3    H1 2826   2.574   1.460   2.373
  954TIP3    H2 2827   2.707   1.395   2.405
  955TIP3   OH2 2828   2.469   0.517   2.241
  955TIP3    H1 2829   2.537   0.566   2.195
  955TIP3    H2 2830   2.450   0.570   2.319
  956TIP3   OH2 2831   5.349   4.259   3.965
  956TIP3    H1 2832   5.427   4.308   3.939
  956TIP3    H2 2833   5.328   4.205   3.889
  957TIP3   OH2 2834   5.803   3.831   0.151
  957TIP3    H1 2835   5.840   3.912   0.185
  957TIP3    H2 2836   5.712   3.853   0.130
  958TIP3   OH2 2837   2.109   4.966   4.140
  958TIP3    H1 2838   2.071   4.983   4.227
  958TIP3    H2 2839   2.115   5.053   4.100
  959TIP3   OH2 2840   0.080   6.460   1.487
  959TIP3    H1 2841   0.081   6.553   1.467
  959TIP3    H2 2842   0.144   6.422   1.426
  960TIP3   OH2 2843   5.175   6.633   0.656
  960TIP3    H1 2844   5.144   6.623   0.566
  960TIP3    H2 2845   5.188   6.544   0.687
  961TIP3   OH2 2846   2.144   2.143   1.722
  961TIP3    H1 2847   2.058   2.179   1.743
  961TIP3    H2 2848   2.152   2.154   1.627
  962TIP3   OH2 2849   2.101   5.360   5.279
  962TIP3    H1 2850   2.028   5.321   5.230
  962TIP3    H2 2851   2.171   5.296   5.274
  963TIP3   OH2 2852   0.635   1.335   1.394
  963TIP3    H1 2853   0.649   1.266   1.459
  963TIP3    H2 2854   0.545   1.364   1.409
  964TIP3   OH2 2855   6.831   1.487   1.018
  964TIP3    H1 2856   6.784   1.553   1.069
  964TIP3    H2 2857   6.776   1.472   0.941
  965TIP3   OH2 2858   4.099   0.505   0.708
  965TIP3    H1 2859   4.101   0.530   0.615
  965TIP3    H2 2860   4.098   0.409   0.707
  966TIP3   OH2 2861   0.874   4.636   2.629
  966TIP3    H1 2862   0.940   4.640   2.559
  966TIP3    H2 2863   0.857   4.728   2.650
  967TIP3   OH2 2864   5.384   2.550   4.767
  967TIP3    H1 2865   5.301   2.599   4.767
  967TIP3    H2 2866   5.387   2.506   4.851
  968TIP3   OH2 2867   3.296   3.269   5.615
  968TIP3    H1 2868   3.263   3.308   5.696
  968TIP3    H2 2869   3.351   3.196   5.645
  969TIP3   OH2 2870   5.340   5.026   3.877
  969TIP3    H1 2871   5.409   5.030   3.811
  969TIP3    H2 2872   5.386   5.025   3.961
  970TIP3   OH2 2873   4.486   0.991   3.627
  970TIP3    H1 2874   4.406   0.981   3.576
  970TIP3    H2 2875   4.519   0.902   3.638
  971TIP3   OH2 2876   3.798   4.513   1.960
  971TIP3    H1 2877   3.733   4.511   2.030
  971TIP3    H2 2878   3.879   4.542   2.002
  972TIP3   OH2 2879   7.189   2.974   0.542
  972TIP3    H1 2880   7.129   2.947   0.611
  972TIP3    H2 2881   7.242   2.897   0.523
  973TIP3   OH2 2882   2.066   1.383   5.593
  973TIP3    H1 2883   2.158   1.385   5.620
  973TIP3    H2 2884   2.069   1.399   5.498
  974TIP3   OH2 2885   6.369   3.545   3.200
  974TIP3    H1 2886   6.281   3.581   3.185
  974TIP3    H2 2887   6.355   3.479   3.268
  975TIP3   OH2 2888   6.949   4.891   3.925
  975TIP3    H1 2889   6.951   4.929   3.837
  975TIP3    H2 2890   6.891   4.950   3.974
  976TIP3   OH2 2891   6.696   6.493   5.596
  976TIP3    H1 2892   6.624   6.533   5.646
  976TIP3    H2 2893   6.771   6.550   5.613
  977TIP3   OH2 2894   5.373   6.606   2.334
  977TIP3    H1 2895   5.424   6.620   2.255
  977TIP3    H2 2896   5.359   6.511   2.338
  978TIP3   OH2 2897   2.783   5.498   2.988
  978TIP3    H1 2898   2.792   5.481   3.082
  978TIP3    H2 2899   2.863   5.546   2.965
  979TIP3   OH2 2900   1.915   3.120   1.482
  979TIP3    H1 2901   1.893   3.050   1.544
  979TIP3    H2 2902   1.835   3.172   1.474
  980TIP3   OH2 2903   2.603   3.362   3.556
  980TIP3    H1 2904   2.695   3.391   3.556
  980TIP3    H2 2905   2.601   3.290   3.619
  981TIP3   OH2 2906   6.622   0.438   5.255
  981TIP3    H1 2907   6.613   0.344   5.269
  981TIP3    H2 2908   6.534   0.473   5.270
  982TIP3   OH2 2909   4.346   3.150   0.860
  982TIP3    H1 2910   4.395   3.133   0.779
  982TIP3    H2 2911   4.326   3.062   0.894
  983TIP3   OH2 2912   0.637   4.948   0.558
  983TIP3    H1 2913   0.726   4.938   0.591
  983TIP3    H2 2914   0.584   4.963   0.636
  984TIP3   OH2 2915   1.577   0.507   5.183
  984TIP3    H1 2916   1.603   0.434   5.239
  984TIP3    H2 2917   1.610   0.485   5.096
  985TIP3   OH2 2918   2.758   5.291   0.397
  985TIP3    H1 2919   2.813   5.240   0.457
  985TIP3    H2 2920   2.785   5.261   0.310
  986TIP3   OH2 2921   3.188   0.747   4.184
  986TIP3    H1 2922   3.168   0.654   4.172
  986TIP3    H2 2923   3.191   0.782   4.095
  987TIP3   OH2 2924   5.213   2.258   0.063
  987TIP3    H1 2925   5.173   2.209   0.135
  987TIP3    H2 2926   5.300   2.221   0.054
  988TIP3   OH2 2927   3.484   3.586   0.855
  988TIP3    H1 2928   3.416   3.519   0.867
  988TIP3    H2 2929   3.452   3.662   0.903
  989TIP3   OH2 2930   5.212   4.398   2.885
  989TIP3    H1 2931   5.167   4.375   2.804
  989TIP3    H2 2932   5.284   4.455   2.858
  990TIP3   OH2 2933   5.808   1.955   0.874
  990TIP3    H1 2934   5.766   2.041   0.881
  990TIP3    H2 2935   5.880   1.968   0.812
  991TIP3   OH2 2936   5.346   5.232   4.702
  991TIP3    H1 2937   5.411   5.180   4.655
  991TIP3    H2 2938   5.307   5.172   4.765
  992TIP3   OH2 2939   4.671   3.270   0.431
  992TIP3    H1 2940   4.619   3.345   0.403
  992TIP3    H2 2941   4.760   3.290   0.404
  993TIP3   OH2 2942   1.747   6.211   0.242
  993TIP3    H1 2943   1.681   6.213   0.173
  993TIP3    H2 2944   1.785   6.299   0.241
  994TIP3   OH2 2945   5.155   1.158   3.220
  994TIP3    H1 2946   5.092   1.089   3.203
  994TIP3    H2 2947   5.211   1.124   3.289
  995TIP3   OH2 2948   0.887   6.345   0.111
  995TIP3    H1 2949   0.901   6.439   0.123
  995TIP3    H2 2950   0.811   6.339   0.053
  996TIP3   OH2 2951   0.902   2.021   5.505
  996TIP3    H1 2952   0.907   1.940   5.454
  996TIP3    H2 2953   0.816   2.057   5.485
  997TIP3   OH2 2954   1.264   4.175   3.955
  997TIP3    H1 2955   1.303   4.135   4.033
  997TIP3    H2 2956   1.336   4.180   3.892
  998TIP3   OH2 2957   6.042   3.729   5.435
  998TIP3    H1 2958   6.126   3.744   5.478
  998TIP3    H2 2959   5.978   3.774   5.490
  999TIP3   OH2 2960   2.757   2.468   2.942
  999TIP3    H1 2961   2.746   2.378   2.973
  999TIP3    H2 2962   2.836   2.499   2.986
 1000TIP3   OH2 2963   0.939   2.155   3.806
 1000TIP3    H1 2964   1.018   2.210   3.809
 1000TIP3    H2 2965   0.866   2.218   3.813
 1001TIP3   OH2 2966   2.328   0.104   2.082
 1001TIP3    H1 2967   2.286   0.020   2.100
 1001TIP3    H2 2968   2.419   0.082   2.060
 1002TIP3   OH2 2969   2.158   1.933   0.784
 1002TIP3    H1 2970   2.179   2.021   0.752
 1002TIP3    H2 2971   2.200   1.928   0.870
 1003TIP3   OH2 2972   4.445   5.055   5.088
 1003TIP3    H1 2973   4.485   5.049   5.175
 1003TIP3    H2 2974   4.469   5.143   5.058
 1004TIP3   OH2 2975   2.622   5.412   4.529
 1004TIP3    H1 2976   2.596   5.343   4.590
 1004TIP3    H2 2977   2.559   5.406   4.457
 1005TIP3   OH2 2978   2.003   3.126   5.532
 1005TIP3    H1 2979   2.097   3.111   5.527
 1005TIP3    H2 2980   1.974   3.073   5.606
 1006TIP3   OH2 2981   5.132   6.106   1.982
 1006TIP3    H1 2982   5.154   6.139   2.069
 1006TIP3    H2 2983   5.208   6.129   1.927
 1007TIP3   OH2 2984   3.146   2.370   1.560
 1007TIP3    H1 2985   3.060   2.392   1.596
 1007TIP3    H2 2986   3.142   2.400   1.469
 1008TIP3   OH2 2987   4.767   5.909   0.716
 1008TIP3    H1 2988   4.805   5.842   0.773
 1008TIP3    H2 2989   4.676   5.881   0.703
 1009TIP3   OH2 2990   1.294   1.372   0.468
 1009TIP3    H1 2991   1.202   1.380   0.494
 1009TIP3    H2 2992   1.337   1.447   0.510
 1010TIP3   OH2 2993   0.821   0.344   2.345
 1010TIP3    H1 2994   0.774   0.392   2.413
 1010TIP3    H2 2995   0.791   0.254   2.354
 1011TIP3   OH2 2996   1.032   4.121   3.753
 1011TIP3    H1 2997   1.011   4.036   3.790
 1011TIP3    H2 2998   1.125   4.134   3.773
 1012TIP3   OH2 2999   6.530   5.478   1.023
 1012TIP3    H1 3000   6.483   5.518   1.096
 1012TIP3    H2 3001   6.485   5.394   1.009
 1013TIP3   OH2 3002   3.724   1.042   0.292
 1013TIP3    H1 3003   3.777   0.978   0.243
 1013TIP3    H2 3004   3.783   1.072   0.362
 1014TIP3   OH2 3005   6.141   3.222   4.566
 1014TIP3    H1 3006   6.186   3.258   4.642
 1014TIP3    H2 3007   6.051   3.254   4.574
 1015TIP3   OH2 3008   4.919   3.575   2.243
 1015TIP3    H1 3009   4.914   3.483   2.270
 1015TIP3    H2 3010   4.938   3.571   2.149
 1016TIP3   OH2 3011   4.740   2.337   1.008
 1016TIP3    H1 3012   4.676   2.304   1.071
 1016TIP3    H2 3013   4.763   2.261   0.955
 1017TIP3   OH2 3014   6.581   3.165   1.483
 1017TIP3    H1 3015   6.540   3.246   1.513
 1017TIP3    H2 3016   6.673   3.174   1.508
 1018TIP3   OH2 3017   1.710   6.755   0.406
 1018TIP3    H1 3018   1.740   6.704   0.481
 1018TIP3    H2 3019   1.649   6.696   0.360
 1019TIP3   OH2 3020   4.234   3.699   1.898
 1019TIP3    H1 3021   4.328   3.679   1.900
 1019TIP3    H2 3022   4.230   3.791   1.873
 1020TIP3   OH2 3023   0.737   2.979   0.844
 1020TIP3    H1 3024   0.693   3.011   0.765
 1020TIP3    H2 3025   0.829   3.005   0.832
 1021TIP3   OH2 3026   5.173   3.645   2.312
 1021TIP3    H1 3027   5.149   3.643   2.405
 1021TIP3    H2 3028   5.091   3.628   2.266
 1022TIP3   OH2 3029   6.688   6.134   4.080
 1022TIP3    H1 3030   6.727   6.204   4.028
 1022TIP3    H2 3031   6.753   6.116   4.148
 1023TIP3   OH2 3032   2.603   4.740   2.611
 1023TIP3    H1 3033   2.606   4.768   2.520
 1023TIP3    H2 3034   2.525   4.782   2.647
 1024TIP3   OH2 3035   3.877   4.828   1.848
 1024TIP3    H1 3036   3.926   4.792   1.922
 1024TIP3    H2 3037   3.857   4.752   1.793
 1025TIP3   OH2 3038   3.227   2.559   2.046
 1025TIP3    H1 3039   3.260   2.594   2.129
 1025TIP3    H2 3040   3.285   2.486   2.026
 1026TIP3   OH2 3041   4.667   6.259   1.596
 1026TIP3    H1 3042   4.624   6.310   1.527
 1026TIP3    H2 3043   4.629   6.291   1.677
 1027TIP3   OH2 3044   4.157   0.409   2.089
 1027TIP3    H1 3045   4.131   0.317   2.080
 1027TIP3    H2 3046   4.224   0.407   2.157
 1028TIP3   OH2 3047   3.967   0.735   4.335
 1028TIP3    H1 3048   4.017   0.657   4.360
 1028TIP3    H2 3049   4.003   0.805   4.389
 1029TIP3   OH2 3050   3.487   5.553   0.972
 1029TIP3    H1 3051   3.497   5.607   0.894
 1029TIP3    H2 3052   3.392   5.548   0.985
 1030TIP3   OH2 3053   5.724   2.766   2.404
 1030TIP3    H1 3054   5.762   2.693   2.355
 1030TIP3    H2 3055   5.740   2.843   2.350
 1031TIP3   OH2 3056   1.785   0.121   0.920
 1031TIP3    H1 3057   1.814   0.140   1.009
 1031TIP3    H2 3058   1.846   0.054   0.889
 1032TIP3   OH2 3059   3.052   3.983   2.302
 1032TIP3    H1 3060   2.986   3.929   2.260
 1032TIP3    H2 3061   3.136   3.948   2.271
 1033TIP3   OH2 3062   5.092   3.987   0.986
 1033TIP3    H1 3063   5.184   4.012   0.997
 1033TIP3    H2 3064   5.080   3.914   1.047
 1034TIP3   OH2 3065   4.749   1.815   2.177
 1034TIP3    H1 3066   4.790   1.728   2.185
 1034TIP3    H2 3067   4.668   1.808   2.228
 1035TIP3   OH2 3068   5.326   0.362   5.463
 1035TIP3    H1 3069   5.280   0.372   5.546
 1035TIP3    H2 3070   5.257   0.366   5.396
 1036TIP3   OH2 3071   6.890   0.045   1.667
 1036TIP3    H1 3072   6.931   0.104   1.604
 1036TIP3    H2 3073   6.867   0.100   1.741
 1037TIP3   OH2 3074   2.504   1.430   0.558
 1037TIP3    H1 3075   2.514   1.523   0.580
 1037TIP3    H2 3076   2.507   1.428   0.462
 1038TIP3   OH2 3077   2.901   6.068   0.113
 1038TIP3    H1 3078   2.850   5.989   0.133
 1038TIP3    H2 3079   2.836   6.138   0.109
 1039TIP3   OH2 3080   5.103   2.577   3.139
 1039TIP3    H1 3081   5.125   2.654   3.192
 1039TIP3    H2 3082   5.045   2.610   3.071
 1040TIP3   OH2 3083   2.930   0.184   3.409
 1040TIP3    H1 3084   3.025   0.183   3.398
 1040TIP3    H2 3085   2.917   0.187   3.504
 1041TIP3   OH2 3086   5.712   3.335   1.343
 1041TIP3    H1 3087   5.630   3.286   1.342
 1041TIP3    H2 3088   5.707   3.388   1.423
 1042TIP3   OH2 3089   0.713   6.068   1.935
 1042TIP3    H1 3090   0.661   5.989   1.942
 1042TIP3    H2 3091   0.741   6.071   1.844
 1043TIP3   OH2 3092   1.202   1.618   4.592
 1043TIP3    H1 3093   1.152   1.671   4.655
 1043TIP3    H2 3094   1.166   1.530   4.602
 1044TIP3   OH2 3095   4.146   5.266   5.065
 1044TIP3    H1 3096   4.060   5.224   5.058
 1044TIP3    H2 3097   4.209   5.195   5.056
 1045TIP3   OH2 3098   0.581   6.141   5.743
 1045TIP3    H1 3099   0.516   6.089   5.790
 1045TIP3    H2 3100   0.545   6.230   5.743
 1046TIP3   OH2 3101   1.422   2.994   2.636
 1046TIP3    H1 3102   1.380   2.917   2.673
 1046TIP3    H2 3103   1.508   2.997   2.678
 1047TIP3   OH2 3104   6.014   3.506   2.576
 1047TIP3    H1 3105   5.939   3.487   2.632
 1047TIP3    H2 3106   6.090   3.477   2.627
 1048TIP3   OH2 3107   2.968   0.048   4.903
 1048TIP3    H1 3108   2.992  -0.001   4.982
 1048TIP3    H2 3109   3.043   0.106   4.888
 1049TIP3   OH2 3110   7.209   0.211   1.543
 1049TIP3    H1 3111   7.182   0.216   1.451
 1049TIP3    H2 3112   7.169   0.286   1.585
 1050TIP3   OH2 3113   0.311   2.408   3.643
 1050TIP3    H1 3114   0.320   2.501   3.665
 1050TIP3    H2 3115   0.366   2.397   3.565
 1051TIP3   OH2 3116   2.292   6.210   0.490
 1051TIP3    H1 3117   2.224   6.272   0.515
 1051TIP3    H2 3118   2.248   6.148   0.431
 1052TIP3   OH2 3119   0.865   1.336   3.836
 1052TIP3    H1 3120   0.876   1.309   3.745
 1052TIP3    H2 3121   0.771   1.346   3.848
 1053TIP3   OH2 3122   7.001   4.943   0.560
 1053TIP3    H1 3123   6.970   4.990   0.638
 1053TIP3    H2 3124   6.930   4.951   0.497
 1054TIP3   OH2 3125   7.197   0.244   4.428
 1054TIP3    H1 3126   7.124   0.259   4.367
 1054TIP3    H2 3127   7.154   0.218   4.510
 1055TIP3   OH2 3128   2.402   3.646   4.965
 1055TIP3    H1 3129   2.379   3.682   4.879
 1055TIP3    H2 3130   2.319   3.643   5.012
 1056TIP3   OH2 3131   0.607   4.451   2.767
 1056TIP3    H1 3132   0.665   4.521   2.736
 1056TIP3    H2 3133   0.561   4.489   2.842
 1057TIP3   OH2 3134   0.715   0.453   2.917
 1057TIP3    H1 3135   0.777   0.480   2.849
 1057TIP3    H2 3136   0.715   0.525   2.980
 1058TIP3   OH2 3137   0.808   5.277   2.103
 1058TIP3    H1 3138   0.742   5.210   2.086
 1058TIP3    H2 3139   0.765   5.359   2.079
 1059TIP3   OH2 3140   1.204   1.318   1.187
 1059TIP3    H1 3141   1.256   1.288   1.113
 1059TIP3    H2 3142   1.126   1.357   1.148
 1060TIP3   OH2 3143   7.025   2.222   5.599
 1060TIP3    H1 3144   7.075   2.298   5.571
 1060TIP3    H2 3145   7.082   2.175   5.660
 1061TIP3   OH2 3146   4.662   0.107   1.085
 1061TIP3    H1 3147   4.736   0.128   1.027
 1061TIP3    H2 3148   4.696   0.122   1.173
 1062TIP3   OH2 3149   2.317   1.033   0.536
 1062TIP3    H1 3150   2.406   1.005   0.513
 1062TIP3    H2 3151   2.328   1.120   0.574
 1063TIP3   OH2 3152   7.249   2.495   2.904
 1063TIP3    H1 3153   7.157   2.470   2.909
 1063TIP3    H2 3154   7.282   2.452   2.825
 1064TIP3   OH2 3155   6.952   2.577   5.453
 1064TIP3    H1 3156   7.038   2.563   5.492
 1064TIP3    H2 3157   6.930   2.667   5.474
 1065TIP3   OH2 3158   1.609   5.882   3.086
 1065TIP3    H1 3159   1.646   5.943   3.150
 1065TIP3    H2 3160   1.664   5.804   3.092
 1066TIP3   OH2 3161   1.808   4.961   5.536
 1066TIP3    H1 3162   1.800   5.054   5.559
 1066TIP3    H2 3163   1.731   4.920   5.576
 1067TIP3   OH2 3164   7.116   1.378   5.222
 1067TIP3    H1 3165   7.195   1.333   5.193
 1067TIP3    H2 3166   7.140   1.470   5.226
 1068TIP3   OH2 3167   7.001   5.718   2.064
 1068TIP3    H1 3168   7.002   5.808   2.097
 1068TIP3    H2 3169   6.946   5.721   1.987
 1069TIP3   OH2 3170   7.045   6.052   3.229
 1069TIP3    H1 3171   7.027   6.032   3.321
 1069TIP3    H2 3172   6.975   6.112   3.203
 1070TIP3   OH2 3173   2.464   0.673   4.473
 1070TIP3    H1 3174   2.372   0.697   4.488
 1070TIP3    H2 3175   2.509   0.757   4.468
 1071TIP3   OH2 3176   4.781   3.814   2.805
 1071TIP3    H1 3177   4.745   3.739   2.758
 1071TIP3    H2 3178   4.824   3.776   2.882
 1072TIP3   OH2 3179   6.641   0.509   2.354
 1072TIP3    H1 3180   6.564   0.520   2.410
 1072TIP3    H2 3181   6.630   0.422   2.315
 1073TIP3   OH2 3182   4.364   3.062   0.044
 1073TIP3    H1 3183   4.376   3.008   0.122
 1073TIP3    H2 3184   4.299   3.015  -0.008
 1074TIP3   OH2 3185   4.073   2.098   5.654
 1074TIP3    H1 3186   4.101   2.122   5.566
 1074TIP3    H2 3187   3.979   2.119   5.656
 1075TIP3   OH2 3188   1.386   6.052   3.646
 1075TIP3    H1 3189   1.340   6.121   3.695
 1075TIP3    H2 3190   1.347   5.970   3.678
 1076TIP3   OH2 3191   7.131   5.698   0.505
 1076TIP3    H1 3192   7.124   5.788   0.538
 1076TIP3    H2 3193   7.222   5.674   0.518
 1077TIP3   OH2 3194   0.229  -0.016   1.322
 1077TIP3    H1 3195   0.255   0.021   1.406
 1077TIP3    H2 3196   0.311  -0.023   1.272
 1078TIP3   OH2 3197   3.911   0.370   2.439
 1078TIP3    H1 3198   3.995   0.345   2.477
 1078TIP3    H2 3199   3.929   0.453   2.394
 1079TIP3   OH2 3200   5.452   5.221   1.092
 1079TIP3    H1 3201   5.458   5.143   1.037
 1079TIP3    H2 3202   5.498   5.197   1.173
 1080TIP3   OH2 3203   0.612   1.826   2.142
 1080TIP3    H1 3204   0.672   1.864   2.206
 1080TIP3    H2 3205   0.529   1.817   2.189
 1081TIP3   OH2 3206   5.326   5.495   5.065
 1081TIP3    H1 3207   5.369   5.575   5.035
 1081TIP3    H2 3208   5.367   5.476   5.149
 1082TIP3   OH2 3209   3.661   0.298   2.732
 1082TIP3    H1 3210   3.627   0.259   2.652
 1082TIP3    H2 3211   3.745   0.254   2.746
 1083TIP3   OH2 3212   1.870   3.265   2.604
 1083TIP3    H1 3213   1.869   3.196   2.537
 1083TIP3    H2 3214   1.890   3.344   2.555
 1084TIP3   OH2 3215   6.706   6.634   2.832
 1084TIP3    H1 3216   6.715   6.606   2.741
 1084TIP3    H2 3217   6.644   6.707   2.829
 1085TIP3   OH2 3218   3.436   3.996   4.465
 1085TIP3    H1 3219   3.403   3.978   4.553
 1085TIP3    H2 3220   3.526   3.963   4.466
 1086TIP3   OH2 3221   6.096   6.210   1.605
 1086TIP3    H1 3222   6.078   6.185   1.695
 1086TIP3    H2 3223   6.015   6.189   1.557
 1087TIP3   OH2 3224   0.285   3.673   5.022
 1087TIP3    H1 3225   0.336   3.694   5.101
 1087TIP3    H2 3226   0.320   3.731   4.955
 1088TIP3   OH2 3227   2.709   6.643   0.432
 1088TIP3    H1 3228   2.692   6.576   0.499
 1088TIP3    H2 3229   2.740   6.594   0.356
 1089TIP3   OH2 3230   0.645   1.896   3.096
 1089TIP3    H1 3231   0.677   1.922   3.010
 1089TIP3    H2 3232   0.688   1.813   3.114
 1090TIP3   OH2 3233   4.387   2.295   2.525
 1090TIP3    H1 3234   4.476   2.326   2.513
 1090TIP3    H2 3235   4.376   2.290   2.620
 1091TIP3   OH2 3236   6.442   0.063   1.034
 1091TIP3    H1 3237   6.463  -0.014   0.980
 1091TIP3    H2 3238   6.509   0.127   1.012
 1092TIP3   OH2 3239   0.585   2.249   3.056
 1092TIP3    H1 3240   0.532   2.327   3.066
 1092TIP3    H2 3241   0.583   2.207   3.142
 1093TIP3   OH2 3242   0.078   0.836   2.837
 1093TIP3    H1 3243   0.093   0.742   2.831
 1093TIP3    H2 3244  -0.013   0.844   2.864
 1094TIP3   OH2 3245   4.087   0.690   3.845
 1094TIP3    H1 3246   4.099   0.715   3.753
 1094TIP3    H2 3247   4.173   0.659   3.873
 1095TIP3   OH2 3248   6.775   2.489   4.577
 1095TIP3    H1 3249   6.809   2.465   4.491
 1095TIP3    H2 3250   6.752   2.405   4.617
 1096TIP3   OH2 3251   0.850   6.408   4.254
 1096TIP3    H1 3252   0.795   6.375   4.326
 1096TIP3    H2 3253   0.837   6.503   4.256
 1097TIP3   OH2 3254   3.157   1.015   1.210
 1097TIP3    H1 3255   3.096   0.983   1.143
 1097TIP3    H2 3256   3.112   1.091   1.248
 1098TIP3   OH2 3257   6.478   6.779   2.881
 1098TIP3    H1 3258   6.399   6.766   2.829
 1098TIP3    H2 3259   6.458   6.739   2.965
 1099TIP3   OH2 3260   2.518   6.428   5.330
 1099TIP3    H1 3261   2.514   6.332   5.326
 1099TIP3    H2 3262   2.604   6.446   5.368
 1100TIP3   OH2 3263   6.247   4.022   5.415
 1100TIP3    H1 3264   6.163   4.066   5.417
 1100TIP3    H2 3265   6.261   4.000   5.323
 1101TIP3   OH2 3266   2.527   1.164   0.343
 1101TIP3    H1 3267   2.589   1.152   0.414
 1101TIP3    H2 3268   2.547   1.094   0.281
 1102TIP3   OH2 3269   2.865   0.502   2.586
 1102TIP3    H1 3270   2.862   0.481   2.493
 1102TIP3    H2 3271   2.895   0.422   2.628
 1103TIP3   OH2 3272   2.305   3.144   4.304
 1103TIP3    H1 3273   2.243   3.081   4.339
 1103TIP3    H2 3274   2.263   3.229   4.316
 1104TIP3   OH2 3275   1.821   2.111   3.945
 1104TIP3    H1 3276   1.812   2.141   3.855
 1104TIP3    H2 3277   1.776   2.177   3.998
 1105TIP3   OH2 3278   1.953   5.173   3.578
 1105TIP3    H1 3279   1.994   5.145   3.496
 1105TIP3    H2 3280   2.022   5.167   3.643
 1106TIP3   OH2 3281   1.181   0.625   3.969
 1106TIP3    H1 3282   1.234   0.560   4.015
 1106TIP3    H2 3283   1.147   0.682   4.038
 1107TIP3   OH2 3284   4.341   3.997   5.722
 1107TIP3    H1 3285   4.382   4.083   5.714
 1107TIP3    H2 3286   4.325   3.986   5.815
 1108TIP3   OH2 3287   5.550   5.345   4.405
 1108TIP3    H1 3288   5.631   5.301   4.379
 1108TIP3    H2 3289   5.482   5.278   4.392
 1109TIP3   OH2 3290   1.575   3.642   1.932
 1109TIP3    H1 3291   1.488   3.659   1.968
 1109TIP3    H2 3292   1.587   3.711   1.867
 1110TIP3   OH2 3293   3.183   4.852   0.782
 1110TIP3    H1 3294   3.208   4.785   0.719
 1110TIP3    H2 3295   3.106   4.816   0.826
 1111TIP3   OH2 3296   2.745   0.699   2.110
 1111TIP3    H1 3297   2.726   0.704   2.016
 1111TIP3    H2 3298   2.821   0.755   2.122
 1112TIP3   OH2 3299   0.942   5.617   3.703
 1112TIP3    H1 3300   0.984   5.563   3.769
 1112TIP3    H2 3301   0.859   5.644   3.743
 1113TIP3   OH2 3302   3.538   2.461   3.079
 1113TIP3    H1 3303   3.502   2.546   3.107
 1113TIP3    H2 3304   3.469   2.398   3.102
 1114TIP3   OH2 3305   2.484   0.445   5.549
 1114TIP3    H1 3306   2.557   0.491   5.591
 1114TIP3    H2 3307   2.517   0.356   5.534
 1115TIP3   OH2 3308   6.361  -0.038   1.596
 1115TIP3    H1 3309   6.391  -0.013   1.509
 1115TIP3    H2 3310   6.363   0.043   1.647
 1116TIP3   OH2 3311   2.106   3.999   0.481
 1116TIP3    H1 3312   2.034   3.993   0.543
 1116TIP3    H2 3313   2.160   4.072   0.513
 1117TIP3   OH2 3314   4.601   4.841   5.577
 1117TIP3    H1 3315   4.535   4.803   5.519
 1117TIP3    H2 3316   4.570   4.819   5.665
 1118TIP3   OH2 3317   3.142   1.989   4.077
 1118TIP3    H1 3318   3.154   1.916   4.016
 1118TIP3    H2 3319   3.116   1.947   4.159
 1119TIP3   OH2 3320   2.961   4.605   2.125
 1119TIP3    H1 3321   2.982   4.589   2.033
 1119TIP3    H2 3322   2.886   4.549   2.143
 1120TIP3   OH2 3323   4.865   1.747   4.934
 1120TIP3    H1 3324   4.777   1.782   4.952
 1120TIP3    H2 3325   4.892   1.791   4.853
 1121TIP3   OH2 3326   1.614   1.271   3.237
 1121TIP3    H1 3327   1.682   1.263   3.305
 1121TIP3    H2 3328   1.654   1.232   3.160
 1122TIP3   OH2 3329   6.420   5.117   5.832
 1122TIP3    H1 3330   6.455   5.155   5.752
 1122TIP3    H2 3331   6.485   5.051   5.858
 1123TIP3   OH2 3332   1.616   1.381   0.806
 1123TIP3    H1 3333   1.666   1.315   0.854
 1123TIP3    H2 3334   1.592   1.446   0.872
 1124TIP3   OH2 3335   6.386   3.457   1.137
 1124TIP3    H1 3336   6.310   3.437   1.192
 1124TIP3    H2 3337   6.434   3.374   1.132
 1125TIP3   OH2 3338   0.549   5.827   1.984
 1125TIP3    H1 3339   0.460   5.834   1.950
 1125TIP3    H2 3340   0.587   5.752   1.938
 1126TIP3   OH2 3341   0.981   4.798   2.944
 1126TIP3    H1 3342   0.963   4.856   3.018
 1126TIP3    H2 3343   1.031   4.852   2.882
 1127TIP3   OH2 3344   0.390   2.575   3.269
 1127TIP3    H1 3345   0.416   2.483   3.266
 1127TIP3    H2 3346   0.425   2.612   3.188
 1128TIP3   OH2 3347   5.531   6.392   2.227
 1128TIP3    H1 3348   5.586   6.470   2.230
 1128TIP3    H2 3349   5.578   6.331   2.170
 1129TIP3   OH2 3350   4.478   2.677   5.119
 1129TIP3    H1 3351   4.507   2.712   5.035
 1129TIP3    H2 3352   4.399   2.726   5.140
 1130TIP3   OH2 3353   1.305   3.461   4.587
 1130TIP3    H1 3354   1.289   3.371   4.615
 1130TIP3    H2 3355   1.312   3.456   4.492
 1131TIP3   OH2 3356   4.503   5.570   5.734
 1131TIP3    H1 3357   4.453   5.651   5.741
 1131TIP3    H2 3358   4.458   5.520   5.666
 1132TIP3   OH2 3359   6.856   4.733   2.222
 1132TIP3    H1 3360   6.918   4.801   2.196
 1132TIP3    H2 3361   6.790   4.778   2.274
 1133TIP3   OH2 3362   5.389   4.232   1.683
 1133TIP3    H1 3363   5.315   4.242   1.743
 1133TIP3    H2 3364   5.464   4.214   1.740
 1134TIP3   OH2 3365   5.402   1.345   3.459
 1134TIP3    H1 3366   5.448   1.346   3.375
 1134TIP3    H2 3367   5.331   1.281   3.447
 1135TIP3   OH2 3368   0.088   6.138   3.352
 1135TIP3    H1 3369   0.067   6.130   3.445
 1135TIP3    H2 3370   0.003   6.145   3.309
 1136TIP3   OH2 3371   1.247   0.796   4.705
 1136TIP3    H1 3372   1.236   0.881   4.748
 1136TIP3    H2 3373   1.194   0.802   4.625
 1137TIP3   OH2 3374   0.316   0.425   4.662
 1137TIP3    H1 3375   0.380   0.355   4.670
 1137TIP3    H2 3376   0.324   0.455   4.571
 1138TIP3   OH2 3377   4.295   2.447   1.551
 1138TIP3    H1 3378   4.208   2.424   1.585
 1138TIP3    H2 3379   4.344   2.477   1.628
 1139TIP3   OH2 3380   2.401   6.647   4.906
 1139TIP3    H1 3381   2.476   6.602   4.946
 1139TIP3    H2 3382   2.325   6.597   4.934
 1140TIP3   OH2 3383   1.393   3.752   0.650
 1140TIP3    H1 3384   1.367   3.745   0.742
 1140TIP3    H2 3385   1.345   3.828   0.617
 1141TIP3   OH2 3386   0.455   0.514   1.552
 1141TIP3    H1 3387   0.429   0.588   1.606
 1141TIP3    H2 3388   0.423   0.536   1.464
 1142TIP3   OH2 3389   4.816   0.110   4.959
 1142TIP3    H1 3390   4.907   0.113   4.990
 1142TIP3    H2 3391   4.806   0.021   4.924
 1143TIP3   OH2 3392   2.148   6.411   0.238
 1143TIP3    H1 3393   2.137   6.423   0.332
 1143TIP3    H2 3394   2.075   6.458   0.198
 1144TIP3   OH2 3395   3.819   0.725   0.330
 1144TIP3    H1 3396   3.826   0.649   0.387
 1144TIP3    H2 3397   3.728   0.754   0.339
 1145TIP3   OH2 3398   3.687   5.299   4.428
 1145TIP3    H1 3399   3.651   5.357   4.362
 1145TIP3    H2 3400   3.645   5.214   4.411
 1146TIP3   OH2 3401   0.952   0.445   3.582
 1146TIP3    H1 3402   1.025   0.403   3.535
 1146TIP3    H2 3403   0.991   0.477   3.663
 1147TIP3   OH2 3404   5.666   3.563   0.481
 1147TIP3    H1 3405   5.595   3.592   0.539
 1147TIP3    H2 3406   5.731   3.525   0.541
 1148TIP3   OH2 3407   3.613   4.878   3.607
 1148TIP3    H1 3408   3.660   4.924   3.677
 1148TIP3    H2 3409   3.548   4.825   3.653
 1149TIP3   OH2 3410   1.037   4.303   5.367
 1149TIP3    H1 3411   1.004   4.239   5.304
 1149TIP3    H2 3412   0.958   4.336   5.411
 1150TIP3   OH2 3413   6.422   0.487   4.942
 1150TIP3    H1 3414   6.431   0.422   4.873
 1150TIP3    H2 3415   6.474   0.561   4.912
 1151TIP3   OH2 3416   5.154   2.534   1.510
 1151TIP3    H1 3417   5.227   2.589   1.484
 1151TIP3    H2 3418   5.184   2.445   1.492
 1152TIP3   OH2 3419   6.563   0.814   1.206
 1152TIP3    H1 3420   6.474   0.787   1.228
 1152TIP3    H2 3421   6.557   0.845   1.116
 1153TIP3   OH2 3422   3.143   1.609   0.096
 1153TIP3    H1 3423   3.112   1.546   0.162
 1153TIP3    H2 3424   3.215   1.565   0.052
 1154TIP3   OH2 3425   2.651   2.794   4.747
 1154TIP3    H1 3426   2.715   2.848   4.793
 1154TIP3    H2 3427   2.593   2.761   4.815
 1155TIP3   OH2 3428   4.451   3.138   5.652
 1155TIP3    H1 3429   4.461   3.047   5.622
 1155TIP3    H2 3430   4.373   3.136   5.707
 1156TIP3   OH2 3431   3.370   1.044   1.842
 1156TIP3    H1 3432   3.445   1.038   1.902
 1156TIP3    H2 3433   3.400   1.003   1.761
 1157TIP3   OH2 3434   3.120   2.231   4.469
 1157TIP3    H1 3435   3.109   2.205   4.377
 1157TIP3    H2 3436   3.108   2.150   4.518
 1158TIP3   OH2 3437   2.481   2.835   3.962
 1158TIP3    H1 3438   2.470   2.928   3.980
 1158TIP3    H2 3439   2.531   2.832   3.881
 1159TIP3   OH2 3440   6.639   4.939   5.840
 1159TIP3    H1 3441   6.704   4.992   5.887
 1159TIP3    H2 3442   6.691   4.883   5.782
 1160TIP3   OH2 3443   1.247   5.841   1.125
 1160TIP3    H1 3444   1.207   5.754   1.130
 1160TIP3    H2 3445   1.240   5.865   1.033
 1161TIP3   OH2 3446   6.785   3.272   1.274
 1161TIP3    H1 3447   6.742   3.358   1.271
 1161TIP3    H2 3448   6.714   3.210   1.291
 1162TIP3   OH2 3449   5.656   2.590   1.135
 1162TIP3    H1 3450   5.571   2.588   1.178
 1162TIP3    H2 3451   5.709   2.526   1.184
 1163TIP3   OH2 3452   3.049   2.899   1.828
 1163TIP3    H1 3453   3.105   2.891   1.751
 1163TIP3    H2 3454   3.110   2.916   1.900
 1164TIP3   OH2 3455   5.384   0.095   2.354
 1164TIP3    H1 3456   5.359   0.153   2.426
 1164TIP3    H2 3457   5.394   0.153   2.278
 1165TIP3   OH2 3458   1.179   3.462   0.482
 1165TIP3    H1 3459   1.121   3.516   0.428
 1165TIP3    H2 3460   1.166   3.373   0.450
 1166TIP3   OH2 3461   3.467   4.223   5.473
 1166TIP3    H1 3462   3.383   4.208   5.428
 1166TIP3    H2 3463   3.480   4.144   5.525
 1167TIP3   OH2 3464   4.127   1.713   4.668
 1167TIP3    H1 3465   4.148   1.728   4.576
 1167TIP3    H2 3466   4.061   1.779   4.689
 1168TIP3   OH2 3467   6.911   1.243   3.598
 1168TIP3    H1 3468   6.816   1.254   3.598
 1168TIP3    H2 3469   6.946   1.332   3.599
 1169TIP3   OH2 3470   6.894   3.602   4.206
 1169TIP3    H1 3471   6.878   3.511   4.229
 1169TIP3    H2 3472   6.922   3.643   4.287
 1170TIP3   OH2 3473   2.925   3.996   1.789
 1170TIP3    H1 3474   2.852   3.996   1.850
 1170TIP3    H2 3475   2.898   4.057   1.720
 1171TIP3   OH2 3476   2.137   0.188   2.288
 1171TIP3    H1 3477   2.185   0.242   2.224
 1171TIP3    H2 3478   2.143   0.099   2.254
 1172TIP3   OH2 3479   5.125   5.904   1.778
 1172TIP3    H1 3480   5.068   5.828   1.784
 1172TIP3    H2 3481   5.079   5.973   1.827
 1173TIP3   OH2 3482   5.856   0.669   0.491
 1173TIP3    H1 3483   5.942   0.657   0.531
 1173TIP3    H2 3484   5.800   0.604   0.534
 1174TIP3   OH2 3485   2.965   1.386   1.648
 1174TIP3    H1 3486   2.961   1.309   1.591
 1174TIP3    H2 3487   2.960   1.350   1.737
 1175TIP3   OH2 3488   0.644   1.255   5.075
 1175TIP3    H1 3489   0.650   1.161   5.088
 1175TIP3    H2 3490   0.731   1.281   5.045
 1176TIP3   OH2 3491   2.381   2.706   0.927
 1176TIP3    H1 3492   2.421   2.653   0.995
 1176TIP3    H2 3493   2.310   2.652   0.893
 1177TIP3   OH2 3494   3.780   0.382   5.092
 1177TIP3    H1 3495   3.724   0.351   5.163
 1177TIP3    H2 3496   3.731   0.363   5.012
 1178TIP3   OH2 3497   0.100   3.371   4.327
 1178TIP3    H1 3498   0.084   3.286   4.370
 1178TIP3    H2 3499   0.098   3.352   4.234
 1179TIP3   OH2 3500   0.674   2.784   4.758
 1179TIP3    H1 3501   0.755   2.739   4.782
 1179TIP3    H2 3502   0.606   2.717   4.766
 1180TIP3   OH2 3503   6.055   3.200   4.891
 1180TIP3    H1 3504   6.138   3.248   4.901
 1180TIP3    H2 3505   5.988   3.269   4.888
 1181TIP3   OH2 3506   3.608   1.945   1.504
 1181TIP3    H1 3507   3.642   1.965   1.417
 1181TIP3    H2 3508   3.526   1.897   1.488
 1182TIP3   OH2 3509   5.139   6.256   1.340
 1182TIP3    H1 3510   5.200   6.187   1.365
 1182TIP3    H2 3511   5.053   6.222   1.365
 1183TIP3   OH2 3512   2.474   2.454   2.390
 1183TIP3    H1 3513   2.537   2.381   2.389
 1183TIP3    H2 3514   2.435   2.450   2.477
 1184TIP3   OH2 3515   0.936   3.624   1.778
 1184TIP3    H1 3516   0.899   3.610   1.691
 1184TIP3    H2 3517   0.862   3.650   1.832
 1185TIP3   OH2 3518   7.225   6.348   1.043
 1185TIP3    H1 3519   7.296   6.404   1.072
 1185TIP3    H2 3520   7.146   6.387   1.082
 1186TIP3   OH2 3521   6.639   3.800   5.154
 1186TIP3    H1 3522   6.689   3.818   5.074
 1186TIP3    H2 3523   6.617   3.707   5.149
 1187TIP3   OH2 3524   0.247   5.191   3.196
 1187TIP3    H1 3525   0.152   5.200   3.195
 1187TIP3    H2 3526   0.276   5.234   3.115
 1188TIP3   OH2 3527   2.867   1.645   0.024
 1188TIP3    H1 3528   2.955   1.638   0.061
 1188TIP3    H2 3529   2.820   1.569   0.058
 1189TIP3   OH2 3530   3.202   0.026   2.018
 1189TIP3    H1 3531   3.127  -0.009   2.066
 1189TIP3    H2 3532   3.198  -0.017   1.933
 1190TIP3   OH2 3533   3.421   1.573   1.047
 1190TIP3    H1 3534   3.511   1.542   1.057
 1190TIP3    H2 3535   3.428   1.644   0.982
 1191TIP3   OH2 3536   3.970   6.300   0.137
 1191TIP3    H1 3537   3.970   6.275   0.230
 1191TIP3    H2 3538   3.959   6.217   0.091
 1192TIP3   OH2 3539   7.134   2.487   1.304
 1192TIP3    H1 3540   7.216   2.533   1.285
 1192TIP3    H2 3541   7.159   2.413   1.358
 1193TIP3   OH2 3542   5.611   5.429   0.993
 1193TIP3    H1 3543   5.530   5.378   0.996
 1193TIP3    H2 3544   5.626   5.455   1.084
 1194TIP3   OH2 3545   4.662   5.354   1.051
 1194TIP3    H1 3546   4.693   5.277   1.099
 1194TIP3    H2 3547   4.711   5.427   1.088
 1195TIP3   OH2 3548   6.197   3.126   2.577
 1195TIP3    H1 3549   6.240   3.180   2.643
 1195TIP3    H2 3550   6.182   3.186   2.504
 1196TIP3   OH2 3551   5.395   3.766   2.225
 1196TIP3    H1 3552   5.333   3.715   2.277
 1196TIP3    H2 3553   5.379   3.857   2.251
 1197TIP3   OH2 3554   2.820   1.930   3.035
 1197TIP3    H1 3555   2.804   1.939   2.941
 1197TIP3    H2 3556   2.757   1.989   3.076
 1198TIP3   OH2 3557   1.081   2.326   0.888
 1198TIP3    H1 3558   1.154   2.273   0.854
 1198TIP3    H2 3559   1.117   2.368   0.966
 1199TIP3   OH2 3560   3.913   4.947   1.171
 1199TIP3    H1 3561   3.821   4.963   1.151
 1199TIP3    H2 3562   3.936   5.015   1.234
 1200TIP3   OH2 3563   6.063   4.834   3.196
 1200TIP3    H1 3564   5.999   4.854   3.128
 1200TIP3    H2 3565   6.127   4.905   3.190
 1201TIP3   OH2 3566   6.129   1.670   0.705
 1201TIP3    H1 3567   6.091   1.596   0.751
 1201TIP3    H2 3568   6.193   1.631   0.645
 1202TIP3   OH2 3569   0.501   3.065   4.825
 1202TIP3    H1 3570   0.557   3.132   4.786
 1202TIP3    H2 3571   0.511   2.990   4.766
 1203TIP3   OH2 3572   0.391   4.758   4.900
 1203TIP3    H1 3573   0.403   4.853   4.904
 1203TIP3    H2 3574   0.344   4.736   4.980
 1204TIP3   OH2 3575   6.272   2.861   1.700
 1204TIP3    H1 3576   6.206   2.869   1.631
 1204TIP3    H2 3577   6.241   2.919   1.769
 1205TIP3   OH2 3578   4.613   4.523   2.393
 1205TIP3    H1 3579   4.677   4.537   2.323
 1205TIP3    H2 3580   4.600   4.429   2.394
 1206TIP3   OH2 3581   2.871   4.207   3.130
 1206TIP3    H1 3582   2.786   4.170   3.155
 1206TIP3    H2 3583   2.859   4.302   3.135
 1207TIP3   OH2 3584   4.603   3.743   3.155
 1207TIP3    H1 3585   4.575   3.835   3.163
 1207TIP3    H2 3586   4.698   3.746   3.164
 1208TIP3   OH2 3587   1.219   2.830   5.501
 1208TIP3    H1 3588   1.131   2.829   5.463
 1208TIP3    H2 3589   1.216   2.898   5.569
 1209TIP3   OH2 3590   5.798   3.496   0.940
 1209TIP3    H1 3591   5.765   3.573   0.987
 1209TIP3    H2 3592   5.736   3.426   0.963
 1210TIP3   OH2 3593   3.240   3.470   4.521
 1210TIP3    H1 3594   3.268   3.407   4.455
 1210TIP3    H2 3595   3.293   3.450   4.598
 1211TIP3   OH2 3596   1.229   5.483   1.252
 1211TIP3    H1 3597   1.295   5.542   1.214
 1211TIP3    H2 3598   1.221   5.512   1.343
 1212TIP3   OH2 3599   3.729   5.984   3.920
 1212TIP3    H1 3600   3.745   6.066   3.873
 1212TIP3    H2 3601   3.791   5.986   3.992
 1213TIP3   OH2 3602   1.615   0.257   2.058
 1213TIP3    H1 3603   1.696   0.207   2.057
 1213TIP3    H2 3604   1.571   0.233   1.976
 1214TIP3   OH2 3605   4.331   5.883   5.079
 1214TIP3    H1 3606   4.311   5.858   4.989
 1214TIP3    H2 3607   4.302   5.974   5.086
 1215TIP3   OH2 3608   0.530   3.259   2.508
 1215TIP3    H1 3609   0.436   3.268   2.524
 1215TIP3    H2 3610   0.553   3.336   2.456
 1216TIP3   OH2 3611   5.431   0.214   1.254
 1216TIP3    H1 3612   5.431   0.140   1.193
 1216TIP3    H2 3613   5.497   0.192   1.318
 1217TIP3   OH2 3614   3.529   0.622   2.186
 1217TIP3    H1 3615   3.600   0.558   2.186
 1217TIP3    H2 3616   3.573   0.707   2.181
 1218TIP3   OH2 3617   6.459   0.907   2.950
 1218TIP3    H1 3618   6.432   0.979   2.892
 1218TIP3    H2 3619   6.390   0.841   2.940
 1219TIP3   OH2 3620   0.713   4.719   2.963
 1219TIP3    H1 3621   0.717   4.624   2.970
 1219TIP3    H2 3622   0.803   4.746   2.943
 1220TIP3   OH2 3623   1.600   6.143   0.726
 1220TIP3    H1 3624   1.683   6.105   0.753
 1220TIP3    H2 3625   1.588   6.113   0.636
 1221TIP3   OH2 3626   0.328   3.426   2.911
 1221TIP3    H1 3627   0.367   3.364   2.850
 1221TIP3    H2 3628   0.314   3.375   2.991
 1222TIP3   OH2 3629   5.759   4.907   5.881
 1222TIP3    H1 3630   5.801   4.993   5.880
 1222TIP3    H2 3631   5.822   4.849   5.838
 1223TIP3   OH2 3632   4.889   2.871   2.856
 1223TIP3    H1 3633   4.981   2.847   2.846
 1223TIP3    H2 3634   4.881   2.955   2.812
 1224TIP3   OH2 3635   3.517   3.316   1.153
 1224TIP3    H1 3636   3.583   3.358   1.209
 1224TIP3    H2 3637   3.476   3.388   1.107
 1225TIP3   OH2 3638   0.502   3.729   3.489
 1225TIP3    H1 3639   0.437   3.792   3.520
 1225TIP3    H2 3640   0.572   3.733   3.554
 1226TIP3   OH2 3641   0.655   4.239   2.343
 1226TIP3    H1 3642   0.593   4.206   2.408
 1226TIP3    H2 3643   0.679   4.326   2.375
 1227TIP3   OH2 3644   4.905   4.989   1.336
 1227TIP3    H1 3645   4.901   4.895   1.321
 1227TIP3    H2 3646   4.891   5.028   1.250
 1228TIP3   OH2 3647   3.906   6.026   5.547
 1228TIP3    H1 3648   3.844   6.098   5.532
 1228TIP3    H2 3649   3.909   5.979   5.464
 1229TIP3   OH2 3650   0.565   4.771   2.720
 1229TIP3    H1 3651   0.623   4.844   2.702
 1229TIP3    H2 3652   0.599   4.732   2.801
 1230TIP3   OH2 3653   3.235   1.117   5.616
 1230TIP3    H1 3654   3.325   1.083   5.615
 1230TIP3    H2 3655   3.243   1.204   5.654
 1231TIP3   OH2 3656   7.172   2.362   4.585
 1231TIP3    H1 3657   7.128   2.289   4.541
 1231TIP3    H2 3658   7.209   2.413   4.514
 1232TIP3   OH2 3659   3.877   6.297   1.591
 1232TIP3    H1 3660   3.972   6.306   1.598
 1232TIP3    H2 3661   3.849   6.375   1.542
 1233TIP3   OH2 3662   1.070   3.346   2.313
 1233TIP3    H1 3663   1.000   3.326   2.251
 1233TIP3    H2 3664   1.135   3.277   2.300
 1234TIP3   OH2 3665   6.557   2.061   5.629
 1234TIP3    H1 3666   6.626   2.013   5.584
 1234TIP3    H2 3667   6.586   2.066   5.720
 1235TIP3   OH2 3668   1.081   1.506   3.626
 1235TIP3    H1 3669   1.114   1.532   3.712
 1235TIP3    H2 3670   1.146   1.443   3.594
 1236TIP3   OH2 3671   2.626   1.817   1.186
 1236TIP3    H1 3672   2.542   1.791   1.147
 1236TIP3    H2 3673   2.639   1.754   1.257
 1237TIP3   OH2 3674   4.481   0.202   2.109
 1237TIP3    H1 3675   4.491   0.208   2.204
 1237TIP3    H2 3676   4.431   0.121   2.096
 1238TIP3   OH2 3677   1.688   4.909   2.417
 1238TIP3    H1 3678   1.720   4.869   2.337
 1238TIP3    H2 3679   1.765   4.951   2.456
 1239TIP3   OH2 3680   4.207   5.062   1.201
 1239TIP3    H1 3681   4.183   4.970   1.187
 1239TIP3    H2 3682   4.270   5.081   1.131
 1240TIP3   OH2 3683   4.339   3.519   1.270
 1240TIP3    H1 3684   4.365   3.429   1.290
 1240TIP3    H2 3685   4.296   3.550   1.350
 1241TIP3   OH2 3686   1.754   6.002   5.792
 1241TIP3    H1 3687   1.699   6.013   5.869
 1241TIP3    H2 3688   1.732   5.914   5.760
 1242TIP3   OH2 3689   0.465   6.469   2.099
 1242TIP3    H1 3690   0.474   6.375   2.087
 1242TIP3    H2 3691   0.541   6.494   2.151
 1243TIP3   OH2 3692   5.450   3.857   5.808
 1243TIP3    H1 3693   5.514   3.851   5.878
 1243TIP3    H2 3694   5.457   3.773   5.762
 1244TIP3   OH2 3695   5.844   1.702   0.747
 1244TIP3    H1 3696   5.824   1.781   0.798
 1244TIP3    H2 3697   5.939   1.694   0.752
 1245TIP3   OH2 3698   2.946   3.105   0.692
 1245TIP3    H1 3699   2.913   3.188   0.657
 1245TIP3    H2 3700   3.005   3.071   0.625
 1246TIP3   OH2 3701   3.119   3.174   2.120
 1246TIP3    H1 3702   3.167   3.092   2.111
 1246TIP3    H2 3703   3.107   3.185   2.214
 1247TIP3   OH2 3704   4.573   4.929   3.806
 1247TIP3    H1 3705   4.496   4.948   3.861
 1247TIP3    H2 3706   4.639   4.991   3.837
 1248TIP3   OH2 3707   5.406   4.494   0.787
 1248TIP3    H1 3708   5.399   4.578   0.832
 1248TIP3    H2 3709   5.378   4.429   0.852
 1249TIP3   OH2 3710   4.935   6.309   2.206
 1249TIP3    H1 3711   4.916   6.216   2.197
 1249TIP3    H2 3712   4.949   6.340   2.116
 1250TIP3   OH2 3713   1.404   0.211   4.870
 1250TIP3    H1 3714   1.411   0.290   4.817
 1250TIP3    H2 3715   1.364   0.146   4.812
 1251TIP3   OH2 3716   4.954   6.758   2.673
 1251TIP3    H1 3717   5.046   6.744   2.694
 1251TIP3    H2 3718   4.907   6.699   2.732
 1252TIP3   OH2 3719   4.949   4.696   0.685
 1252TIP3    H1 3720   5.038   4.726   0.708
 1252TIP3    H2 3721   4.962   4.638   0.610
 1253TIP3   OH2 3722   1.489   4.144   1.120
 1253TIP3    H1 3723   1.417   4.128   1.180
 1253TIP3    H2 3724   1.478   4.236   1.093
 1254TIP3   OH2 3725   5.551   4.552   1.298
 1254TIP3    H1 3726   5.464   4.549   1.338
 1254TIP3    H2 3727   5.566   4.463   1.266
 1255TIP3   OH2 3728   3.041   0.490   5.485
 1255TIP3    H1 3729   2.976   0.432   5.524
 1255TIP3    H2 3730   3.119   0.436   5.477
 1256TIP3   OH2 3731   0.976   6.194   0.757
 1256TIP3    H1 3732   1.050   6.189   0.697
 1256TIP3    H2 3733   0.915   6.127   0.727
 1257TIP3   OH2 3734   4.833   4.580   1.750
 1257TIP3    H1 3735   4.741   4.581   1.726
 1257TIP3    H2 3736   4.839   4.642   1.824
 1258TIP3   OH2 3737   6.788   5.753   4.606
 1258TIP3    H1 3738   6.841   5.716   4.535
 1258TIP3    H2 3739   6.749   5.831   4.568
 1259TIP3   OH2 3740   6.429   0.278   3.955
 1259TIP3    H1 3741   6.386   0.334   3.891
 1259TIP3    H2 3742   6.377   0.288   4.035
 1260TIP3   OH2 3743   4.795   6.036   4.862
 1260TIP3    H1 3744   4.712   5.988   4.856
 1260TIP3    H2 3745   4.827   6.017   4.950
 1261TIP3   OH2 3746   4.432   1.681   2.889
 1261TIP3    H1 3747   4.337   1.668   2.898
 1261TIP3    H2 3748   4.470   1.615   2.947
 1262TIP3   OH2 3749   3.681   5.758   0.169
 1262TIP3    H1 3750   3.683   5.852   0.157
 1262TIP3    H2 3751   3.633   5.725   0.092
 1263TIP3   OH2 3752   2.068   0.473   4.943
 1263TIP3    H1 3753   2.088   0.522   5.023
 1263TIP3    H2 3754   2.151   0.466   4.898
 1264TIP3   OH2 3755   3.558   3.975   5.562
 1264TIP3    H1 3756   3.571   4.027   5.641
 1264TIP3    H2 3757   3.641   3.981   5.515
 1265TIP3   OH2 3758   2.119   4.297   1.513
 1265TIP3    H1 3759   2.066   4.281   1.435
 1265TIP3    H2 3760   2.194   4.348   1.481
 1266TIP3   OH2 3761   4.709   0.927   5.578
 1266TIP3    H1 3762   4.617   0.910   5.599
 1266TIP3    H2 3763   4.721   0.888   5.492
 1267TIP3   OH2 3764   6.391   4.556   1.402
 1267TIP3    H1 3765   6.352   4.545   1.489
 1267TIP3    H2 3766   6.327   4.519   1.342
 1268TIP3   OH2 3767   6.727   1.230   0.091
 1268TIP3    H1 3768   6.639   1.240   0.129
 1268TIP3    H2 3769   6.785   1.274   0.153
 1269TIP3   OH2 3770   0.307   0.863   4.592
 1269TIP3    H1 3771   0.245   0.930   4.620
 1269TIP3    H2 3772   0.371   0.911   4.539
 1270TIP3   OH2 3773   0.755   0.859   2.216
 1270TIP3    H1 3774   0.726   0.950   2.226
 1270TIP3    H2 3775   0.748   0.842   2.122
 1271TIP3   OH2 3776   2.838   2.483   0.426
 1271TIP3    H1 3777   2.793   2.567   0.413
 1271TIP3    H2 3778   2.867   2.485   0.517
 1272TIP3   OH2 3779   3.712   1.961   0.516
 1272TIP3    H1 3780   3.786   1.936   0.461
 1272TIP3    H2 3781   3.734   1.927   0.603
 1273TIP3   OH2 3782   0.385   3.210   3.124
 1273TIP3    H1 3783   0.475   3.240   3.114
 1273TIP3    H2 3784   0.378   3.136   3.064
 1274TIP3   OH2 3785   0.046   2.111   5.798
 1274TIP3    H1 3786   0.064   2.084   5.888
 1274TIP3    H2 3787   0.123   2.162   5.772
 1275TIP3   OH2 3788   5.763   2.174   3.994
 1275TIP3    H1 3789   5.723   2.261   4.002
 1275TIP3    H2 3790   5.697   2.122   3.948
 1276TIP3   OH2 3791   3.890   1.793   4.282
 1276TIP3    H1 3792   3.962   1.777   4.222
 1276TIP3    H2 3793   3.884   1.889   4.288
 1277TIP3   OH2 3794   5.520   4.328   1.098
 1277TIP3    H1 3795   5.506   4.236   1.120
 1277TIP3    H2 3796   5.433   4.359   1.071
 1278TIP3   OH2 3797   4.876   0.651   4.172
 1278TIP3    H1 3798   4.957   0.686   4.209
 1278TIP3    H2 3799   4.872   0.688   4.084
 1279TIP3   OH2 3800   5.831   1.195   4.489
 1279TIP3    H1 3801   5.861   1.286   4.482
 1279TIP3    H2 3802   5.897   1.144   4.443
 1280TIP3   OH2 3803   3.208   4.614   5.787
 1280TIP3    H1 3804   3.279   4.559   5.819
 1280TIP3    H2 3805   3.132   4.587   5.838
 1281TIP3   OH2 3806   5.159   1.316   4.071
 1281TIP3    H1 3807   5.071   1.327   4.106
 1281TIP3    H2 3808   5.215   1.364   4.132
 1282TIP3   OH2 3809   3.686   1.058   3.626
 1282TIP3    H1 3810   3.671   1.152   3.627
 1282TIP3    H2 3811   3.713   1.039   3.536
 1283TIP3   OH2 3812   5.115   2.313   5.880
 1283TIP3    H1 3813   5.188   2.353   5.833
 1283TIP3    H2 3814   5.065   2.266   5.813
 1284TIP3   OH2 3815   0.066   4.458   2.554
 1284TIP3    H1 3816   0.084   4.425   2.642
 1284TIP3    H2 3817   0.034   4.382   2.506
 1285TIP3   OH2 3818   5.015   2.101   2.811
 1285TIP3    H1 3819   5.065   2.169   2.766
 1285TIP3    H2 3820   4.926   2.137   2.816
 1286TIP3   OH2 3821   2.860   3.523   0.914
 1286TIP3    H1 3822   2.766   3.537   0.923
 1286TIP3    H2 3823   2.891   3.507   1.004
 1287TIP3   OH2 3824   4.257   4.821   3.630
 1287TIP3    H1 3825   4.248   4.836   3.724
 1287TIP3    H2 3826   4.288   4.904   3.595
 1288TIP3   OH2 3827   6.898   4.408   1.170
 1288TIP3    H1 3828   6.872   4.486   1.220
 1288TIP3    H2 3829   6.993   4.403   1.182
 1289TIP3   OH2 3830   1.628   1.660   1.367
 1289TIP3    H1 3831   1.560   1.611   1.318
 1289TIP3    H2 3832   1.656   1.599   1.435
 1290TIP3   OH2 3833   5.265   3.660   3.730
 1290TIP3    H1 3834   5.337   3.722   3.741
 1290TIP3    H2 3835   5.187   3.709   3.755
 1291TIP3   OH2 3836   6.535   0.213   0.542
 1291TIP3    H1 3837   6.509   0.144   0.481
 1291TIP3    H2 3838   6.478   0.200   0.618
 1292TIP3   OH2 3839   0.275   1.431   5.265
 1292TIP3    H1 3840   0.234   1.516   5.248
 1292TIP3    H2 3841   0.366   1.443   5.238
 1293TIP3   OH2 3842   5.452   0.181   0.278
 1293TIP3    H1 3843   5.426   0.088   0.277
 1293TIP3    H2 3844   5.419   0.213   0.362
 1294TIP3   OH2 3845   4.392   5.738   5.296
 1294TIP3    H1 3846   4.368   5.789   5.219
 1294TIP3    H2 3847   4.373   5.796   5.370
 1295TIP3   OH2 3848   7.094   5.942   5.955
 1295TIP3    H1 3849   7.173   5.995   5.960
 1295TIP3    H2 3850   7.025   6.003   5.932
 1296TIP3   OH2 3851   4.490   1.891   5.609
 1296TIP3    H1 3852   4.411   1.847   5.639
 1296TIP3    H2 3853   4.474   1.984   5.627
 1297TIP3   OH2 3854   0.663   0.735   1.418
 1297TIP3    H1 3855   0.614   0.652   1.421
 1297TIP3    H2 3856   0.608   0.797   1.465
 1298TIP3   OH2 3857   5.131   2.959   4.541
 1298TIP3    H1 3858   5.070   2.986   4.473
 1298TIP3    H2 3859   5.167   2.876   4.511
 1299TIP3   OH2 3860   0.913   1.439   2.117
 1299TIP3    H1 3861   0.882   1.375   2.054
 1299TIP3    H2 3862   0.849   1.436   2.188
 1300TIP3   OH2 3863   0.864   6.579   1.628
 1300TIP3    H1 3864   0.796   6.636   1.663
 1300TIP3    H2 3865   0.946   6.628   1.641
 1301TIP3   OH2 3866   2.401   5.347   3.245
 1301TIP3    H1 3867   2.453   5.381   3.318
 1301TIP3    H2 3868   2.430   5.397   3.169
 1302TIP3   OH2 3869   3.042   1.200   0.212
 1302TIP3    H1 3870   2.968   1.258   0.229
 1302TIP3    H2 3871   3.015   1.149   0.135
 1303TIP3   OH2 3872   1.664   0.427   0.418
 1303TIP3    H1 3873   1.588   0.436   0.477
 1303TIP3    H2 3874   1.702   0.515   0.415
 1304TIP3   OH2 3875   0.800   4.939   1.696
 1304TIP3    H1 3876   0.740   4.868   1.721
 1304TIP3    H2 3877   0.878   4.925   1.749
 1305TIP3   OH2 3878   0.672   1.435   3.397
 1305TIP3    H1 3879   0.655   1.393   3.313
 1305TIP3    H2 3880   0.765   1.460   3.393
 1306TIP3   OH2 3881   3.734   3.623   3.111
 1306TIP3    H1 3882   3.654   3.597   3.065
 1306TIP3    H2 3883   3.804   3.585   3.058
 1307TIP3   OH2 3884   2.102   5.717   5.696
 1307TIP3    H1 3885   2.111   5.642   5.754
 1307TIP3    H2 3886   2.154   5.786   5.737
 1308TIP3   OH2 3887   3.632   1.090   1.981
 1308TIP3    H1 3888   3.564   1.107   2.045
 1308TIP3    H2 3889   3.648   1.175   1.939
 1309TIP3   OH2 3890   4.663   4.565   3.139
 1309TIP3    H1 3891   4.623   4.478   3.137
 1309TIP3    H2 3892   4.660   4.595   3.048
 1310TIP3   OH2 3893   7.047   4.297   2.816
 1310TIP3    H1 3894   7.142   4.304   2.806
 1310TIP3    H2 3895   7.032   4.310   2.910
 1311TIP3   OH2 3896   5.725   6.239   2.087
 1311TIP3    H1 3897   5.805   6.186   2.090
 1311TIP3    H2 3898   5.707   6.250   1.993
 1312TIP3   OH2 3899   4.647   0.541   4.948
 1312TIP3    H1 3900   4.622   0.563   5.038
 1312TIP3    H2 3901   4.614   0.452   4.936
 1313TIP3   OH2 3902   1.656   6.728   4.075
 1313TIP3    H1 3903   1.589   6.797   4.071
 1313TIP3    H2 3904   1.624   6.661   4.015
 1314TIP3   OH2 3905   1.936   6.448   1.915
 1314TIP3    H1 3906   1.995   6.373   1.917
 1314TIP3    H2 3907   1.947   6.489   2.001
 1315TIP3   OH2 3908   0.577   6.769   2.721
 1315TIP3    H1 3909   0.559   6.807   2.807
 1315TIP3    H2 3910   0.562   6.675   2.732
 1316TIP3   OH2 3911   1.332   4.055   1.561
 1316TIP3    H1 3912   1.283   4.086   1.484
 1316TIP3    H2 3913   1.424   4.060   1.535
 1317TIP3   OH2 3914   1.337   5.045   0.777
 1317TIP3    H1 3915   1.249   5.008   0.767
 1317TIP3    H2 3916   1.394   4.979   0.736
 1318TIP3   OH2 3917   6.262   0.312   5.463
 1318TIP3    H1 3918   6.252   0.232   5.411
 1318TIP3    H2 3919   6.279   0.380   5.398
 1319TIP3   OH2 3920   6.669   3.509   1.238
 1319TIP3    H1 3921   6.693   3.602   1.236
 1319TIP3    H2 3922   6.598   3.501   1.175
 1320TIP3   OH2 3923   1.805   0.565   1.382
 1320TIP3    H1 3924   1.865   0.537   1.314
 1320TIP3    H2 3925   1.852   0.547   1.464
 1321TIP3   OH2 3926   3.224   2.893   3.782
 1321TIP3    H1 3927   3.232   2.864   3.873
 1321TIP3    H2 3928   3.309   2.872   3.743
 1322TIP3   OH2 3929   2.632   1.026   0.100
 1322TIP3    H1 3930   2.711   1.060   0.059
 1322TIP3    H2 3931   2.560   1.069   0.054
 1323TIP3   OH2 3932   6.596   3.854   2.456
 1323TIP3    H1 3933   6.578   3.875   2.365
 1323TIP3    H2 3934   6.557   3.768   2.470
 1324TIP3   OH2 3935   6.091   1.353   3.476
 1324TIP3    H1 3936   6.174   1.325   3.436
 1324TIP3    H2 3937   6.059   1.421   3.417
 1325TIP3   OH2 3938   4.675   5.832   5.618
 1325TIP3    H1 3939   4.634   5.816   5.703
 1325TIP3    H2 3940   4.681   5.745   5.578
 1326TIP3   OH2 3941   7.047   4.271   3.335
 1326TIP3    H1 3942   7.022   4.340   3.397
 1326TIP3    H2 3943   7.054   4.192   3.388
 1327TIP3   OH2 3944   2.022   1.515   4.880
 1327TIP3    H1 3945   1.937   1.475   4.863
 1327TIP3    H2 3946   2.023   1.533   4.974
 1328TIP3   OH2 3947   7.056   0.522   2.954
 1328TIP3    H1 3948   7.009   0.552   3.032
 1328TIP3    H2 3949   6.992   0.472   2.905
 1329TIP3   OH2 3950   7.081   0.894   3.178
 1329TIP3    H1 3951   7.094   0.887   3.272
 1329TIP3    H2 3952   7.081   0.988   3.160
 1330TIP3   OH2 3953   0.525   4.508   3.026
 1330TIP3    H1 3954   0.495   4.539   3.111
 1330TIP3    H2 3955   0.617   4.483   3.040
 1331TIP3   OH2 3956   1.280   3.272   1.446
 1331TIP3    H1 3957   1.193   3.312   1.452
 1331TIP3    H2 3958   1.262   3.180   1.424
 1332TIP3   OH2 3959   1.008   0.615   2.081
 1332TIP3    H1 3960   0.977   0.642   2.167
 1332TIP3    H2 3961   0.993   0.520   2.078
 1333TIP3   OH2 3962   0.673   5.100   0.172
 1333TIP3    H1 3963   0.652   5.019   0.218
 1333TIP3    H2 3964   0.590   5.147   0.165
 1334TIP3   OH2 3965   1.084   2.267   4.881
 1334TIP3    H1 3966   1.116   2.311   4.960
 1334TIP3    H2 3967   1.031   2.333   4.837
 1335TIP3   OH2 3968   4.227   3.955   3.627
 1335TIP3    H1 3969   4.277   4.032   3.656
 1335TIP3    H2 3970   4.141   3.966   3.666
 1336TIP3   OH2 3971   4.058   3.438   3.831
 1336TIP3    H1 3972   4.128   3.384   3.869
 1336TIP3    H2 3973   3.998   3.374   3.792
 1337TIP3   OH2 3974   7.049   2.535   3.227
 1337TIP3    H1 3975   7.017   2.457   3.182
 1337TIP3    H2 3976   7.142   2.539   3.204
 1338TIP3   OH2 3977   1.081   2.669   4.235
 1338TIP3    H1 3978   1.061   2.578   4.259
 1338TIP3    H2 3979   1.163   2.688   4.281
 1339TIP3   OH2 3980   1.364   6.288   4.176
 1339TIP3    H1 3981   1.334   6.197   4.179
 1339TIP3    H2 3982   1.459   6.282   4.176
 1340TIP3   OH2 3983   3.107   0.029   1.733
 1340TIP3    H1 3984   3.104   0.117   1.696
 1340TIP3    H2 3985   3.028  -0.013   1.700
 1341TIP3   OH2 3986   4.191   5.562   5.686
 1341TIP3    H1 3987   4.264   5.550   5.624
 1341TIP3    H2 3988   4.214   5.507   5.760
 1342TIP3   OH2 3989   1.603   0.590   4.428
 1342TIP3    H1 3990   1.546   0.614   4.355
 1342TIP3    H2 3991   1.594   0.662   4.490
 1343TIP3   OH2 3992   5.929   0.765   0.877
 1343TIP3    H1 3993   5.993   0.818   0.829
 1343TIP3    H2 3994   5.979   0.690   0.909
 1344TIP3   OH2 3995   5.643   2.016   2.164
 1344TIP3    H1 3996   5.553   2.046   2.147
 1344TIP3    H2 3997   5.698   2.090   2.135
 1345TIP3   OH2 3998   3.356   3.249   2.321
 1345TIP3    H1 3999   3.398   3.335   2.309
 1345TIP3    H2 4000   3.283   3.266   2.381
 1346TIP3   OH2 4001   0.591   1.908   4.376
 1346TIP3    H1 4002   0.541   1.925   4.296
 1346TIP3    H2 4003   0.537   1.943   4.446
 1347TIP3   OH2 4004   1.410   6.655   5.383
 1347TIP3    H1 4005   1.473   6.590   5.413
 1347TIP3    H2 4006   1.353   6.670   5.459
 1348TIP3   OH2 4007   1.996   2.695   3.221
 1348TIP3    H1 4008   1.921   2.755   3.220
 1348TIP3    H2 4009   1.973   2.630   3.287
 1349TIP3   OH2 4010   2.717   1.984   3.387
 1349TIP3    H1 4011   2.680   2.053   3.442
 1349TIP3    H2 4012   2.693   2.009   3.298
 1350TIP3   OH2 4013   2.427   4.813   5.386
 1350TIP3    H1 4014   2.347   4.800   5.437
 1350TIP3    H2 4015   2.460   4.724   5.370
 1351TIP3   OH2 4016   5.347   2.762   0.199
 1351TIP3    H1 4017   5.330   2.843   0.150
 1351TIP3    H2 4018   5.380   2.701   0.133
 1352TIP3   OH2 4019   5.555   0.712   1.751
 1352TIP3    H1 4020   5.478   0.723   1.807
 1352TIP3    H2 4021   5.519   0.709   1.662
 1353TIP3   OH2 4022   4.318   1.013   5.426
 1353TIP3    H1 4023   4.262   0.937   5.445
 1353TIP3    H2 4024   4.319   1.018   5.330
 1354TIP3   OH2 4025   2.580   4.001   5.304
 1354TIP3    H1 4026   2.652   3.943   5.330
 1354TIP3    H2 4027   2.501   3.953   5.331
 1355TIP3   OH2 4028   3.557   2.779   1.770
 1355TIP3    H1 4029   3.537   2.871   1.788
 1355TIP3    H2 4030   3.473   2.734   1.777
 1356TIP3   OH2 4031   2.101   4.456   3.319
 1356TIP3    H1 4032   2.161   4.397   3.365
 1356TIP3    H2 4033   2.044   4.491   3.387
 1357TIP3   OH2 4034   6.885   2.026   5.442
 1357TIP3    H1 4035   6.892   1.985   5.529
 1357TIP3    H2 4036   6.868   2.118   5.461
 1358TIP3   OH2 4037   3.242   4.443   3.877
 1358TIP3    H1 4038   3.187   4.453   3.956
 1358TIP3    H2 4039   3.325   4.483   3.901
 1359TIP3   OH2 4040   2.073   2.944   4.360
 1359TIP3    H1 4041   2.040   2.880   4.423
 1359TIP3    H2 4042   2.053   2.906   4.275
 1360TIP3   OH2 4043   3.302   6.462   2.589
 1360TIP3    H1 4044   3.207   6.465   2.602
 1360TIP3    H2 4045   3.313   6.403   2.514
 1361TIP3   OH2 4046   5.589   2.964   2.762
 1361TIP3    H1 4047   5.676   3.000   2.748
 1361TIP3    H2 4048   5.587   2.884   2.710
 1362TIP3   OH2 4049   6.352   1.921   0.676
 1362TIP3    H1 4050   6.426   1.884   0.628
 1362TIP3    H2 4051   6.335   2.005   0.631
 1363TIP3   OH2 4052   6.581   2.428   4.004
 1363TIP3    H1 4053   6.541   2.399   4.085
 1363TIP3    H2 4054   6.571   2.354   3.944
 1364TIP3   OH2 4055   1.968   6.582   0.097
 1364TIP3    H1 4056   1.976   6.634   0.177
 1364TIP3    H2 4057   1.901   6.517   0.118
 1365TIP3   OH2 4058   0.817   2.396   0.879
 1365TIP3    H1 4059   0.789   2.393   0.970
 1365TIP3    H2 4060   0.897   2.345   0.877
 1366TIP3   OH2 4061   2.908   1.939   1.188
 1366TIP3    H1 4062   2.834   1.879   1.200
 1366TIP3    H2 4063   2.983   1.881   1.173
 1367TIP3   OH2 4064   2.146   6.270   2.254
 1367TIP3    H1 4065   2.237   6.260   2.225
 1367TIP3    H2 4066   2.104   6.187   2.230
 1368TIP3   OH2 4067   6.262   2.647   5.229
 1368TIP3    H1 4068   6.339   2.603   5.193
 1368TIP3    H2 4069   6.191   2.626   5.168
 1369TIP3   OH2 4070   4.510   3.258   3.736
 1369TIP3    H1 4071   4.423   3.294   3.718
 1369TIP3    H2 4072   4.497   3.163   3.737
 1370TIP3   OH2 4073   4.426   5.988   4.134
 1370TIP3    H1 4074   4.475   5.907   4.125
 1370TIP3    H2 4075   4.348   5.964   4.185
 1371TIP3   OH2 4076   2.869   5.669   4.850
 1371TIP3    H1 4077   2.948   5.687   4.901
 1371TIP3    H2 4078   2.798   5.702   4.904
 1372TIP3   OH2 4079   3.815   1.032   2.904
 1372TIP3    H1 4080   3.742   1.083   2.868
 1372TIP3    H2 4081   3.840   0.972   2.834
 1373TIP3   OH2 4082   6.764   4.237   4.857
 1373TIP3    H1 4083   6.759   4.306   4.924
 1373TIP3    H2 4084   6.682   4.189   4.867
 1374TIP3   OH2 4085   5.839   3.636   4.690
 1374TIP3    H1 4086   5.853   3.597   4.604
 1374TIP3    H2 4087   5.892   3.583   4.749
 1375TIP3   OH2 4088   4.966   2.141   0.183
 1375TIP3    H1 4089   4.975   2.060   0.234
 1375TIP3    H2 4090   4.872   2.154   0.176
 1376TIP3   OH2 4091   4.541   6.074   2.994
 1376TIP3    H1 4092   4.520   5.994   3.043
 1376TIP3    H2 4093   4.538   6.047   2.902
 1377TIP3   OH2 4094   2.462   4.789   3.372
 1377TIP3    H1 4095   2.541   4.757   3.328
 1377TIP3    H2 4096   2.450   4.730   3.446
 1378TIP3   OH2 4097   4.901   6.054   2.515
 1378TIP3    H1 4098   4.990   6.073   2.544
 1378TIP3    H2 4099   4.854   6.137   2.523
 1379TIP3   OH2 4100   3.657   3.632   3.812
 1379TIP3    H1 4101   3.627   3.594   3.894
 1379TIP3    H2 4102   3.580   3.673   3.774
 1380TIP3   OH2 4103   1.889   0.978   1.439
 1380TIP3    H1 4104   1.866   0.928   1.360
 1380TIP3    H2 4105   1.968   1.026   1.414
 1381TIP3   OH2 4106   6.074   4.887   4.183
 1381TIP3    H1 4107   6.170   4.884   4.175
 1381TIP3    H2 4108   6.042   4.831   4.113
 1382TIP3   OH2 4109   4.918   1.562   1.596
 1382TIP3    H1 4110   4.856   1.617   1.548
 1382TIP3    H2 4111   4.913   1.592   1.686
 1383TIP3   OH2 4112   1.559   5.855   1.602
 1383TIP3    H1 4113   1.492   5.909   1.561
 1383TIP3    H2 4114   1.521   5.830   1.687
 1384TIP3   OH2 4115   2.343   0.429   0.529
 1384TIP3    H1 4116   2.394   0.460   0.454
 1384TIP3    H2 4117   2.324   0.509   0.579
 1385TIP3   OH2 4118   2.565   1.547   1.029
 1385TIP3    H1 4119   2.638   1.607   1.012
 1385TIP3    H2 4120   2.569   1.484   0.958
 1386TIP3   OH2 4121   5.553   6.583   5.791
 1386TIP3    H1 4122   5.626   6.548   5.842
 1386TIP3    H2 4123   5.595   6.636   5.723
 1387TIP3   OH2 4124   4.164   6.244   3.218
 1387TIP3    H1 4125   4.247   6.289   3.202
 1387TIP3    H2 4126   4.170   6.216   3.310
 1388TIP3   OH2 4127   6.881   6.486   5.310
 1388TIP3    H1 4128   6.803   6.507   5.258
 1388TIP3    H2 4129   6.897   6.563   5.363
 1389TIP3   OH2 4130   1.544   2.174   0.962
 1389TIP3    H1 4131   1.625   2.223   0.947
 1389TIP3    H2 4132   1.570   2.082   0.955
 1390TIP3   OH2 4133   3.640   3.388   5.547
 1390TIP3    H1 4134   3.656   3.478   5.575
 1390TIP3    H2 4135   3.661   3.334   5.623
 1391TIP3   OH2 4136   2.424   0.438   0.112
 1391TIP3    H1 4137   2.350   0.386   0.143
 1391TIP3    H2 4138   2.402   0.459   0.021
 1392TIP3   OH2 4139   5.544   2.096   4.969
 1392TIP3    H1 4140   5.575   2.105   4.878
 1392TIP3    H2 4141   5.616   2.052   5.014
 1393TIP3   OH2 4142   3.007   2.804   0.616
 1393TIP3    H1 4143   2.960   2.879   0.580
 1393TIP3    H2 4144   2.955   2.778   0.692
 1394TIP3   OH2 4145   2.909   6.070   3.042
 1394TIP3    H1 4146   2.919   6.008   3.115
 1394TIP3    H2 4147   2.998   6.098   3.022
 1395TIP3   OH2 4148   4.817   4.099   1.613
 1395TIP3    H1 4149   4.786   4.039   1.680
 1395TIP3    H2 4150   4.874   4.160   1.660
 1396TIP3   OH2 4151   2.032   1.909   4.018
 1396TIP3    H1 4152   2.064   1.871   3.936
 1396TIP3    H2 4153   1.960   1.967   3.991
 1397TIP3   OH2 4154   3.538   6.408   0.634
 1397TIP3    H1 4155   3.524   6.384   0.542
 1397TIP3    H2 4156   3.583   6.332   0.671
 1398TIP3   OH2 4157   0.539   1.953   0.464
 1398TIP3    H1 4158   0.473   1.888   0.441
 1398TIP3    H2 4159   0.492   2.036   0.462
 1399TIP3   OH2 4160   1.859   5.628   4.839
 1399TIP3    H1 4161   1.803   5.705   4.833
 1399TIP3    H2 4162   1.925   5.652   4.905
 1400TIP3   OH2 4163   4.578   4.056   2.308
 1400TIP3    H1 4164   4.616   4.021   2.228
 1400TIP3    H2 4165   4.560   3.978   2.362
 1401TIP3   OH2 4166   1.502   5.365   2.941
 1401TIP3    H1 4167   1.500   5.421   2.863
 1401TIP3    H2 4168   1.453   5.413   3.007
 1402TIP3   OH2 4169   2.742   0.793   4.250
 1402TIP3    H1 4170   2.667   0.852   4.251
 1402TIP3    H2 4171   2.714   0.718   4.198
 1403TIP3   OH2 4172   0.457   5.059   1.453
 1403TIP3    H1 4173   0.475   4.968   1.474
 1403TIP3    H2 4174   0.527   5.108   1.497
 1404TIP3   OH2 4175   4.624   6.692   2.082
 1404TIP3    H1 4176   4.658   6.714   1.995
 1404TIP3    H2 4177   4.535   6.661   2.065
 1405TIP3   OH2 4178   2.908   5.944   4.627
 1405TIP3    H1 4179   2.854   5.994   4.566
 1405TIP3    H2 4180   2.882   5.975   4.714
 1406TIP3   OH2 4181   6.361   0.662   3.465
 1406TIP3    H1 4182   6.332   0.744   3.506
 1406TIP3    H2 4183   6.289   0.601   3.479
 1407TIP3   OH2 4184   1.743   2.867   1.311
 1407TIP3    H1 4185   1.802   2.921   1.258
 1407TIP3    H2 4186   1.787   2.860   1.396
 1408TIP3   OH2 4187   5.937   3.342   5.788
 1408TIP3    H1 4188   6.020   3.363   5.830
 1408TIP3    H2 4189   5.877   3.411   5.817
 1409TIP3   OH2 4190   4.039   5.047   3.997
 1409TIP3    H1 4191   4.049   5.117   3.933
 1409TIP3    H2 4192   4.017   5.092   4.079
 1410TIP3   OH2 4193   5.600   2.001   3.842
 1410TIP3    H1 4194   5.508   1.976   3.840
 1410TIP3    H2 4195   5.622   2.018   3.751
 1411TIP3   OH2 4196   5.378   3.562   4.864
 1411TIP3    H1 4197   5.380   3.601   4.777
 1411TIP3    H2 4198   5.456   3.597   4.908
 1412TIP3   OH2 4199   3.614   6.559   5.668
 1412TIP3    H1 4200   3.547   6.627   5.675
 1412TIP3    H2 4201   3.679   6.595   5.607
 1413TIP3   OH2 4202   2.632   0.999   5.805
 1413TIP3    H1 4203   2.676   0.917   5.828
 1413TIP3    H2 4204   2.584   1.024   5.883
 1414TIP3   OH2 4205   0.908   3.038   5.775
 1414TIP3    H1 4206   0.908   2.950   5.737
 1414TIP3    H2 4207   0.824   3.076   5.748
 1415TIP3   OH2 4208   0.120   0.526   2.142
 1415TIP3    H1 4209   0.159   0.540   2.056
 1415TIP3    H2 4210   0.186   0.558   2.204
 1416TIP3   OH2 4211   5.303   3.680   4.292
 1416TIP3    H1 4212   5.221   3.669   4.244
 1416TIP3    H2 4213   5.283   3.649   4.381
 1417TIP3   OH2 4214   4.049   1.095   2.648
 1417TIP3    H1 4215   4.034   1.009   2.609
 1417TIP3    H2 4216   3.963   1.136   2.649
 1418TIP3   OH2 4217   4.709   5.241   4.681
 1418TIP3    H1 4218   4.657   5.319   4.702
 1418TIP3    H2 4219   4.666   5.204   4.604
 1419TIP3   OH2 4220   0.170   1.554   5.568
 1419TIP3    H1 4221   0.115   1.477   5.553
 1419TIP3    H2 4222   0.117   1.627   5.539
 1420TIP3   OH2 4223   5.146   0.434   5.672
 1420TIP3    H1 4224   5.153   0.389   5.757
 1420TIP3    H2 4225   5.052   0.435   5.654
 1421TIP3   OH2 4226   1.511   5.463   0.720
 1421TIP3    H1 4227   1.437   5.507   0.763
 1421TIP3    H2 4228   1.474   5.430   0.638
 1422TIP3   OH2 4229   1.254   6.672   3.603
 1422TIP3    H1 4230   1.346   6.695   3.618
 1422TIP3    H2 4231   1.215   6.670   3.690
 1423TIP3   OH2 4232   4.873   1.315  -0.003
 1423TIP3    H1 4233   4.836   1.230  -0.027
 1423TIP3    H2 4234   4.798   1.373   0.000
 1424TIP3   OH2 4235   6.145   3.095   0.906
 1424TIP3    H1 4236   6.142   3.173   0.962
 1424TIP3    H2 4237   6.237   3.090   0.878
 1425TIP3   OH2 4238   6.450   1.330   0.843
 1425TIP3    H1 4239   6.396   1.369   0.912
 1425TIP3    H2 4240   6.488   1.405   0.797
 1426TIP3   OH2 4241   0.416   6.387   3.426
 1426TIP3    H1 4242   0.400   6.465   3.479
 1426TIP3    H2 4243   0.425   6.316   3.489
 1427TIP3   OH2 4244   6.018   0.318   3.717
 1427TIP3    H1 4245   6.045   0.226   3.726
 1427TIP3    H2 4246   6.100   0.365   3.702
 1428TIP3   OH2 4247   5.134   5.629   3.092
 1428TIP3    H1 4248   5.048   5.617   3.052
 1428TIP3    H2 4249   5.196   5.604   3.023
 1429TIP3   OH2 4250   3.186   1.704   5.220
 1429TIP3    H1 4251   3.179   1.788   5.175
 1429TIP3    H2 4252   3.119   1.707   5.288
 1430TIP3   OH2 4253   2.288   5.459   4.955
 1430TIP3    H1 4254   2.194   5.452   4.941
 1430TIP3    H2 4255   2.322   5.371   4.936
 1431TIP3   OH2 4256   4.858   1.431   0.433
 1431TIP3    H1 4257   4.949   1.446   0.459
 1431TIP3    H2 4258   4.806   1.479   0.498
 1432TIP3   OH2 4259   3.090   6.698   1.311
 1432TIP3    H1 4260   3.152   6.707   1.238
 1432TIP3    H2 4261   3.117   6.765   1.374
 1433TIP3   OH2 4262   0.064   3.683   0.732
 1433TIP3    H1 4263   0.130   3.613   0.721
 1433TIP3    H2 4264   0.066   3.731   0.649
 1434TIP3   OH2 4265   1.648   3.670   5.043
 1434TIP3    H1 4266   1.636   3.576   5.025
 1434TIP3    H2 4267   1.580   3.690   5.108
 1435TIP3   OH2 4268   2.341   0.565   4.893
 1435TIP3    H1 4269   2.326   0.656   4.917
 1435TIP3    H2 4270   2.372   0.524   4.974
 1436TIP3   OH2 4271   5.955   0.228   5.703
 1436TIP3    H1 4272   5.961   0.167   5.777
 1436TIP3    H2 4273   5.930   0.173   5.629
 1437TIP3   OH2 4274   3.185   2.184   0.328
 1437TIP3    H1 4275   3.168   2.183   0.422
 1437TIP3    H2 4276   3.279   2.175   0.319
 1438TIP3   OH2 4277   7.023   6.372   5.512
 1438TIP3    H1 4278   7.003   6.288   5.554
 1438TIP3    H2 4279   6.959   6.380   5.442
 1439TIP3   OH2 4280   0.876   2.405   2.430
 1439TIP3    H1 4281   0.878   2.442   2.518
 1439TIP3    H2 4282   0.968   2.389   2.409
 1440TIP3   OH2 4283   6.336   3.941   3.986
 1440TIP3    H1 4284   6.367   4.028   3.960
 1440TIP3    H2 4285   6.241   3.947   3.983
 1441TIP3   OH2 4286   0.654   4.621   1.714
 1441TIP3    H1 4287   0.661   4.544   1.770
 1441TIP3    H2 4288   0.744   4.644   1.692
 1442TIP3   OH2 4289   4.786   2.016   5.534
 1442TIP3    H1 4290   4.733   1.970   5.468
 1442TIP3    H2 4291   4.778   1.962   5.612
 1443TIP3   OH2 4292   1.606   6.553   1.210
 1443TIP3    H1 4293   1.644   6.466   1.195
 1443TIP3    H2 4294   1.665   6.593   1.274
 1444TIP3   OH2 4295   1.422   6.740   2.902
 1444TIP3    H1 4296   1.332   6.757   2.932
 1444TIP3    H2 4297   1.434   6.803   2.830
 1445TIP3   OH2 4298   2.132   6.663   4.491
 1445TIP3    H1 4299   2.201   6.645   4.554
 1445TIP3    H2 4300   2.163   6.740   4.443
 1446TIP3   OH2 4301   6.510   4.454   2.484
 1446TIP3    H1 4302   6.581   4.458   2.421
 1446TIP3    H2 4303   6.480   4.363   2.482
 1447TIP3   OH2 4304   4.905   5.992   5.762
 1447TIP3    H1 4305   4.868   5.947   5.686
 1447TIP3    H2 4306   4.907   5.926   5.831
 1448TIP3   OH2 4307   4.859   1.767   0.010
 1448TIP3    H1 4308   4.943   1.777   0.056
 1448TIP3    H2 4309   4.809   1.707   0.065
 1449TIP3   OH2 4310   1.351   0.927   1.246
 1449TIP3    H1 4311   1.332   0.986   1.320
 1449TIP3    H2 4312   1.314   0.843   1.273
 1450TIP3   OH2 4313   4.465   6.372   1.434
 1450TIP3    H1 4314   4.451   6.456   1.477
 1450TIP3    H2 4315   4.385   6.357   1.384
 1451TIP3   OH2 4316   2.328   3.360   2.828
 1451TIP3    H1 4317   2.384   3.283   2.837
 1451TIP3    H2 4318   2.244   3.326   2.798
 1452TIP3   OH2 4319   6.368   5.566   3.374
 1452TIP3    H1 4320   6.384   5.518   3.455
 1452TIP3    H2 4321   6.344   5.498   3.311
 1453TIP3   OH2 4322   6.656   0.170   0.861
 1453TIP3    H1 4323   6.703   0.088   0.847
 1453TIP3    H2 4324   6.724   0.237   0.865
 1454TIP3   OH2 4325   0.999   6.596   0.082
 1454TIP3    H1 4326   1.068   6.637   0.030
 1454TIP3    H2 4327   0.919   6.614   0.034
 1455TIP3   OH2 4328   5.953   4.481   1.939
 1455TIP3    H1 4329   6.012   4.538   1.890
 1455TIP3    H2 4330   6.004   4.401   1.954
 1456TIP3   OH2 4331   3.425   5.201   2.557
 1456TIP3    H1 4332   3.482   5.144   2.609
 1456TIP3    H2 4333   3.452   5.290   2.581
 1457TIP3   OH2 4334   0.171   0.898   0.293
 1457TIP3    H1 4335   0.189   0.817   0.245
 1457TIP3    H2 4336   0.076   0.906   0.291
 1458TIP3   OH2 4337   0.876   5.654   4.564
 1458TIP3    H1 4338   0.949   5.593   4.550
 1458TIP3    H2 4339   0.897   5.699   4.646
 1459TIP3   OH2 4340   6.192   3.370   4.196
 1459TIP3    H1 4341   6.181   3.395   4.287
 1459TIP3    H2 4342   6.120   3.308   4.180
 1460TIP3   OH2 4343   6.548   5.475   1.614
 1460TIP3    H1 4344   6.464   5.504   1.578
 1460TIP3    H2 4345   6.536   5.382   1.631
 1461TIP3   OH2 4346   0.458   1.812   4.835
 1461TIP3    H1 4347   0.514   1.782   4.764
 1461TIP3    H2 4348   0.462   1.907   4.831
 1462TIP3   OH2 4349   5.417   3.920   3.915
 1462TIP3    H1 4350   5.464   3.994   3.875
 1462TIP3    H2 4351   5.330   3.923   3.875
 1463TIP3   OH2 4352   7.203   2.577   3.549
 1463TIP3    H1 4353   7.247   2.567   3.464
 1463TIP3    H2 4354   7.243   2.510   3.604
 1464TIP3   OH2 4355   0.021   5.697   1.381
 1464TIP3    H1 4356  -0.016   5.733   1.300
 1464TIP3    H2 4357  -0.053   5.654   1.424
 1465TIP3   OH2 4358   3.347   4.105   3.505
 1465TIP3    H1 4359   3.263   4.150   3.499
 1465TIP3    H2 4360   3.357   4.061   3.420
 1466TIP3   OH2 4361   2.931   1.657   3.439
 1466TIP3    H1 4362   2.901   1.717   3.370
 1466TIP3    H2 4363   3.007   1.612   3.401
 1467TIP3   OH2 4364   2.005   1.478   2.200
 1467TIP3    H1 4365   2.094   1.510   2.212
 1467TIP3    H2 4366   1.976   1.520   2.119
 1468TIP3   OH2 4367   3.995   6.801   0.417
 1468TIP3    H1 4368   4.054   6.767   0.350
 1468TIP3    H2 4369   3.926   6.735   0.424
 1469TIP3   OH2 4370   0.367   1.015   4.333
 1469TIP3    H1 4371   0.331   1.078   4.271
 1469TIP3    H2 4372   0.427   1.065   4.387
 1470TIP3   OH2 4373   6.736   0.691   0.181
 1470TIP3    H1 4374   6.764   0.750   0.251
 1470TIP3    H2 4375   6.696   0.617   0.227
 1471TIP3   OH2 4376   5.202   4.912   1.135
 1471TIP3    H1 4377   5.259   4.957   1.198
 1471TIP3    H2 4378   5.161   4.842   1.186
 1472TIP3   OH2 4379   2.032   0.499   4.378
 1472TIP3    H1 4380   2.117   0.474   4.341
 1472TIP3    H2 4381   2.019   0.439   4.451
 1473TIP3   OH2 4382   5.809   4.481   3.676
 1473TIP3    H1 4383   5.900   4.507   3.690
 1473TIP3    H2 4384   5.809   4.439   3.591
 1474TIP3   OH2 4385   1.383   1.679   0.313
 1474TIP3    H1 4386   1.385   1.668   0.408
 1474TIP3    H2 4387   1.331   1.605   0.282
 1475TIP3   OH2 4388   1.324   1.193   5.000
 1475TIP3    H1 4389   1.391   1.125   4.999
 1475TIP3    H2 4390   1.373   1.274   5.016
 1476TIP3   OH2 4391   2.160   3.626   5.108
 1476TIP3    H1 4392   2.177   3.621   5.202
 1476TIP3    H2 4393   2.092   3.560   5.092
 1477TIP3   OH2 4394   2.267   4.866   3.055
 1477TIP3    H1 4395   2.287   4.850   2.963
 1477TIP3    H2 4396   2.174   4.885   3.057
 1478TIP3   OH2 4397   6.379   5.622   2.778
 1478TIP3    H1 4398   6.319   5.636   2.851
 1478TIP3    H2 4399   6.429   5.704   2.772
 1479TIP3   OH2 4400   4.179   2.424   3.680
 1479TIP3    H1 4401   4.228   2.504   3.658
 1479TIP3    H2 4402   4.112   2.454   3.741
 1480TIP3   OH2 4403   6.802  -0.014   0.398
 1480TIP3    H1 4404   6.831   0.066   0.441
 1480TIP3    H2 4405   6.754  -0.061   0.467
 1481TIP3   OH2 4406   6.411   6.406   2.138
 1481TIP3    H1 4407   6.420   6.458   2.218
 1481TIP3    H2 4408   6.446   6.320   2.160
 1482TIP3   OH2 4409   3.321   2.654   1.792
 1482TIP3    H1 4410   3.330   2.559   1.782
 1482TIP3    H2 4411   3.261   2.665   1.866
 1483TIP3   OH2 4412   5.656   2.315   5.167
 1483TIP3    H1 4413   5.713   2.367   5.223
 1483TIP3    H2 4414   5.590   2.377   5.136
 1484TIP3   OH2 4415   4.761   4.938   4.630
 1484TIP3    H1 4416   4.738   4.863   4.575
 1484TIP3    H2 4417   4.715   5.012   4.592
 1485TIP3   OH2 4418   0.407   3.768   5.247
 1485TIP3    H1 4419   0.481   3.711   5.227
 1485TIP3    H2 4420   0.370   3.732   5.327
 1486TIP3   OH2 4421   0.084   5.610   3.100
 1486TIP3    H1 4422   0.047   5.679   3.154
 1486TIP3    H2 4423   0.178   5.630   3.097
 1487TIP3   OH2 4424   3.420   5.835   4.974
 1487TIP3    H1 4425   3.432   5.770   4.905
 1487TIP3    H2 4426   3.434   5.788   5.056
 1488TIP3   OH2 4427   4.177   6.300   1.606
 1488TIP3    H1 4428   4.164   6.294   1.511
 1488TIP3    H2 4429   4.168   6.393   1.625
 1489TIP3   OH2 4430   2.265   2.807   3.480
 1489TIP3    H1 4431   2.311   2.745   3.538
 1489TIP3    H2 4432   2.322   2.814   3.403
 1490TIP3   OH2 4433   6.865   2.727   4.647
 1490TIP3    H1 4434   6.801   2.772   4.592
 1490TIP3    H2 4435   6.842   2.635   4.639
 1491TIP3   OH2 4436   0.391   3.096   3.748
 1491TIP3    H1 4437   0.344   3.024   3.791
 1491TIP3    H2 4438   0.328   3.167   3.746
 1492TIP3   OH2 4439   1.228   3.533   3.512
 1492TIP3    H1 4440   1.134   3.554   3.512
 1492TIP3    H2 4441   1.257   3.555   3.601
 1493TIP3   OH2 4442   6.241   3.485   0.923
 1493TIP3    H1 4443   6.314   3.459   0.980
 1493TIP3    H2 4444   6.262   3.575   0.897
 1494TIP3   OH2 4445   0.778   3.491   3.067
 1494TIP3    H1 4446   0.869   3.506   3.092
 1494TIP3    H2 4447   0.727   3.545   3.128
 1495TIP3   OH2 4448   3.963   5.168   4.835
 1495TIP3    H1 4449   3.950   5.252   4.791
 1495TIP3    H2 4450   4.057   5.151   4.826
 1496TIP3   OH2 4451   6.282   4.395   0.099
 1496TIP3    H1 4452   6.235   4.380   0.017
 1496TIP3    H2 4453   6.265   4.315   0.150
 1497TIP3   OH2 4454   3.052   3.907   0.448
 1497TIP3    H1 4455   2.977   3.865   0.406
 1497TIP3    H2 4456   3.095   3.956   0.378
 1498TIP3   OH2 4457   1.073   2.069   4.660
 1498TIP3    H1 4458   1.068   2.141   4.724
 1498TIP3    H2 4459   1.099   2.111   4.578
 1499TIP3   OH2 4460   3.877   1.327   1.224
 1499TIP3    H1 4461   3.849   1.365   1.307
 1499TIP3    H2 4462   3.933   1.253   1.248
 1500TIP3   OH2 4463   3.292   4.052   0.312
 1500TIP3    H1 4464   3.293   4.148   0.321
 1500TIP3    H2 4465   3.385   4.028   0.316
 1501TIP3   OH2 4466  -0.005   1.889   4.497
 1501TIP3    H1 4467   0.044   1.891   4.415
 1501TIP3    H2 4468   0.045   1.946   4.556
 1502TIP3   OH2 4469   3.232   4.139   0.854
 1502TIP3    H1 4470   3.224   4.072   0.786
 1502TIP3    H2 4471   3.296   4.201   0.819
 1503TIP3   OH2 4472   0.618   6.046   2.352
 1503TIP3    H1 4473   0.635   6.039   2.446
 1503TIP3    H2 4474   0.655   5.965   2.316
 1504TIP3   OH2 4475   6.670   2.256   4.986
 1504TIP3    H1 4476   6.754   2.291   5.016
 1504TIP3    H2 4477   6.655   2.180   5.043
 1505TIP3   OH2 4478   3.669   1.265   2.871
 1505TIP3    H1 4479   3.722   1.294   2.945
 1505TIP3    H2 4480   3.654   1.344   2.819
 1506TIP3   OH2 4481   7.003   1.081   4.657
 1506TIP3    H1 4482   6.988   0.993   4.692
 1506TIP3    H2 4483   7.035   1.131   4.732
 1507TIP3   OH2 4484   5.517   4.463   1.595
 1507TIP3    H1 4485   5.461   4.385   1.590
 1507TIP3    H2 4486   5.580   4.442   1.664
 1508TIP3   OH2 4487   4.239   5.919   2.950
 1508TIP3    H1 4488   4.312   5.897   2.892
 1508TIP3    H2 4489   4.161   5.897   2.899
 1509TIP3   OH2 4490   2.094   5.821   3.833
 1509TIP3    H1 4491   2.081   5.736   3.790
 1509TIP3    H2 4492   2.111   5.798   3.925
 1510TIP3   OH2 4493   0.985   4.728   4.974
 1510TIP3    H1 4494   1.013   4.639   4.996
 1510TIP3    H2 4495   0.895   4.718   4.943
 1511TIP3   OH2 4496   2.507   2.370   0.032
 1511TIP3    H1 4497   2.443   2.302   0.012
 1511TIP3    H2 4498   2.548   2.340   0.113
 1512TIP3   OH2 4499   5.919   5.808   2.343
 1512TIP3    H1 4500   5.926   5.877   2.277
 1512TIP3    H2 4501   5.841   5.832   2.393
 1513TIP3   OH2 4502   0.637   1.980   1.894
 1513TIP3    H1 4503   0.710   1.988   1.956
 1513TIP3    H2 4504   0.568   1.936   1.943
 1514TIP3   OH2 4505   3.782   5.393  -0.068
 1514TIP3    H1 4506   3.810   5.484  -0.078
 1514TIP3    H2 4507   3.856   5.341  -0.100
 1515TIP3   OH2 4508   4.447   0.817   2.427
 1515TIP3    H1 4509   4.466   0.813   2.521
 1515TIP3    H2 4510   4.390   0.742   2.411
 1516TIP3   OH2 4511   4.570   3.294   1.071
 1516TIP3    H1 4512   4.548   3.269   1.160
 1516TIP3    H2 4513   4.592   3.212   1.028
 1517TIP3   OH2 4514   5.491   4.525   4.869
 1517TIP3    H1 4515   5.584   4.528   4.892
 1517TIP3    H2 4516   5.489   4.481   4.785
 1518TIP3   OH2 4517   3.284   3.962   4.714
 1518TIP3    H1 4518   3.268   3.868   4.715
 1518TIP3    H2 4519   3.197   4.002   4.712
 1519TIP3   OH2 4520   5.900   1.030   5.357
 1519TIP3    H1 4521   5.925   1.116   5.388
 1519TIP3    H2 4522   5.844   0.995   5.427
 1520TIP3   OH2 4523   3.796   6.629   3.748
 1520TIP3    H1 4524   3.747   6.628   3.830
 1520TIP3    H2 4525   3.755   6.560   3.695
 1521TIP3   OH2 4526   5.242   6.001   5.010
 1521TIP3    H1 4527   5.221   6.063   4.941
 1521TIP3    H2 4528   5.227   5.915   4.970
 1522TIP3   OH2 4529   5.303   6.296   4.123
 1522TIP3    H1 4530   5.209   6.307   4.106
 1522TIP3    H2 4531   5.327   6.217   4.075
 1523TIP3   OH2 4532   2.425   2.736   5.600
 1523TIP3    H1 4533   2.413   2.747   5.505
 1523TIP3    H2 4534   2.514   2.703   5.609
 1524TIP3   OH2 4535   3.671   3.932   2.984
 1524TIP3    H1 4536   3.726   3.893   3.052
 1524TIP3    H2 4537   3.697   4.024   2.982
 1525TIP3   OH2 4538   2.058   5.292   1.218
 1525TIP3    H1 4539   1.963   5.288   1.204
 1525TIP3    H2 4540   2.068   5.311   1.311
 1526TIP3   OH2 4541   5.838   3.217   2.223
 1526TIP3    H1 4542   5.877   3.177   2.301
 1526TIP3    H2 4543   5.896   3.289   2.201
 1527TIP3   OH2 4544   1.059   5.269   5.825
 1527TIP3    H1 4545   0.997   5.223   5.768
 1527TIP3    H2 4546   1.024   5.257   5.913
 1528TIP3   OH2 4547   7.101   1.629   4.346
 1528TIP3    H1 4548   7.185   1.582   4.345
 1528TIP3    H2 4549   7.125   1.721   4.338
 1529TIP3   OH2 4550   7.096   1.947   5.311
 1529TIP3    H1 4551   7.020   1.988   5.352
 1529TIP3    H2 4552   7.068   1.928   5.222
 1530TIP3   OH2 4553   4.727   5.725   3.594
 1530TIP3    H1 4554   4.704   5.733   3.502
 1530TIP3    H2 4555   4.751   5.633   3.605
 1531TIP3   OH2 4556   6.873   5.758   1.803
 1531TIP3    H1 4557   6.816   5.684   1.822
 1531TIP3    H2 4558   6.885   5.756   1.708
 1532TIP3   OH2 4559   2.578   3.871   4.496
 1532TIP3    H1 4560   2.659   3.826   4.474
 1532TIP3    H2 4561   2.555   3.838   4.583
 1533TIP3   OH2 4562   6.283   1.086   3.814
 1533TIP3    H1 4563   6.264   1.059   3.904
 1533TIP3    H2 4564   6.210   1.144   3.791
 1534TIP3   OH2 4565   3.901   6.291   3.615
 1534TIP3    H1 4566   3.934   6.349   3.546
 1534TIP3    H2 4567   3.866   6.215   3.568
 1535TIP3   OH2 4568   5.272   2.980   1.152
 1535TIP3    H1 4569   5.361   2.952   1.172
 1535TIP3    H2 4570   5.216   2.915   1.194
 1536TIP3   OH2 4571   2.871   4.538   3.309
 1536TIP3    H1 4572   2.817   4.489   3.371
 1536TIP3    H2 4573   2.812   4.603   3.271
 1537TIP3   OH2 4574   6.836   0.768   2.646
 1537TIP3    H1 4575   6.913   0.824   2.642
 1537TIP3    H2 4576   6.865   0.684   2.609
 1538TIP3   OH2 4577   6.980   0.023   3.026
 1538TIP3    H1 4578   7.051   0.049   3.085
 1538TIP3    H2 4579   6.933   0.104   3.007
 1539TIP3   OH2 4580   0.592   5.941   0.598
 1539TIP3    H1 4581   0.513   5.908   0.556
 1539TIP3    H2 4582   0.566   5.957   0.689
 1540TIP3   OH2 4583   0.758   4.768   1.137
 1540TIP3    H1 4584   0.686   4.741   1.194
 1540TIP3    H2 4585   0.796   4.844   1.181
 1541TIP3   OH2 4586   3.699   4.280   5.345
 1541TIP3    H1 4587   3.683   4.271   5.251
 1541TIP3    H2 4588   3.619   4.249   5.386
 1542TIP3   OH2 4589   4.739   5.739   0.480
 1542TIP3    H1 4590   4.647   5.734   0.506
 1542TIP3    H2 4591   4.772   5.817   0.525
 1543TIP3   OH2 4592   1.697   4.460   1.570
 1543TIP3    H1 4593   1.753   4.409   1.629
 1543TIP3    H2 4594   1.608   4.431   1.590
 1544TIP3   OH2 4595   6.112   6.441   3.077
 1544TIP3    H1 4596   6.153   6.440   2.990
 1544TIP3    H2 4597   6.161   6.505   3.127
 1545TIP3   OH2 4598   6.560   4.464   0.645
 1545TIP3    H1 4599   6.529   4.385   0.601
 1545TIP3    H2 4600   6.637   4.435   0.693
 1546TIP3   OH2 4601   1.784   6.787   5.275
 1546TIP3    H1 4602   1.784   6.692   5.290
 1546TIP3    H2 4603   1.697   6.807   5.242
 1547TIP3   OH2 4604   2.508   0.512   4.691
 1547TIP3    H1 4605   2.446   0.550   4.753
 1547TIP3    H2 4606   2.503   0.569   4.614
 1548TIP3   OH2 4607   4.690   6.600   2.502
 1548TIP3    H1 4608   4.599   6.587   2.474
 1548TIP3    H2 4609   4.732   6.641   2.427
 1549TIP3   OH2 4610   4.686   1.905   4.505
 1549TIP3    H1 4611   4.627   1.891   4.579
 1549TIP3    H2 4612   4.725   1.819   4.488
 1550TIP3   OH2 4613   5.881   4.890   0.595
 1550TIP3    H1 4614   5.853   4.814   0.647
 1550TIP3    H2 4615   5.947   4.933   0.648
 1551TIP3   OH2 4616   0.286   5.841   5.057
 1551TIP3    H1 4617   0.203   5.852   5.011
 1551TIP3    H2 4618   0.261   5.809   5.144
 1552TIP3   OH2 4619   2.269   6.056   1.860
 1552TIP3    H1 4620   2.296   6.001   1.786
 1552TIP3    H2 4621   2.188   6.016   1.891
 1553TIP3   OH2 4622   3.878   1.301   2.134
 1553TIP3    H1 4623   3.910   1.368   2.074
 1553TIP3    H2 4624   3.819   1.347   2.194
 1554TIP3   OH2 4625   4.844   0.649   3.334
 1554TIP3    H1 4626   4.777   0.691   3.280
 1554TIP3    H2 4627   4.852   0.561   3.298
 1555TIP3   OH2 4628   4.210   4.663   1.489
 1555TIP3    H1 4629   4.127   4.631   1.524
 1555TIP3    H2 4630   4.248   4.716   1.559
 1556TIP3   OH2 4631   4.027   2.577   4.172
 1556TIP3    H1 4632   4.004   2.594   4.263
 1556TIP3    H2 4633   4.095   2.510   4.177
 1557TIP3   OH2 4634   3.083   4.781   0.330
 1557TIP3    H1 4635   3.031   4.722   0.385
 1557TIP3    H2 4636   3.030   4.792   0.251
 1558TIP3   OH2 4637   5.054   2.022   2.527
 1558TIP3    H1 4638   5.013   2.091   2.475
 1558TIP3    H2 4639   4.983   1.988   2.582
 1559TIP3   OH2 4640   4.314   0.127   5.732
 1559TIP3    H1 4641   4.280   0.179   5.659
 1559TIP3    H2 4642   4.353   0.050   5.690
 1560TIP3   OH2 4643   5.399   2.264   2.729
 1560TIP3    H1 4644   5.336   2.239   2.662
 1560TIP3    H2 4645   5.358   2.336   2.777
 1561TIP3   OH2 4646   1.723   5.699   3.986
 1561TIP3    H1 4647   1.794   5.659   3.935
 1561TIP3    H2 4648   1.674   5.625   4.021
 1562TIP3   OH2 4649   5.271   2.054   1.834
 1562TIP3    H1 4650   5.241   1.988   1.772
 1562TIP3    H2 4651   5.197   2.115   1.842
 1563TIP3   OH2 4652   1.899   4.914   1.111
 1563TIP3    H1 4653   1.824   4.937   1.057
 1563TIP3    H2 4654   1.903   4.818   1.106
 1564TIP3   OH2 4655   6.121   3.195   0.211
 1564TIP3    H1 4656   6.188   3.186   0.279
 1564TIP3    H2 4657   6.081   3.280   0.229
 1565TIP3   OH2 4658   6.988   6.223   1.796
 1565TIP3    H1 4659   6.993   6.306   1.748
 1565TIP3    H2 4660   7.016   6.157   1.732
 1566TIP3   OH2 4661   6.436   4.672   3.344
 1566TIP3    H1 4662   6.467   4.635   3.261
 1566TIP3    H2 4663   6.505   4.652   3.406
 1567TIP3   OH2 4664   4.633   4.075   2.884
 1567TIP3    H1 4665   4.663   4.001   2.832
 1567TIP3    H2 4666   4.565   4.116   2.831
 1568TIP3   OH2 4667   1.944   3.580   3.797
 1568TIP3    H1 4668   2.003   3.598   3.725
 1568TIP3    H2 4669   1.946   3.484   3.806
 1569TIP3   OH2 4670   5.070   0.213   3.297
 1569TIP3    H1 4671   5.096   0.145   3.358
 1569TIP3    H2 4672   5.080   0.174   3.210
 1570TIP3   OH2 4673   3.235   6.124   3.625
 1570TIP3    H1 4674   3.236   6.028   3.625
 1570TIP3    H2 4675   3.310   6.148   3.571
 1571TIP3   OH2 4676   2.559   3.951   2.981
 1571TIP3    H1 4677   2.502   3.878   2.956
 1571TIP3    H2 4678   2.645   3.911   2.994
 1572TIP3   OH2 4679   1.170   0.873   3.583
 1572TIP3    H1 4680   1.211   0.871   3.669
 1572TIP3    H2 4681   1.239   0.846   3.523
 1573TIP3   OH2 4682   1.742   0.678   2.528
 1573TIP3    H1 4683   1.821   0.674   2.476
 1573TIP3    H2 4684   1.709   0.588   2.530
 1574TIP3   OH2 4685   6.589   2.338   5.655
 1574TIP3    H1 4686   6.549   2.252   5.643
 1574TIP3    H2 4687   6.534   2.398   5.606
 1575TIP3   OH2 4688   1.630   3.851   0.801
 1575TIP3    H1 4689   1.564   3.797   0.843
 1575TIP3    H2 4690   1.714   3.817   0.833
 1576TIP3   OH2 4691   4.734   2.878   0.252
 1576TIP3    H1 4692   4.811   2.822   0.243
 1576TIP3    H2 4693   4.756   2.957   0.204
 1577TIP3   OH2 4694   0.942   0.608   1.239
 1577TIP3    H1 4695   0.872   0.662   1.202
 1577TIP3    H2 4696   0.931   0.617   1.334
 1578TIP3   OH2 4697   4.565   0.118   1.466
 1578TIP3    H1 4698   4.486   0.083   1.424
 1578TIP3    H2 4699   4.533   0.157   1.548
 1579TIP3   OH2 4700   3.804   3.075   4.170
 1579TIP3    H1 4701   3.747   2.999   4.163
 1579TIP3    H2 4702   3.845   3.068   4.257
 1580TIP3   OH2 4703   4.977   3.202   1.201
 1580TIP3    H1 4704   4.929   3.271   1.155
 1580TIP3    H2 4705   5.062   3.241   1.221
 1581TIP3   OH2 4706   1.142   2.935   3.528
 1581TIP3    H1 4707   1.072   2.955   3.591
 1581TIP3    H2 4708   1.109   2.861   3.478
 1582TIP3   OH2 4709   2.978   4.292   2.030
 1582TIP3    H1 4710   2.892   4.333   2.039
 1582TIP3    H2 4711   3.013   4.290   2.119
 1583TIP3   OH2 4712   0.261   6.129   4.244
 1583TIP3    H1 4713   0.310   6.103   4.322
 1583TIP3    H2 4714   0.329   6.155   4.182
 1584TIP3   OH2 4715   6.419   3.219   3.688
 1584TIP3    H1 4716   6.427   3.150   3.622
 1584TIP3    H2 4717   6.356   3.281   3.650
 1585TIP3   OH2 4718   2.552   5.303   5.218
 1585TIP3    H1 4719   2.608   5.255   5.279
 1585TIP3    H2 4720   2.464   5.270   5.235
 1586TIP3   OH2 4721   5.768   3.821   1.474
 1586TIP3    H1 4722   5.705   3.878   1.519
 1586TIP3    H2 4723   5.763   3.848   1.382
 1587TIP3   OH2 4724   5.280   1.497   0.277
 1587TIP3    H1 4725   5.346   1.563   0.295
 1587TIP3    H2 4726   5.290   1.478   0.184
 1588TIP3   OH2 4727   0.060   5.939   3.087
 1588TIP3    H1 4728   0.102   5.890   3.157
 1588TIP3    H2 4729  -0.032   5.944   3.112
 1589TIP3   OH2 4730   0.680   5.780   1.579
 1589TIP3    H1 4731   0.723   5.699   1.607
 1589TIP3    H2 4732   0.724   5.803   1.497
 1590TIP3   OH2 4733   6.537   4.722   2.066
 1590TIP3    H1 4734   6.499   4.743   2.151
 1590TIP3    H2 4735   6.607   4.786   2.054
 1591TIP3   OH2 4736   6.943   6.566   3.276
 1591TIP3    H1 4737   6.962   6.643   3.331
 1591TIP3    H2 4738   6.875   6.596   3.216
 1592TIP3   OH2 4739   1.315   3.958   2.979
 1592TIP3    H1 4740   1.332   4.036   2.925
 1592TIP3    H2 4741   1.310   3.992   3.069
 1593TIP3   OH2 4742   4.503   6.059   1.491
 1593TIP3    H1 4743   4.570   6.122   1.516
 1593TIP3    H2 4744   4.476   6.087   1.403
 1594TIP3   OH2 4745   3.297  -0.040   5.832
 1594TIP3    H1 4746   3.302   0.048   5.796
 1594TIP3    H2 4747   3.293  -0.027   5.927
 1595TIP3   OH2 4748   0.874   4.600   4.419
 1595TIP3    H1 4749   0.926   4.645   4.352
 1595TIP3    H2 4750   0.840   4.670   4.474
 1596TIP3   OH2 4751   6.044   2.224   5.604
 1596TIP3    H1 4752   6.098   2.302   5.588
 1596TIP3    H2 4753   6.105   2.150   5.593
 1597TIP3   OH2 4754   0.990   0.378   0.031
 1597TIP3    H1 4755   0.968   0.464   0.069
 1597TIP3    H2 4756   0.908   0.328   0.036
 1598TIP3   OH2 4757   4.221   5.555   4.493
 1598TIP3    H1 4758   4.306   5.527   4.528
 1598TIP3    H2 4759   4.187   5.478   4.449
 1599TIP3   OH2 4760   0.343   4.205   2.813
 1599TIP3    H1 4761   0.397   4.144   2.863
 1599TIP3    H2 4762   0.313   4.269   2.878
 1600TIP3   OH2 4763   3.336   4.869   1.754
 1600TIP3    H1 4764   3.408   4.929   1.738
 1600TIP3    H2 4765   3.259   4.914   1.719
 1601TIP3   OH2 4766   2.495   2.422   5.345
 1601TIP3    H1 4767   2.515   2.384   5.259
 1601TIP3    H2 4768   2.456   2.507   5.324
 1602TIP3   OH2 4769   3.228   5.597   0.882
 1602TIP3    H1 4770   3.219   5.584   0.788
 1602TIP3    H2 4771   3.138   5.608   0.914
 1603TIP3   OH2 4772   6.651   5.476   4.750
 1603TIP3    H1 4773   6.732   5.448   4.706
 1603TIP3    H2 4774   6.625   5.556   4.703
 1604TIP3   OH2 4775   1.515   1.784   5.477
 1604TIP3    H1 4776   1.559   1.738   5.404
 1604TIP3    H2 4777   1.422   1.766   5.463
 1605TIP3   OH2 4778   3.968   2.213   0.440
 1605TIP3    H1 4779   4.050   2.165   0.447
 1605TIP3    H2 4780   3.994   2.305   0.436
 1606TIP3   OH2 4781   4.566   4.167   4.139
 1606TIP3    H1 4782   4.564   4.091   4.081
 1606TIP3    H2 4783   4.544   4.241   4.083
 1607TIP3   OH2 4784   2.612   5.379   1.999
 1607TIP3    H1 4785   2.695   5.370   2.047
 1607TIP3    H2 4786   2.625   5.455   1.943
 1608TIP3   OH2 4787   6.504   3.027   2.730
 1608TIP3    H1 4788   6.562   3.103   2.741
 1608TIP3    H2 4789   6.501   3.014   2.635
 1609TIP3   OH2 4790   0.607   0.702   3.983
 1609TIP3    H1 4791   0.634   0.739   3.898
 1609TIP3    H2 4792   0.516   0.728   3.992
 1610TIP3   OH2 4793   2.037   6.703   3.792
 1610TIP3    H1 4794   2.085   6.658   3.862
 1610TIP3    H2 4795   1.981   6.765   3.839
 1611TIP3   OH2 4796   4.813   1.618   3.043
 1611TIP3    H1 4797   4.872   1.559   2.997
 1611TIP3    H2 4798   4.757   1.560   3.096
 1612TIP3   OH2 4799   6.778   3.773   3.180
 1612TIP3    H1 4800   6.745   3.698   3.230
 1612TIP3    H2 4801   6.700   3.809   3.138
 1613TIP3   OH2 4802   0.546   0.744   1.968
 1613TIP3    H1 4803   0.619   0.806   1.972
 1613TIP3    H2 4804   0.585   0.660   1.992
 1614TIP3   OH2 4805   0.495   4.997   4.604
 1614TIP3    H1 4806   0.513   5.009   4.511
 1614TIP3    H2 4807   0.402   5.019   4.613
 1615TIP3   OH2 4808   3.390   0.143   0.011
 1615TIP3    H1 4809   3.303   0.106   0.029
 1615TIP3    H2 4810   3.434   0.142   0.096
 1616TIP3   OH2 4811   5.690   1.141   5.740
 1616TIP3    H1 4812   5.701   1.141   5.835
 1616TIP3    H2 4813   5.629   1.212   5.723
 1617TIP3   OH2 4814   2.034   5.044   4.390
 1617TIP3    H1 4815   2.064   4.970   4.443
 1617TIP3    H2 4816   1.939   5.044   4.402
 1618TIP3   OH2 4817   5.838   0.307   2.534
 1618TIP3    H1 4818   5.905   0.298   2.601
 1618TIP3    H2 4819   5.830   0.402   2.520
 1619TIP3   OH2 4820   3.202   1.478   1.194
 1619TIP3    H1 4821   3.285   1.498   1.150
 1619TIP3    H2 4822   3.226   1.420   1.266
 1620TIP3   OH2 4823   4.411   5.208   5.558
 1620TIP3    H1 4824   4.333   5.156   5.575
 1620TIP3    H2 4825   4.382   5.299   5.564
 1621TIP3   OH2 4826   5.400   0.065   4.149
 1621TIP3    H1 4827   5.437  -0.021   4.167
 1621TIP3    H2 4828   5.432   0.121   4.220
 1622TIP3   OH2 4829   1.855   0.177   2.911
 1622TIP3    H1 4830   1.929   0.116   2.912
 1622TIP3    H2 4831   1.777   0.121   2.914
 1623TIP3   OH2 4832   5.255   6.792   3.149
 1623TIP3    H1 4833   5.318   6.819   3.083
 1623TIP3    H2 4834   5.305   6.794   3.231
 1624TIP3   OH2 4835   4.518   1.222   3.015
 1624TIP3    H1 4836   4.465   1.167   2.958
 1624TIP3    H2 4837   4.606   1.219   2.976
 1625TIP3   OH2 4838   5.150   6.185   4.450
 1625TIP3    H1 4839   5.127   6.111   4.507
 1625TIP3    H2 4840   5.185   6.144   4.371
 1626TIP3   OH2 4841   2.662   1.008   1.021
 1626TIP3    H1 4842   2.699   0.928   0.984
 1626TIP3    H2 4843   2.582   1.023   0.971
 1627TIP3   OH2 4844   3.449   5.312   0.818
 1627TIP3    H1 4845   3.428   5.378   0.884
 1627TIP3    H2 4846   3.435   5.357   0.734
 1628TIP3   OH2 4847   3.666   2.770   3.956
 1628TIP3    H1 4848   3.742   2.711   3.950
 1628TIP3    H2 4849   3.634   2.758   4.046
 1629TIP3   OH2 4850   6.992   1.954   4.822
 1629TIP3    H1 4851   6.945   1.926   4.901
 1629TIP3    H2 4852   7.084   1.937   4.841
 1630TIP3   OH2 4853   5.411   2.441   3.171
 1630TIP3    H1 4854   5.392   2.349   3.183
 1630TIP3    H2 4855   5.354   2.468   3.099
 1631TIP3   OH2 4856   5.543   3.948   2.503
 1631TIP3    H1 4857   5.637   3.950   2.484
 1631TIP3    H2 4858   5.509   4.029   2.464
 1632TIP3   OH2 4859   6.763   0.522   3.150
 1632TIP3    H1 4860   6.727   0.475   3.074
 1632TIP3    H2 4861   6.687   0.563   3.191
 1633TIP3   OH2 4862   1.505   2.103   4.184
 1633TIP3    H1 4863   1.526   2.158   4.259
 1633TIP3    H2 4864   1.567   2.030   4.190
 1634TIP3   OH2 4865   3.830   5.385   0.924
 1634TIP3    H1 4866   3.864   5.377   0.835
 1634TIP3    H2 4867   3.759   5.449   0.917
 1635TIP3   OH2 4868   1.155   6.250   2.535
 1635TIP3    H1 4869   1.227   6.227   2.593
 1635TIP3    H2 4870   1.188   6.232   2.446
 1636TIP3   OH2 4871   4.988   3.124   4.354
 1636TIP3    H1 4872   4.900   3.123   4.316
 1636TIP3    H2 4873   5.044   3.087   4.286
 1637TIP3   OH2 4874   2.553   2.382   3.218
 1637TIP3    H1 4875   2.578   2.472   3.197
 1637TIP3    H2 4876   2.461   2.387   3.243
 1638TIP3   OH2 4877   5.981   4.713   5.788
 1638TIP3    H1 4878   6.041   4.645   5.819
 1638TIP3    H2 4879   6.037   4.773   5.738
 1639TIP3   OH2 4880   2.680   1.717   3.189
 1639TIP3    H1 4881   2.758   1.769   3.207
 1639TIP3    H2 4882   2.709   1.650   3.127
 1640TIP3   OH2 4883   1.206   0.341   2.613
 1640TIP3    H1 4884   1.299   0.319   2.625
 1640TIP3    H2 4885   1.202   0.381   2.526
 1641TIP3   OH2 4886   2.220   3.988   1.460
 1641TIP3    H1 4887   2.286   4.022   1.521
 1641TIP3    H2 4888   2.271   3.935   1.398
 1642TIP3   OH2 4889   0.303   0.405   5.003
 1642TIP3    H1 4890   0.227   0.410   4.945
 1642TIP3    H2 4891   0.267   0.406   5.091
 1643TIP3   OH2 4892   6.153   1.985   5.201
 1643TIP3    H1 4893   6.140   1.929   5.124
 1643TIP3    H2 4894   6.119   1.934   5.274
 1644TIP3   OH2 4895   1.398   5.541   3.124
 1644TIP3    H1 4896   1.360   5.628   3.111
 1644TIP3    H2 4897   1.459   5.552   3.197
 1645TIP3   OH2 4898   3.074   3.518   2.466
 1645TIP3    H1 4899   3.013   3.588   2.441
 1645TIP3    H2 4900   3.109   3.546   2.550
 1646TIP3   OH2 4901   2.881   4.393   4.252
 1646TIP3    H1 4902   2.811   4.330   4.271
 1646TIP3    H2 4903   2.848   4.442   4.177
 1647TIP3   OH2 4904   1.459   0.224   2.693
 1647TIP3    H1 4905   1.433   0.132   2.702
 1647TIP3    H2 4906   1.463   0.257   2.782
 1648TIP3   OH2 4907   6.360   3.679   4.027
 1648TIP3    H1 4908   6.326   3.655   3.941
 1648TIP3    H2 4909   6.385   3.771   4.019
 1649TIP3   OH2 4910   6.630   3.622   2.127
 1649TIP3    H1 4911   6.633   3.700   2.182
 1649TIP3    H2 4912   6.541   3.589   2.136
 1650TIP3   OH2 4913   3.402   4.132   2.829
 1650TIP3    H1 4914   3.437   4.122   2.918
 1650TIP3    H2 4915   3.399   4.042   2.795
 1651TIP3   OH2 4916   5.947   0.780   1.695
 1651TIP3    H1 4917   6.036   0.816   1.691
 1651TIP3    H2 4918   5.917   0.780   1.604
 1652TIP3   OH2 4919   4.145   2.005   0.470
 1652TIP3    H1 4920   4.083   1.943   0.432
 1652TIP3    H2 4921   4.151   1.980   0.562
 1653TIP3   OH2 4922   5.600   6.083   2.861
 1653TIP3    H1 4923   5.578   6.168   2.901
 1653TIP3    H2 4924   5.681   6.100   2.813
 1654TIP3   OH2 4925   3.131   2.456   5.096
 1654TIP3    H1 4926   3.073   2.381   5.084
 1654TIP3    H2 4927   3.167   2.445   5.184
 1655TIP3   OH2 4928   3.745   3.444   2.071
 1655TIP3    H1 4929   3.695   3.425   2.150
 1655TIP3    H2 4930   3.701   3.520   2.033
 1656TIP3   OH2 4931   0.178   5.771   4.342
 1656TIP3    H1 4932   0.221   5.698   4.388
 1656TIP3    H2 4933   0.191   5.846   4.399
 1657TIP3   OH2 4934   5.423   2.082   3.300
 1657TIP3    H1 4935   5.474   2.020   3.352
 1657TIP3    H2 4936   5.333   2.048   3.304
 1658TIP3   OH2 4937   0.491   2.939   4.078
 1658TIP3    H1 4938   0.524   2.991   4.005
 1658TIP3    H2 4939   0.493   2.849   4.046
 1659TIP3   OH2 4940   1.975   1.236   2.333
 1659TIP3    H1 4941   1.922   1.191   2.268
 1659TIP3    H2 4942   2.007   1.314   2.288
 1660TIP3   OH2 4943   5.456   4.855   1.862
 1660TIP3    H1 4944   5.550   4.847   1.852
 1660TIP3    H2 4945   5.426   4.886   1.776
 1661TIP3   OH2 4946   5.644   2.207   2.826
 1661TIP3    H1 4947   5.633   2.257   2.907
 1661TIP3    H2 4948   5.557   2.210   2.785
 1662TIP3   OH2 4949   6.579   4.746   0.536
 1662TIP3    H1 4950   6.495   4.768   0.496
 1662TIP3    H2 4951   6.561   4.668   0.588
 1663TIP3   OH2 4952   3.565   4.296   0.414
 1663TIP3    H1 4953   3.655   4.264   0.410
 1663TIP3    H2 4954   3.513   4.223   0.380
 1664TIP3   OH2 4955   3.991   3.783   1.736
 1664TIP3    H1 4956   3.960   3.868   1.766
 1664TIP3    H2 4957   3.958   3.775   1.647
 1665TIP3   OH2 4958   4.473   2.730   3.476
 1665TIP3    H1 4959   4.431   2.694   3.398
 1665TIP3    H2 4960   4.562   2.752   3.447
 1666TIP3   OH2 4961   2.286   1.097   3.029
 1666TIP3    H1 4962   2.274   1.187   2.997
 1666TIP3    H2 4963   2.308   1.107   3.122
 1667TIP3   OH2 4964   4.370   0.334   5.140
 1667TIP3    H1 4965   4.438   0.400   5.151
 1667TIP3    H2 4966   4.320   0.364   5.064
 1668TIP3   OH2 4967   1.519   0.141   5.114
 1668TIP3    H1 4968   1.485   0.177   5.032
 1668TIP3    H2 4969   1.452   0.162   5.179
 1669TIP3   OH2 4970   3.504   0.464   1.144
 1669TIP3    H1 4971   3.473   0.510   1.222
 1669TIP3    H2 4972   3.431   0.410   1.116
 1670TIP3   OH2 4973   4.439   1.243   3.465
 1670TIP3    H1 4974   4.407   1.174   3.523
 1670TIP3    H2 4975   4.532   1.223   3.453
 1671TIP3   OH2 4976   0.279   2.346   2.139
 1671TIP3    H1 4977   0.369   2.318   2.125
 1671TIP3    H2 4978   0.271   2.428   2.090
 1672TIP3   OH2 4979   1.345   2.860   1.048
 1672TIP3    H1 4980   1.341   2.786   0.987
 1672TIP3    H2 4981   1.417   2.914   1.014
 1673TIP3   OH2 4982   3.069   5.495   2.071
 1673TIP3    H1 4983   2.981   5.490   2.109
 1673TIP3    H2 4984   3.073   5.582   2.031
 1674TIP3   OH2 4985   6.886   3.153   5.389
 1674TIP3    H1 4986   6.833   3.143   5.311
 1674TIP3    H2 4987   6.877   3.245   5.414
 1675TIP3   OH2 4988   1.788   2.244   0.180
 1675TIP3    H1 4989   1.797   2.280   0.092
 1675TIP3    H2 4990   1.729   2.169   0.169
 1676TIP3   OH2 4991   2.838   2.473   1.743
 1676TIP3    H1 4992   2.892   2.484   1.821
 1676TIP3    H2 4993   2.800   2.560   1.728
 1677TIP3   OH2 4994   3.146   0.957   5.041
 1677TIP3    H1 4995   3.070   0.987   5.092
 1677TIP3    H2 4996   3.139   1.004   4.958
 1678TIP3   OH2 4997   6.937   6.460   2.440
 1678TIP3    H1 4998   6.886   6.432   2.364
 1678TIP3    H2 4999   7.028   6.439   2.417
 1679TIP3   OH2 5000   0.918   0.695   0.013
 1679TIP3    H1 5001   0.887   0.785   0.000
 1679TIP3    H2 5002   0.873   0.644  -0.055
 1680TIP3   OH2 5003   1.378   3.728   4.608
 1680TIP3    H1 5004   1.431   3.751   4.684
 1680TIP3    H2 5005   1.358   3.636   4.619
 1681TIP3   OH2 5006   0.900   0.065   2.349
 1681TIP3    H1 5007   0.944   0.083   2.432
 1681TIP3    H2 5008   0.808   0.054   2.373
 1682TIP3   OH2 5009   1.247   3.024   1.276
 1682TIP3    H1 5010   1.287   2.965   1.341
 1682TIP3    H2 5011   1.298   3.009   1.196
 1683TIP3   OH2 5012   5.133   1.541   4.686
 1683TIP3    H1 5013   5.055   1.596   4.695
 1683TIP3    H2 5014   5.107   1.473   4.625
 1684TIP3   OH2 5015   0.749   1.318   4.154
 1684TIP3    H1 5016   0.754   1.255   4.226
 1684TIP3    H2 5017   0.840   1.337   4.132
 1685TIP3   OH2 5018   5.807   0.616   2.952
 1685TIP3    H1 5019   5.825   0.703   2.990
 1685TIP3    H2 5020   5.889   0.569   2.960
 1686TIP3   OH2 5021   1.704   1.147   0.568
 1686TIP3    H1 5022   1.785   1.125   0.613
 1686TIP3    H2 5023   1.724   1.132   0.475
 1687TIP3   OH2 5024   2.456   5.949   2.658
 1687TIP3    H1 5025   2.476   5.858   2.636
 1687TIP3    H2 5026   2.488   5.959   2.748
 1688TIP3   OH2 5027   5.862   4.167   3.785
 1688TIP3    H1 5028   5.834   4.232   3.849
 1688TIP3    H2 5029   5.916   4.215   3.723
 1689TIP3   OH2 5030   2.491   0.442   1.050
 1689TIP3    H1 5031   2.523   0.354   1.027
 1689TIP3    H2 5032   2.436   0.467   0.975
 1690TIP3   OH2 5033   2.245   6.191   1.563
 1690TIP3    H1 5034   2.250   6.230   1.475
 1690TIP3    H2 5035   2.209   6.261   1.618
 1691TIP3   OH2 5036   1.546   3.705   3.021
 1691TIP3    H1 5037   1.618   3.660   3.064
 1691TIP3    H2 5038   1.560   3.798   3.041
 1692TIP3   OH2 5039   4.792   3.071   0.060
 1692TIP3    H1 5040   4.821   3.141   0.001
 1692TIP3    H2 5041   4.746   3.010   0.003
 1693TIP3   OH2 5042   5.152   6.626   3.428
 1693TIP3    H1 5043   5.077   6.571   3.411
 1693TIP3    H2 5044   5.225   6.565   3.442
 1694TIP3   OH2 5045   4.169   3.427   2.185
 1694TIP3    H1 5046   4.117   3.348   2.202
 1694TIP3    H2 5047   4.207   3.412   2.098
 1695TIP3   OH2 5048   2.735   5.443   5.865
 1695TIP3    H1 5049   2.680   5.454   5.788
 1695TIP3    H2 5050   2.693   5.373   5.915
 1696TIP3   OH2 5051   6.542   5.772   5.076
 1696TIP3    H1 5052   6.481   5.738   5.142
 1696TIP3    H2 5053   6.501   5.750   4.992
 1697TIP3   OH2 5054   3.096   5.784   5.296
 1697TIP3    H1 5055   3.110   5.738   5.379
 1697TIP3    H2 5056   3.013   5.830   5.309
 1698TIP3   OH2 5057   6.222   3.211   3.193
 1698TIP3    H1 5058   6.201   3.149   3.262
 1698TIP3    H2 5059   6.264   3.159   3.125
 1699TIP3   OH2 5060   6.073   0.103   4.167
 1699TIP3    H1 5061   6.058   0.141   4.254
 1699TIP3    H2 5062   5.990   0.062   4.144
 1700TIP3   OH2 5063   1.829   5.406   0.004
 1700TIP3    H1 5064   1.792   5.463   0.071
 1700TIP3    H2 5065   1.918   5.438  -0.009
 1701TIP3   OH2 5066   2.096   2.546   0.653
 1701TIP3    H1 5067   2.068   2.461   0.620
 1701TIP3    H2 5068   2.019   2.582   0.696
 1702TIP3   OH2 5069   4.509   3.840   2.443
 1702TIP3    H1 5070   4.443   3.799   2.386
 1702TIP3    H2 5071   4.482   3.817   2.532
 1703TIP3   OH2 5072   5.143   1.166   5.670
 1703TIP3    H1 5073   5.178   1.247   5.634
 1703TIP3    H2 5074   5.062   1.193   5.714
 1704TIP3   OH2 5075   4.689   3.855   5.136
 1704TIP3    H1 5076   4.688   3.855   5.041
 1704TIP3    H2 5077   4.646   3.936   5.161
 1705TIP3   OH2 5078   4.427   3.980   0.854
 1705TIP3    H1 5079   4.413   4.044   0.784
 1705TIP3    H2 5080   4.459   4.033   0.927
 1706TIP3   OH2 5081   0.799   6.438   0.483
 1706TIP3    H1 5082   0.713   6.432   0.442
 1706TIP3    H2 5083   0.838   6.518   0.449
 1707TIP3   OH2 5084   1.994   4.153   4.470
 1707TIP3    H1 5085   2.067   4.214   4.468
 1707TIP3    H2 5086   1.944   4.178   4.548
 1708TIP3   OH2 5087   5.854   3.919   4.692
 1708TIP3    H1 5088   5.762   3.936   4.673
 1708TIP3    H2 5089   5.880   3.854   4.627
 1709TIP3   OH2 5090   6.010   4.091   1.336
 1709TIP3    H1 5091   5.953   4.168   1.340
 1709TIP3    H2 5092   6.006   4.055   1.425
 1710TIP3   OH2 5093   1.869   3.730   0.851
 1710TIP3    H1 5094   1.891   3.680   0.772
 1710TIP3    H2 5095   1.940   3.709   0.912
 1711TIP3   OH2 5096   4.494   5.860   0.648
 1711TIP3    H1 5097   4.409   5.819   0.667
 1711TIP3    H2 5098   4.479   5.953   0.663
 1712TIP3   OH2 5099   6.088   5.653   5.667
 1712TIP3    H1 5100   6.140   5.728   5.637
 1712TIP3    H2 5101   6.000   5.669   5.633
 1713TIP3   OH2 5102   2.537   6.060   1.936
 1713TIP3    H1 5103   2.451   6.023   1.954
 1713TIP3    H2 5104   2.527   6.105   1.852
 1714TIP3   OH2 5105   1.294   2.393   1.437
 1714TIP3    H1 5106   1.237   2.421   1.508
 1714TIP3    H2 5107   1.382   2.395   1.474
 1715TIP3   OH2 5108   2.966   1.834   3.232
 1715TIP3    H1 5109   2.904   1.855   3.163
 1715TIP3    H2 5110   2.972   1.914   3.285
 1716TIP3   OH2 5111   6.474   1.345   4.456
 1716TIP3    H1 5112   6.416   1.269   4.461
 1716TIP3    H2 5113   6.461   1.390   4.540
 1717TIP3   OH2 5114   3.225   4.366   5.373
 1717TIP3    H1 5115   3.168   4.315   5.431
 1717TIP3    H2 5116   3.210   4.457   5.400
 1718TIP3   OH2 5117   5.937   3.074   2.446
 1718TIP3    H1 5118   5.993   3.006   2.410
 1718TIP3    H2 5119   5.927   3.051   2.538
 1719TIP3   OH2 5120   5.791   6.387   0.656
 1719TIP3    H1 5121   5.847   6.444   0.708
 1719TIP3    H2 5122   5.845   6.310   0.636
 1720TIP3   OH2 5123   5.153   5.478   5.469
 1720TIP3    H1 5124   5.221   5.493   5.404
 1720TIP3    H2 5125   5.201   5.453   5.549
 1721TIP3   OH2 5126   2.358   4.640   2.212
 1721TIP3    H1 5127   2.364   4.554   2.172
 1721TIP3    H2 5128   2.308   4.626   2.292
 1722TIP3   OH2 5129   6.782   3.373   2.277
 1722TIP3    H1 5130   6.717   3.410   2.337
 1722TIP3    H2 5131   6.731   3.339   2.204
 1723TIP3   OH2 5132   3.398   3.587   3.469
 1723TIP3    H1 5133   3.314   3.626   3.446
 1723TIP3    H2 5134   3.408   3.603   3.563
 1724TIP3   OH2 5135   3.861   1.649   5.290
 1724TIP3    H1 5136   3.771   1.657   5.322
 1724TIP3    H2 5137   3.885   1.558   5.308
 1725TIP3   OH2 5138   3.529   2.221   1.116
 1725TIP3    H1 5139   3.588   2.213   1.191
 1725TIP3    H2 5140   3.584   2.201   1.040
 1726TIP3   OH2 5141   5.287   4.779   0.513
 1726TIP3    H1 5142   5.263   4.860   0.558
 1726TIP3    H2 5143   5.203   4.744   0.481
 1727TIP3   OH2 5144   1.774   6.534   0.894
 1727TIP3    H1 5145   1.868   6.536   0.874
 1727TIP3    H2 5146   1.770   6.499   0.984
 1728TIP3   OH2 5147   6.909   3.136   3.685
 1728TIP3    H1 5148   6.831   3.100   3.729
 1728TIP3    H2 5149   6.875   3.180   3.607
 1729TIP3   OH2 5150   6.243   2.389   2.509
 1729TIP3    H1 5151   6.292   2.402   2.428
 1729TIP3    H2 5152   6.239   2.294   2.520
 1730TIP3   OH2 5153   0.418   6.311   2.344
 1730TIP3    H1 5154   0.494   6.360   2.312
 1730TIP3    H2 5155   0.390   6.258   2.270
 1731TIP3   OH2 5156   5.024   5.200   5.900
 1731TIP3    H1 5157   5.095   5.147   5.935
 1731TIP3    H2 5158   4.957   5.137   5.874
 1732TIP3   OH2 5159   5.732   0.723   0.238
 1732TIP3    H1 5160   5.803   0.731   0.174
 1732TIP3    H2 5161   5.776   0.725   0.323
 1733TIP3   OH2 5162   1.112   0.377   0.683
 1733TIP3    H1 5163   1.093   0.322   0.607
 1733TIP3    H2 5164   1.082   0.464   0.657
 1734TIP3   OH2 5165   5.983   2.906   4.707
 1734TIP3    H1 5166   6.060   2.877   4.755
 1734TIP3    H2 5167   5.973   2.998   4.730
 1735TIP3   OH2 5168   1.377   3.322   3.966
 1735TIP3    H1 5169   1.332   3.300   3.884
 1735TIP3    H2 5170   1.468   3.300   3.950
 1736TIP3   OH2 5171   6.771   4.304   5.217
 1736TIP3    H1 5172   6.744   4.384   5.173
 1736TIP3    H2 5173   6.707   4.238   5.187
 1737TIP3   OH2 5174   3.209   6.103   3.019
 1737TIP3    H1 5175   3.233   6.120   3.110
 1737TIP3    H2 5176   3.232   6.183   2.973
 1738TIP3   OH2 5177   5.618   3.307   5.810
 1738TIP3    H1 5178   5.526   3.285   5.800
 1738TIP3    H2 5179   5.653   3.307   5.720
 1739TIP3   OH2 5180   5.656   1.444   0.944
 1739TIP3    H1 5181   5.627   1.388   1.015
 1739TIP3    H2 5182   5.690   1.523   0.988
 1740TIP3   OH2 5183   6.393   6.537   3.413
 1740TIP3    H1 5184   6.396   6.518   3.507
 1740TIP3    H2 5185   6.300   6.537   3.391
 1741TIP3   OH2 5186   5.183   6.185   3.489
 1741TIP3    H1 5187   5.256   6.155   3.542
 1741TIP3    H2 5188   5.110   6.128   3.513
 1742TIP3   OH2 5189   1.189   2.469   3.608
 1742TIP3    H1 5190   1.099   2.462   3.577
 1742TIP3    H2 5191   1.198   2.400   3.673
 1743TIP3   OH2 5192   0.532   5.329   2.752
 1743TIP3    H1 5193   0.510   5.307   2.661
 1743TIP3    H2 5194   0.575   5.415   2.746
 1744TIP3   OH2 5195   0.146   4.393   1.867
 1744TIP3    H1 5196   0.093   4.390   1.946
 1744TIP3    H2 5197   0.153   4.301   1.840
 1745TIP3   OH2 5198   6.132   5.322   2.080
 1745TIP3    H1 5199   6.143   5.347   2.172
 1745TIP3    H2 5200   6.039   5.333   2.064
 1746TIP3   OH2 5201   7.101   4.105   0.839
 1746TIP3    H1 5202   7.032   4.167   0.817
 1746TIP3    H2 5203   7.182   4.155   0.832
 1747TIP3   OH2 5204   2.210   5.966   5.178
 1747TIP3    H1 5205   2.293   5.960   5.225
 1747TIP3    H2 5206   2.232   5.949   5.087
 1748TIP3   OH2 5207   4.952   1.304   0.770
 1748TIP3    H1 5208   4.967   1.386   0.817
 1748TIP3    H2 5209   5.039   1.266   0.760
 1749TIP3   OH2 5210   0.064   2.781   2.276
 1749TIP3    H1 5211   0.067   2.783   2.180
 1749TIP3    H2 5212   0.112   2.702   2.299
 1750TIP3   OH2 5213   6.529   1.425   5.753
 1750TIP3    H1 5214   6.556   1.348   5.803
 1750TIP3    H2 5215   6.566   1.412   5.665
 1751TIP3   OH2 5216   3.641   4.984   5.838
 1751TIP3    H1 5217   3.581   5.059   5.838
 1751TIP3    H2 5218   3.618   4.935   5.918
 1752TIP3   OH2 5219   1.599   1.619   0.113
 1752TIP3    H1 5220   1.577   1.666   0.194
 1752TIP3    H2 5221   1.681   1.573   0.133
 1753TIP3   OH2 5222   1.714   1.050   5.629
 1753TIP3    H1 5223   1.770   1.030   5.704
 1753TIP3    H2 5224   1.737   0.984   5.563
 1754TIP3   OH2 5225   7.166   1.462   0.205
 1754TIP3    H1 5226   7.176   1.547   0.249
 1754TIP3    H2 5227   7.099   1.477   0.138
 1755TIP3   OH2 5228   4.323   0.264   0.076
 1755TIP3    H1 5229   4.384   0.273   0.003
 1755TIP3    H2 5230   4.297   0.172   0.074
 1756TIP3   OH2 5231   1.553   4.280   2.943
 1756TIP3    H1 5232   1.589   4.251   3.026
 1756TIP3    H2 5233   1.629   4.289   2.885
 1757TIP3   OH2 5234   0.359   4.420   2.019
 1757TIP3    H1 5235   0.273   4.389   1.992
 1757TIP3    H2 5236   0.356   4.422   2.114
 1758TIP3   OH2 5237   4.763   6.297   4.757
 1758TIP3    H1 5238   4.767   6.229   4.825
 1758TIP3    H2 5239   4.741   6.250   4.677
 1759TIP3   OH2 5240   4.895   6.318   0.781
 1759TIP3    H1 5241   4.834   6.327   0.853
 1759TIP3    H2 5242   4.851   6.262   0.718
 1760TIP3   OH2 5243   2.862   1.514   5.493
 1760TIP3    H1 5244   2.830   1.587   5.440
 1760TIP3    H2 5245   2.890   1.554   5.575
 1761TIP3   OH2 5246   5.549   5.235   1.382
 1761TIP3    H1 5247   5.574   5.285   1.460
 1761TIP3    H2 5248   5.608   5.160   1.381
 1762TIP3   OH2 5249   6.118   3.954   4.291
 1762TIP3    H1 5250   6.124   3.980   4.199
 1762TIP3    H2 5251   6.184   4.008   4.335
 1763TIP3   OH2 5252   0.752   1.702   5.491
 1763TIP3    H1 5253   0.766   1.764   5.563
 1763TIP3    H2 5254   0.833   1.707   5.439
 1764TIP3   OH2 5255   1.248   5.183   5.116
 1764TIP3    H1 5256   1.196   5.103   5.109
 1764TIP3    H2 5257   1.194   5.243   5.166
 1765TIP3   OH2 5258   2.788   5.838   5.112
 1765TIP3    H1 5259   2.877   5.807   5.096
 1765TIP3    H2 5260   2.797   5.896   5.188
 1766TIP3   OH2 5261   6.306   1.721   4.465
 1766TIP3    H1 5262   6.295   1.685   4.553
 1766TIP3    H2 5263   6.400   1.724   4.451
 1767TIP3   OH2 5264   4.334   5.587   4.192
 1767TIP3    H1 5265   4.301   5.621   4.276
 1767TIP3    H2 5266   4.413   5.638   4.175
 1768TIP3   OH2 5267   0.880   5.837   0.796
 1768TIP3    H1 5268   0.874   5.890   0.716
 1768TIP3    H2 5269   0.869   5.747   0.765
 1769TIP3   OH2 5270   6.816   5.263   2.494
 1769TIP3    H1 5271   6.895   5.242   2.545
 1769TIP3    H2 5272   6.798   5.182   2.445
 1770TIP3   OH2 5273   0.128   2.333   0.178
 1770TIP3    H1 5274   0.217   2.352   0.205
 1770TIP3    H2 5275   0.085   2.301   0.257
 1771TIP3   OH2 5276   4.172   3.845   5.570
 1771TIP3    H1 5277   4.213   3.894   5.641
 1771TIP3    H2 5278   4.226   3.768   5.559
 1772TIP3   OH2 5279   0.483   0.068   1.280
 1772TIP3    H1 5280   0.443   0.148   1.247
 1772TIP3    H2 5281   0.525   0.094   1.362
 1773TIP3   OH2 5282   4.876   1.637   2.528
 1773TIP3    H1 5283   4.946   1.610   2.587
 1773TIP3    H2 5284   4.913   1.627   2.440
 1774TIP3   OH2 5285   4.979   6.036   4.224
 1774TIP3    H1 5286   5.016   5.966   4.278
 1774TIP3    H2 5287   4.906   5.995   4.178
 1775TIP3   OH2 5288   5.293   5.810   1.183
 1775TIP3    H1 5289   5.314   5.879   1.120
 1775TIP3    H2 5290   5.210   5.838   1.222
 1776TIP3   OH2 5291   6.320   2.861   1.392
 1776TIP3    H1 5292   6.352   2.901   1.310
 1776TIP3    H2 5293   6.239   2.908   1.411
 1777TIP3   OH2 5294   6.383   2.366   0.240
 1777TIP3    H1 5295   6.422   2.282   0.266
 1777TIP3    H2 5296   6.380   2.362   0.144
 1778TIP3   OH2 5297   3.563   4.192   1.165
 1778TIP3    H1 5298   3.634   4.191   1.100
 1778TIP3    H2 5299   3.495   4.137   1.127
 1779TIP3   OH2 5300   5.765   5.103   3.104
 1779TIP3    H1 5301   5.837   5.127   3.162
 1779TIP3    H2 5302   5.807   5.090   3.019
 1780TIP3   OH2 5303   2.648   0.591   3.326
 1780TIP3    H1 5304   2.620   0.530   3.257
 1780TIP3    H2 5305   2.728   0.631   3.292
 1781TIP3   OH2 5306   6.023   1.718   1.813
 1781TIP3    H1 5307   5.928   1.709   1.801
 1781TIP3    H2 5308   6.035   1.810   1.836
 1782TIP3   OH2 5309   5.537   3.065   1.049
 1782TIP3    H1 5310   5.546   3.044   0.956
 1782TIP3    H2 5311   5.595   3.003   1.093
 1783TIP3   OH2 5312   3.242   2.391   4.133
 1783TIP3    H1 5313   3.170   2.453   4.122
 1783TIP3    H2 5314   3.296   2.403   4.055
 1784TIP3   OH2 5315   0.715   5.748   5.713
 1784TIP3    H1 5316   0.751   5.688   5.778
 1784TIP3    H2 5317   0.791   5.798   5.682
 1785TIP3   OH2 5318   6.792   0.542   1.623
 1785TIP3    H1 5319   6.717   0.491   1.591
 1785TIP3    H2 5320   6.847   0.478   1.668
 1786TIP3   OH2 5321   5.016   4.856   5.311
 1786TIP3    H1 5322   5.091   4.850   5.369
 1786TIP3    H2 5323   4.946   4.891   5.366
 1787TIP3   OH2 5324   2.829   6.172   0.478
 1787TIP3    H1 5325   2.873   6.183   0.562
 1787TIP3    H2 5326   2.899   6.153   0.416
 1788TIP3   OH2 5327   6.645   5.781   2.120
 1788TIP3    H1 5328   6.628   5.738   2.204
 1788TIP3    H2 5329   6.690   5.714   2.068
 1789TIP3   OH2 5330   6.259   6.147   3.118
 1789TIP3    H1 5331   6.203   6.077   3.085
 1789TIP3    H2 5332   6.199   6.215   3.147
 1790TIP3   OH2 5333   6.696   5.862   3.970
 1790TIP3    H1 5334   6.785   5.873   3.937
 1790TIP3    H2 5335   6.673   5.947   4.008
 1791TIP3   OH2 5336   2.103   5.743   4.087
 1791TIP3    H1 5337   2.016   5.758   4.124
 1791TIP3    H2 5338   2.163   5.768   4.157
 1792TIP3   OH2 5339   0.134   5.015   5.603
 1792TIP3    H1 5340   0.192   4.949   5.641
 1792TIP3    H2 5341   0.060   4.965   5.568
 1793TIP3   OH2 5342   3.180   1.103   0.649
 1793TIP3    H1 5343   3.212   1.108   0.740
 1793TIP3    H2 5344   3.220   1.179   0.606
 1794TIP3   OH2 5345   6.866   0.604   0.727
 1794TIP3    H1 5346   6.888   0.582   0.636
 1794TIP3    H2 5347   6.873   0.700   0.730
 1795TIP3   OH2 5348   3.154   0.585   1.745
 1795TIP3    H1 5349   3.230   0.559   1.692
 1795TIP3    H2 5350   3.171   0.548   1.831
 1796TIP3   OH2 5351   6.644   0.875   1.545
 1796TIP3    H1 5352   6.580   0.883   1.616
 1796TIP3    H2 5353   6.595   0.899   1.467
 1797TIP3   OH2 5354   6.122   6.705   0.903
 1797TIP3    H1 5355   6.198   6.688   0.958
 1797TIP3    H2 5356   6.130   6.797   0.878
 1798TIP3   OH2 5357   7.030   4.926   5.221
 1798TIP3    H1 5358   7.032   5.000   5.161
 1798TIP3    H2 5359   7.010   4.851   5.166
 1799TIP3   OH2 5360   5.628   1.261   4.217
 1799TIP3    H1 5361   5.573   1.305   4.151
 1799TIP3    H2 5362   5.643   1.328   4.284
 1800TIP3   OH2 5363   6.760   1.119   1.596
 1800TIP3    H1 5364   6.714   1.035   1.591
 1800TIP3    H2 5365   6.853   1.096   1.602
 1801TIP3   OH2 5366   2.798   3.562   5.188
 1801TIP3    H1 5367   2.792   3.509   5.267
 1801TIP3    H2 5368   2.871   3.524   5.139
 1802TIP3   OH2 5369   2.343   4.177   4.287
 1802TIP3    H1 5370   2.330   4.250   4.226
 1802TIP3    H2 5371   2.437   4.160   4.284
 1803TIP3   OH2 5372   3.773   5.175   2.477
 1803TIP3    H1 5373   3.681   5.194   2.497
 1803TIP3    H2 5374   3.779   5.184   2.382
 1804TIP3   OH2 5375   6.687   5.187   4.723
 1804TIP3    H1 5376   6.684   5.279   4.696
 1804TIP3    H2 5377   6.627   5.181   4.797
 1805TIP3   OH2 5378   4.750   5.535   1.275
 1805TIP3    H1 5379   4.843   5.511   1.275
 1805TIP3    H2 5380   4.748   5.626   1.304
 1806TIP3   OH2 5381   0.958   5.114   1.926
 1806TIP3    H1 5382   0.918   5.182   1.981
 1806TIP3    H2 5383   1.043   5.150   1.901
 1807TIP3   OH2 5384   1.065   5.987   1.263
 1807TIP3    H1 5385   1.131   5.932   1.222
 1807TIP3    H2 5386   1.063   6.067   1.209
 1808TIP3   OH2 5387   5.578   6.348   4.180
 1808TIP3    H1 5388   5.487   6.322   4.163
 1808TIP3    H2 5389   5.572   6.413   4.249
 1809TIP3   OH2 5390   6.565   3.991   2.752
 1809TIP3    H1 5391   6.479   4.028   2.733
 1809TIP3    H2 5392   6.579   3.926   2.683
 1810TIP3   OH2 5393   2.524   3.099   5.745
 1810TIP3    H1 5394   2.523   3.081   5.839
 1810TIP3    H2 5395   2.441   3.144   5.729
 1811TIP3   OH2 5396   2.108   3.799   5.720
 1811TIP3    H1 5397   2.124   3.862   5.791
 1811TIP3    H2 5398   2.102   3.853   5.641
 1812TIP3   OH2 5399   2.184   0.993   4.430
 1812TIP3    H1 5400   2.151   0.912   4.391
 1812TIP3    H2 5401   2.106   1.038   4.461
 1813TIP3   OH2 5402   6.355   6.805   3.619
 1813TIP3    H1 5403   6.367   6.711   3.634
 1813TIP3    H2 5404   6.394   6.821   3.533
 1814TIP3   OH2 5405   2.614   4.705   3.928
 1814TIP3    H1 5406   2.675   4.646   3.975
 1814TIP3    H2 5407   2.670   4.773   3.892
 1815TIP3   OH2 5408   5.416   4.069   5.199
 1815TIP3    H1 5409   5.478   4.123   5.150
 1815TIP3    H2 5410   5.337   4.069   5.145
 1816TIP3   OH2 5411   2.325   6.446   2.962
 1816TIP3    H1 5412   2.331   6.412   2.872
 1816TIP3    H2 5413   2.367   6.379   3.016
 1817TIP3   OH2 5414   2.283   2.547   0.123
 1817TIP3    H1 5415   2.272   2.513   0.212
 1817TIP3    H2 5416   2.342   2.622   0.134
 1818TIP3   OH2 5417   4.127   2.383   5.318
 1818TIP3    H1 5418   4.190   2.400   5.249
 1818TIP3    H2 5419   4.129   2.288   5.330
 1819TIP3   OH2 5420   2.187   6.636   1.511
 1819TIP3    H1 5421   2.180   6.731   1.510
 1819TIP3    H2 5422   2.103   6.605   1.545
 1820TIP3   OH2 5423   0.025   2.081   2.437
 1820TIP3    H1 5424  -0.040   2.031   2.484
 1820TIP3    H2 5425   0.095   2.018   2.417
 1821TIP3   OH2 5426   0.334   1.534   1.909
 1821TIP3    H1 5427   0.422   1.555   1.940
 1821TIP3    H2 5428   0.326   1.440   1.920
 1822TIP3   OH2 5429   5.972   1.311   2.053
 1822TIP3    H1 5430   5.911   1.240   2.071
 1822TIP3    H2 5431   6.049   1.268   2.016
 1823TIP3   OH2 5432   5.017   6.291   4.146
 1823TIP3    H1 5433   4.928   6.281   4.112
 1823TIP3    H2 5434   5.049   6.201   4.155
 1824TIP3   OH2 5435   1.705   5.218   2.246
 1824TIP3    H1 5436   1.748   5.138   2.216
 1824TIP3    H2 5437   1.775   5.270   2.285
 1825TIP3   OH2 5438   3.861   6.052   3.500
 1825TIP3    H1 5439   3.791   5.988   3.508
 1825TIP3    H2 5440   3.890   6.045   3.410
 1826TIP3   OH2 5441   5.792   2.530   3.473
 1826TIP3    H1 5442   5.786   2.434   3.470
 1826TIP3    H2 5443   5.748   2.559   3.393
 1827TIP3   OH2 5444   4.569   0.868   0.663
 1827TIP3    H1 5445   4.633   0.798   0.654
 1827TIP3    H2 5446   4.581   0.923   0.585
 1828TIP3   OH2 5447   1.941   1.229   4.215
 1828TIP3    H1 5448   1.991   1.218   4.134
 1828TIP3    H2 5449   1.850   1.223   4.187
 1829TIP3   OH2 5450   6.303   2.091   2.642
 1829TIP3    H1 5451   6.318   2.005   2.680
 1829TIP3    H2 5452   6.347   2.088   2.557
 1830TIP3   OH2 5453   3.309   1.048   5.244
 1830TIP3    H1 5454   3.238   1.037   5.306
 1830TIP3    H2 5455   3.269   1.035   5.158
 1831TIP3   OH2 5456   5.276   6.000   2.973
 1831TIP3    H1 5457   5.314   6.086   2.991
 1831TIP3    H2 5458   5.253   5.965   3.059
 1832TIP3   OH2 5459   3.323   5.217   1.560
 1832TIP3    H1 5460   3.350   5.308   1.572
 1832TIP3    H2 5461   3.234   5.214   1.594
 1833TIP3   OH2 5462   6.144   3.656   4.975
 1833TIP3    H1 5463   6.216   3.631   5.034
 1833TIP3    H2 5464   6.077   3.692   5.033
 1834TIP3   OH2 5465   0.746   2.191   4.514
 1834TIP3    H1 5466   0.748   2.158   4.604
 1834TIP3    H2 5467   0.785   2.121   4.462
 1835TIP3   OH2 5468   1.280   0.933  -0.010
 1835TIP3    H1 5469   1.292   1.025  -0.035
 1835TIP3    H2 5470   1.243   0.936   0.078
 1836TIP3   OH2 5471   0.572   3.587   0.763
 1836TIP3    H1 5472   0.603   3.547   0.845
 1836TIP3    H2 5473   0.591   3.680   0.774
 1837TIP3   OH2 5474   6.383   0.331   3.126
 1837TIP3    H1 5475   6.444   0.352   3.055
 1837TIP3    H2 5476   6.440   0.300   3.197
 1838TIP3   OH2 5477   1.447   3.944   3.273
 1838TIP3    H1 5478   1.451   3.861   3.319
 1838TIP3    H2 5479   1.528   3.947   3.221
 1839TIP3   OH2 5480   1.812   4.306   3.399
 1839TIP3    H1 5481   1.793   4.395   3.369
 1839TIP3    H2 5482   1.750   4.291   3.470
 1840TIP3   OH2 5483   0.288   4.981   2.655
 1840TIP3    H1 5484   0.303   4.890   2.683
 1840TIP3    H2 5485   0.232   5.018   2.723
 1841TIP3   OH2 5486   4.434   3.577   3.956
 1841TIP3    H1 5487   4.420   3.636   4.029
 1841TIP3    H2 5488   4.509   3.614   3.908
 1842TIP3   OH2 5489   5.426   4.629   0.175
 1842TIP3    H1 5490   5.431   4.547   0.126
 1842TIP3    H2 5491   5.336   4.630   0.209
 1843TIP3   OH2 5492   0.516   4.021   2.911
 1843TIP3    H1 5493   0.566   3.941   2.926
 1843TIP3    H2 5494   0.581   4.090   2.908
 1844TIP3   OH2 5495   1.722   5.487   5.427
 1844TIP3    H1 5496   1.721   5.528   5.514
 1844TIP3    H2 5497   1.632   5.455   5.416
 1845TIP3   OH2 5498   0.204   4.048   3.790
 1845TIP3    H1 5499   0.183   4.136   3.821
 1845TIP3    H2 5500   0.120   4.001   3.792
 1846TIP3   OH2 5501   4.255   5.860   2.591
 1846TIP3    H1 5502   4.164   5.875   2.618
 1846TIP3    H2 5503   4.292   5.806   2.661
 1847TIP3   OH2 5504   4.697   1.324   5.249
 1847TIP3    H1 5505   4.663   1.336   5.160
 1847TIP3    H2 5506   4.636   1.264   5.291
 1848TIP3   OH2 5507   4.279   4.221   1.272
 1848TIP3    H1 5508   4.336   4.275   1.218
 1848TIP3    H2 5509   4.329   4.140   1.285
 1849TIP3   OH2 5510   2.158   3.947   3.893
 1849TIP3    H1 5511   2.231   3.934   3.953
 1849TIP3    H2 5512   2.091   3.885   3.922
 1850TIP3   OH2 5513   4.062   1.485   1.105
 1850TIP3    H1 5514   4.059   1.466   1.011
 1850TIP3    H2 5515   3.984   1.442   1.140
 1851TIP3   OH2 5516   3.318   2.972   2.387
 1851TIP3    H1 5517   3.370   3.045   2.354
 1851TIP3    H2 5518   3.362   2.944   2.467
 1852TIP3   OH2 5519   4.431   4.271   0.133
 1852TIP3    H1 5520   4.470   4.349   0.095
 1852TIP3    H2 5521   4.456   4.200   0.073
 1853TIP3   OH2 5522   2.397   4.814   5.006
 1853TIP3    H1 5523   2.304   4.810   4.984
 1853TIP3    H2 5524   2.404   4.771   5.091
 1854TIP3   OH2 5525   4.330   6.439   1.126
 1854TIP3    H1 5526   4.362   6.407   1.042
 1854TIP3    H2 5527   4.407   6.480   1.166
 1855TIP3   OH2 5528   1.546   1.882   1.214
 1855TIP3    H1 5529   1.476   1.889   1.278
 1855TIP3    H2 5530   1.608   1.820   1.252
 1856TIP3   OH2 5531   0.133   2.080   2.099
 1856TIP3    H1 5532   0.104   2.062   2.189
 1856TIP3    H2 5533   0.052   2.093   2.050
 1857TIP3   OH2 5534   2.525   3.518   0.164
 1857TIP3    H1 5535   2.493   3.528   0.075
 1857TIP3    H2 5536   2.445   3.519   0.218
 1858TIP3   OH2 5537   5.899   0.124   0.739
 1858TIP3    H1 5538   5.906   0.124   0.834
 1858TIP3    H2 5539   5.927   0.037   0.713
 1859TIP3   OH2 5540   0.891   3.826   0.210
 1859TIP3    H1 5541   0.883   3.827   0.115
 1859TIP3    H2 5542   0.845   3.904   0.239
 1860TIP3   OH2 5543   2.375   3.641   3.379
 1860TIP3    H1 5544   2.405   3.554   3.354
 1860TIP3    H2 5545   2.395   3.647   3.473
 1861TIP3   OH2 5546   0.886   4.586   0.121
 1861TIP3    H1 5547   0.976   4.616   0.127
 1861TIP3    H2 5548   0.878   4.520   0.190
 1862TIP3   OH2 5549   0.312   3.879   1.922
 1862TIP3    H1 5550   0.335   3.913   1.836
 1862TIP3    H2 5551   0.267   3.953   1.966
 1863TIP3   OH2 5552   2.525   5.971   4.123
 1863TIP3    H1 5553   2.620   5.969   4.127
 1863TIP3    H2 5554   2.505   5.968   4.030
 1864TIP3   OH2 5555   1.474   5.939   3.967
 1864TIP3    H1 5556   1.490   5.884   3.890
 1864TIP3    H2 5557   1.553   5.993   3.975
 1865TIP3   OH2 5558   5.173   4.704   0.937
 1865TIP3    H1 5559   5.181   4.621   0.983
 1865TIP3    H2 5560   5.228   4.765   0.987
 1866TIP3   OH2 5561   3.708   6.796   2.522
 1866TIP3    H1 5562   3.795   6.766   2.547
 1866TIP3    H2 5563   3.695   6.761   2.434
 1867TIP3   OH2 5564   7.282   4.770   2.575
 1867TIP3    H1 5565   7.275   4.771   2.670
 1867TIP3    H2 5566   7.220   4.836   2.545
 1868TIP3   OH2 5567   2.613   3.633   4.032
 1868TIP3    H1 5568   2.580   3.634   4.122
 1868TIP3    H2 5569   2.692   3.579   4.036
 1869TIP3   OH2 5570   5.043   2.212   1.793
 1869TIP3    H1 5571   4.978   2.176   1.733
 1869TIP3    H2 5572   4.995   2.228   1.874
 1870TIP3   OH2 5573   2.996   1.515   0.319
 1870TIP3    H1 5574   2.991   1.608   0.342
 1870TIP3    H2 5575   3.041   1.475   0.394
 1871TIP3   OH2 5576   7.038   1.307   0.992
 1871TIP3    H1 5577   6.972   1.368   1.026
 1871TIP3    H2 5578   7.121   1.342   1.024
 1872TIP3   OH2 5579   1.957   4.070   2.512
 1872TIP3    H1 5580   1.965   3.975   2.505
 1872TIP3    H2 5581   1.892   4.084   2.581
 1873TIP3   OH2 5582   6.725   4.001   3.372
 1873TIP3    H1 5583   6.816   3.973   3.364
 1873TIP3    H2 5584   6.679   3.953   3.302
 1874TIP3   OH2 5585   2.493   2.679   2.130
 1874TIP3    H1 5586   2.423   2.656   2.191
 1874TIP3    H2 5587   2.463   2.760   2.088
 1875TIP3   OH2 5588   0.038   0.450   4.604
 1875TIP3    H1 5589   0.036   0.404   4.520
 1875TIP3    H2 5590   0.100   0.400   4.657
 1876TIP3   OH2 5591   5.769   2.271   3.644
 1876TIP3    H1 5592   5.758   2.336   3.714
 1876TIP3    H2 5593   5.858   2.284   3.612
 1877TIP3   OH2 5594   4.865   0.422   5.698
 1877TIP3    H1 5595   4.796   0.481   5.667
 1877TIP3    H2 5596   4.839   0.335   5.668
 1878TIP3   OH2 5597   3.738   6.423   2.205
 1878TIP3    H1 5598   3.792   6.501   2.218
 1878TIP3    H2 5599   3.712   6.427   2.113
 1879TIP3   OH2 5600   0.799   5.507   3.960
 1879TIP3    H1 5601   0.757   5.467   4.035
 1879TIP3    H2 5602   0.761   5.595   3.954
 1880TIP3   OH2 5603   6.763   3.420   3.284
 1880TIP3    H1 5604   6.825   3.479   3.328
 1880TIP3    H2 5605   6.680   3.435   3.330
 1881TIP3   OH2 5606   3.082   4.786   3.646
 1881TIP3    H1 5607   3.116   4.850   3.583
 1881TIP3    H2 5608   3.089   4.829   3.731
 1882TIP3   OH2 5609   6.143   1.646   3.590
 1882TIP3    H1 5610   6.181   1.586   3.654
 1882TIP3    H2 5611   6.048   1.632   3.598
 1883TIP3   OH2 5612   3.997   3.629   2.044
 1883TIP3    H1 5613   4.054   3.584   2.106
 1883TIP3    H2 5614   3.931   3.672   2.098
 1884TIP3   OH2 5615   2.596   3.642   5.468
 1884TIP3    H1 5616   2.633   3.719   5.424
 1884TIP3    H2 5617   2.568   3.675   5.553
 1885TIP3   OH2 5618   0.673   5.405   4.179
 1885TIP3    H1 5619   0.713   5.324   4.211
 1885TIP3    H2 5620   0.616   5.377   4.108
 1886TIP3   OH2 5621   6.809   5.480   3.500
 1886TIP3    H1 5622   6.758   5.555   3.532
 1886TIP3    H2 5623   6.898   5.515   3.488
 1887TIP3   OH2 5624   1.083   3.745   5.729
 1887TIP3    H1 5625   1.174   3.717   5.727
 1887TIP3    H2 5626   1.081   3.817   5.791
 1888TIP3   OH2 5627   2.672   3.085   3.666
 1888TIP3    H1 5628   2.718   3.060   3.746
 1888TIP3    H2 5629   2.615   3.011   3.648
 1889TIP3   OH2 5630   4.695   2.234   4.784
 1889TIP3    H1 5631   4.635   2.159   4.780
 1889TIP3    H2 5632   4.782   2.195   4.786
 1890TIP3   OH2 5633   0.292   1.429   2.688
 1890TIP3    H1 5634   0.358   1.476   2.739
 1890TIP3    H2 5635   0.289   1.342   2.728
 1891TIP3   OH2 5636   4.274   5.847   0.823
 1891TIP3    H1 5637   4.355   5.805   0.852
 1891TIP3    H2 5638   4.223   5.776   0.784
 1892TIP3   OH2 5639   0.256   1.293   4.521
 1892TIP3    H1 5640   0.228   1.214   4.567
 1892TIP3    H2 5641   0.308   1.260   4.448
 1893TIP3   OH2 5642   4.011   1.090   1.279
 1893TIP3    H1 5643   4.077   1.031   1.243
 1893TIP3    H2 5644   3.950   1.031   1.326
 1894TIP3   OH2 5645   5.572   3.185   1.697
 1894TIP3    H1 5646   5.568   3.213   1.789
 1894TIP3    H2 5647   5.623   3.254   1.654
 1895TIP3   OH2 5648   1.676   3.397   4.616
 1895TIP3    H1 5649   1.704   3.475   4.569
 1895TIP3    H2 5650   1.751   3.374   4.672
 1896TIP3   OH2 5651   4.139   5.370   2.437
 1896TIP3    H1 5652   4.148   5.303   2.370
 1896TIP3    H2 5653   4.193   5.443   2.406
 1897TIP3   OH2 5654   3.416   3.461   5.422
 1897TIP3    H1 5655   3.368   3.421   5.495
 1897TIP3    H2 5656   3.506   3.430   5.433
 1898TIP3   OH2 5657   1.467   5.405   5.365
 1898TIP3    H1 5658   1.437   5.473   5.305
 1898TIP3    H2 5659   1.416   5.419   5.445
 1899TIP3   OH2 5660   1.674   6.693   5.619
 1899TIP3    H1 5661   1.715   6.678   5.704
 1899TIP3    H2 5662   1.607   6.760   5.635
 1900TIP3   OH2 5663   5.802   4.927   5.122
 1900TIP3    H1 5664   5.829   5.017   5.104
 1900TIP3    H2 5665   5.737   4.935   5.192
 1901TIP3   OH2 5666   1.182   2.150   3.212
 1901TIP3    H1 5667   1.191   2.093   3.288
 1901TIP3    H2 5668   1.147   2.094   3.143
 1902TIP3   OH2 5669   5.066   1.591   2.708
 1902TIP3    H1 5670   5.047   1.666   2.764
 1902TIP3    H2 5671   5.152   1.610   2.671
 1903TIP3   OH2 5672   6.715   2.692   1.405
 1903TIP3    H1 5673   6.697   2.779   1.443
 1903TIP3    H2 5674   6.804   2.699   1.372
 1904TIP3   OH2 5675   0.073   4.224   1.118
 1904TIP3    H1 5676  -0.008   4.200   1.163
 1904TIP3    H2 5677   0.047   4.232   1.026
 1905TIP3   OH2 5678   5.454   4.842   3.109
 1905TIP3    H1 5679   5.386   4.785   3.146
 1905TIP3    H2 5680   5.491   4.887   3.185
 1906TIP3   OH2 5681   6.937   4.274   2.113
 1906TIP3    H1 5682   6.919   4.302   2.202
 1906TIP3    H2 5683   6.904   4.184   2.109
 1907TIP3   OH2 5684   6.134   2.946   4.982
 1907TIP3    H1 5685   6.224   2.978   4.983
 1907TIP3    H2 5686   6.081   3.026   4.984
 1908TIP3   OH2 5687   6.050   2.509   2.124
 1908TIP3    H1 5688   6.137   2.539   2.098
 1908TIP3    H2 5689   6.063   2.416   2.146
 1909TIP3   OH2 5690   4.664   6.092   2.735
 1909TIP3    H1 5691   4.607   6.095   2.658
 1909TIP3    H2 5692   4.695   6.002   2.738
 1910TIP3   OH2 5693   5.482   0.258   2.154
 1910TIP3    H1 5694   5.510   0.349   2.155
 1910TIP3    H2 5695   5.540   0.215   2.090
 1911TIP3   OH2 5696   0.602   1.441   2.248
 1911TIP3    H1 5697   0.521   1.400   2.278
 1911TIP3    H2 5698   0.659   1.440   2.325
 1912TIP3   OH2 5699   5.256   0.752   0.005
 1912TIP3    H1 5700   5.201   0.688   0.050
 1912TIP3    H2 5701   5.220   0.837   0.030
 1913TIP3   OH2 5702   0.941   6.642   0.359
 1913TIP3    H1 5703   0.945   6.711   0.425
 1913TIP3    H2 5704   0.954   6.688   0.276
 1914TIP3   OH2 5705   4.454   5.638   0.353
 1914TIP3    H1 5706   4.432   5.547   0.374
 1914TIP3    H2 5707   4.548   5.636   0.334
 1915TIP3   OH2 5708  -0.018   3.330   1.850
 1915TIP3    H1 5709  -0.079   3.368   1.914
 1915TIP3    H2 5710   0.057   3.301   1.903
 1916TIP3   OH2 5711   0.816   0.785   5.830
 1916TIP3    H1 5712   0.810   0.866   5.880
 1916TIP3    H2 5713   0.820   0.813   5.738
 1917TIP3   OH2 5714   4.546   4.630   2.649
 1917TIP3    H1 5715   4.453   4.607   2.656
 1917TIP3    H2 5716   4.578   4.580   2.575
 1918TIP3   OH2 5717   4.529   2.123   4.399
 1918TIP3    H1 5718   4.454   2.074   4.365
 1918TIP3    H2 5719   4.580   2.058   4.448
 1919TIP3   OH2 5720   0.560   2.998   2.330
 1919TIP3    H1 5721   0.585   3.090   2.329
 1919TIP3    H2 5722   0.472   2.996   2.292
 1920TIP3   OH2 5723   0.660   4.047   3.512
 1920TIP3    H1 5724   0.731   4.108   3.490
 1920TIP3    H2 5725   0.679   4.020   3.602
 1921TIP3   OH2 5726   3.450   3.060   0.374
 1921TIP3    H1 5727   3.525   3.105   0.336
 1921TIP3    H2 5728   3.461   3.071   0.469
 1922TIP3   OH2 5729   3.063   4.904   1.135
 1922TIP3    H1 5730   3.129   4.864   1.191
 1922TIP3    H2 5731   3.020   4.830   1.092
 1923TIP3   OH2 5732   0.537   5.440   3.643
 1923TIP3    H1 5733   0.613   5.403   3.688
 1923TIP3    H2 5734   0.471   5.371   3.646
 1924TIP3   OH2 5735   0.800   4.474   3.013
 1924TIP3    H1 5736   0.882   4.488   2.965
 1924TIP3    H2 5737   0.828   4.447   3.101
 1925TIP3   OH2 5738   2.358   0.280   4.698
 1925TIP3    H1 5739   2.397   0.206   4.652
 1925TIP3    H2 5740   2.419   0.352   4.683
 1926TIP3   OH2 5741   5.526   4.389   4.120
 1926TIP3    H1 5742   5.529   4.389   4.215
 1926TIP3    H2 5743   5.461   4.456   4.098
 1927TIP3   OH2 5744   5.910   0.140   2.029
 1927TIP3    H1 5745   5.884   0.159   2.119
 1927TIP3    H2 5746   5.914   0.225   1.986
 1928TIP3   OH2 5747   2.537   5.289   4.017
 1928TIP3    H1 5748   2.499   5.203   4.033
 1928TIP3    H2 5749   2.517   5.339   4.095
 1929TIP3   OH2 5750   0.720   6.071   1.017
 1929TIP3    H1 5751   0.689   6.127   0.947
 1929TIP3    H2 5752   0.739   5.987   0.975
 1930TIP3   OH2 5753   3.831   4.207   3.561
 1930TIP3    H1 5754   3.798   4.269   3.625
 1930TIP3    H2 5755   3.897   4.156   3.608
 1931TIP3   OH2 5756   5.028   3.841   2.684
 1931TIP3    H1 5757   5.026   3.747   2.702
 1931TIP3    H2 5758   4.993   3.881   2.764
 1932TIP3   OH2 5759   6.197   5.279   1.604
 1932TIP3    H1 5760   6.243   5.217   1.548
 1932TIP3    H2 5761   6.241   5.363   1.588
 1933TIP3   OH2 5762   0.963   6.616   3.038
 1933TIP3    H1 5763   0.877   6.613   2.997
 1933TIP3    H2 5764   0.990   6.524   3.046
 1934TIP3   OH2 5765   3.626   4.074   0.784
 1934TIP3    H1 5766   3.661   4.052   0.871
 1934TIP3    H2 5767   3.703   4.074   0.727
 1935TIP3   OH2 5768   5.918   5.797   3.068
 1935TIP3    H1 5769   5.862   5.761   3.000
 1935TIP3    H2 5770   5.860   5.854   3.119
 1936TIP3   OH2 5771   0.267   6.203   0.113
 1936TIP3    H1 5772   0.298   6.273   0.055
 1936TIP3    H2 5773   0.176   6.188   0.084
 1937TIP3   OH2 5774   1.093   5.029   3.565
 1937TIP3    H1 5775   1.012   5.017   3.614
 1937TIP3    H2 5776   1.137   4.944   3.570
 1938TIP3   OH2 5777   0.041   0.622   0.459
 1938TIP3    H1 5778   0.093   0.591   0.385
 1938TIP3    H2 5779  -0.038   0.658   0.419
 1939TIP3   OH2 5780   6.508   0.210   4.254
 1939TIP3    H1 5781   6.517   0.256   4.171
 1939TIP3    H2 5782   6.485   0.278   4.317
 1940TIP3   OH2 5783   6.100   3.673   3.159
 1940TIP3    H1 5784   6.061   3.588   3.181
 1940TIP3    H2 5785   6.137   3.704   3.241
 1941TIP3   OH2 5786   1.076   4.836   3.297
 1941TIP3    H1 5787   1.135   4.900   3.258
 1941TIP3    H2 5788   1.008   4.888   3.340
 1942TIP3   OH2 5789   1.782   1.492   5.527
 1942TIP3    H1 5790   1.845   1.420   5.535
 1942TIP3    H2 5791   1.810   1.555   5.594
 1943TIP3   OH2 5792   1.549   4.908   0.602
 1943TIP3    H1 5793   1.535   5.002   0.605
 1943TIP3    H2 5794   1.534   4.884   0.511
 1944TIP3   OH2 5795   6.245   1.764   1.056
 1944TIP3    H1 5796   6.170   1.805   1.013
 1944TIP3    H2 5797   6.232   1.781   1.149
 1945TIP3   OH2 5798   2.003   5.413   2.625
 1945TIP3    H1 5799   2.096   5.400   2.607
 1945TIP3    H2 5800   1.990   5.377   2.713
 1946TIP3   OH2 5801   1.216   3.972   0.606
 1946TIP3    H1 5802   1.150   3.924   0.556
 1946TIP3    H2 5803   1.180   4.061   0.614
 1947TIP3   OH2 5804   0.293   0.422   3.876
 1947TIP3    H1 5805   0.264   0.507   3.843
 1947TIP3    H2 5806   0.258   0.418   3.965
 1948TIP3   OH2 5807   4.881   3.450   3.758
 1948TIP3    H1 5808   4.830   3.493   3.690
 1948TIP3    H2 5809   4.847   3.360   3.761
 1949TIP3   OH2 5810   2.703   2.008   2.284
 1949TIP3    H1 5811   2.669   2.094   2.308
 1949TIP3    H2 5812   2.791   2.005   2.320
 1950TIP3   OH2 5813   4.027   5.487   3.489
 1950TIP3    H1 5814   4.009   5.531   3.406
 1950TIP3    H2 5815   3.949   5.505   3.542
 1951TIP3   OH2 5816   3.783   2.638   3.262
 1951TIP3    H1 5817   3.713   2.685   3.216
 1951TIP3    H2 5818   3.849   2.705   3.280
 1952TIP3   OH2 5819   7.059   1.935   4.149
 1952TIP3    H1 5820   7.109   1.998   4.098
 1952TIP3    H2 5821   7.104   1.851   4.137
 1953TIP3   OH2 5822   4.785   2.092   1.219
 1953TIP3    H1 5823   4.692   2.089   1.198
 1953TIP3    H2 5824   4.829   2.067   1.138
 1954TIP3   OH2 5825   6.101   5.386   5.607
 1954TIP3    H1 5826   6.166   5.371   5.538
 1954TIP3    H2 5827   6.108   5.479   5.628
 1955TIP3   OH2 5828   7.040   3.586   1.302
 1955TIP3    H1 5829   6.959   3.618   1.341
 1955TIP3    H2 5830   7.103   3.583   1.374
 1956TIP3   OH2 5831   4.328   2.036   2.349
 1956TIP3    H1 5832   4.238   2.062   2.331
 1956TIP3    H2 5833   4.379   2.116   2.337
 1957TIP3   OH2 5834   5.870   4.259   1.695
 1957TIP3    H1 5835   5.929   4.321   1.652
 1957TIP3    H2 5836   5.903   4.173   1.670
 1958TIP3   OH2 5837   5.126   0.110   0.411
 1958TIP3    H1 5838   5.102   0.022   0.440
 1958TIP3    H2 5839   5.194   0.138   0.473
 1959TIP3   OH2 5840   5.115   6.658   4.742
 1959TIP3    H1 5841   5.114   6.564   4.728
 1959TIP3    H2 5842   5.153   6.695   4.662
 1960TIP3   OH2 5843   3.101   6.253   2.153
 1960TIP3    H1 5844   3.048   6.317   2.106
 1960TIP3    H2 5845   3.176   6.237   2.096
 1961TIP3   OH2 5846   5.247   1.437   4.908
 1961TIP3    H1 5847   5.208   1.451   4.822
 1961TIP3    H2 5848   5.296   1.355   4.899
 1962TIP3   OH2 5849   6.771   4.070   0.739
 1962TIP3    H1 5850   6.827   4.143   0.764
 1962TIP3    H2 5851   6.775   4.010   0.813
 1963TIP3   OH2 5852   0.408   5.555   5.650
 1963TIP3    H1 5853   0.392   5.648   5.668
 1963TIP3    H2 5854   0.411   5.549   5.554
 1964TIP3   OH2 5855   2.366   5.868   3.723
 1964TIP3    H1 5856   2.281   5.845   3.686
 1964TIP3    H2 5857   2.346   5.931   3.792
 1965TIP3   OH2 5858   5.976   4.386   4.344
 1965TIP3    H1 5859   6.045   4.383   4.411
 1965TIP3    H2 5860   5.916   4.316   4.370
 1966TIP3   OH2 5861   2.671   4.167   5.591
 1966TIP3    H1 5862   2.583   4.205   5.594
 1966TIP3    H2 5863   2.706   4.196   5.506
 1967TIP3   OH2 5864   0.001   6.420   2.324
 1967TIP3    H1 5865   0.067   6.444   2.389
 1967TIP3    H2 5866   0.051   6.392   2.248
 1968TIP3   OH2 5867   4.461   2.733   4.835
 1968TIP3    H1 5868   4.398   2.804   4.832
 1968TIP3    H2 5869   4.473   2.707   4.744
 1969TIP3   OH2 5870   2.212   4.272   2.980
 1969TIP3    H1 5871   2.253   4.196   2.939
 1969TIP3    H2 5872   2.242   4.270   3.071
 1970TIP3   OH2 5873   2.709   1.430   3.834
 1970TIP3    H1 5874   2.708   1.495   3.904
 1970TIP3    H2 5875   2.625   1.385   3.842
 1971TIP3   OH2 5876   3.380   4.033   1.068
 1971TIP3    H1 5877   3.366   3.938   1.071
 1971TIP3    H2 5878   3.338   4.061   0.987
 1972TIP3   OH2 5879   2.533   3.014   5.069
 1972TIP3    H1 5880   2.555   3.046   5.157
 1972TIP3    H2 5881   2.612   2.968   5.041
 1973TIP3   OH2 5882   2.794   1.074   2.762
 1973TIP3    H1 5883   2.738   1.145   2.795
 1973TIP3    H2 5884   2.751   1.045   2.682
 1974TIP3   OH2 5885   6.234   1.214   4.710
 1974TIP3    H1 5886   6.217   1.289   4.654
 1974TIP3    H2 5887   6.304   1.166   4.666
 1975TIP3   OH2 5888   2.817   3.168   3.457
 1975TIP3    H1 5889   2.756   3.152   3.528
 1975TIP3    H2 5890   2.761   3.191   3.382
 1976TIP3   OH2 5891   1.177   1.303   2.958
 1976TIP3    H1 5892   1.119   1.226   2.959
 1976TIP3    H2 5893   1.130   1.368   2.907
 1977TIP3   OH2 5894   1.880   0.925   5.352
 1977TIP3    H1 5895   1.935   1.003   5.361
 1977TIP3    H2 5896   1.810   0.952   5.292
 1978TIP3   OH2 5897   0.665   2.693   0.758
 1978TIP3    H1 5898   0.712   2.763   0.803
 1978TIP3    H2 5899   0.696   2.613   0.799
 1979TIP3   OH2 5900   2.757   1.779   5.409
 1979TIP3    H1 5901   2.731   1.818   5.493
 1979TIP3    H2 5902   2.779   1.854   5.354
 1980TIP3   OH2 5903   1.800   1.369   1.281
 1980TIP3    H1 5904   1.748   1.394   1.357
 1980TIP3    H2 5905   1.885   1.410   1.295
 1981TIP3   OH2 5906   6.694   4.956   2.739
 1981TIP3    H1 5907   6.623   4.976   2.799
 1981TIP3    H2 5908   6.657   4.974   2.652
 1982TIP3   OH2 5909   5.916   6.569   4.489
 1982TIP3    H1 5910   5.961   6.526   4.416
 1982TIP3    H2 5911   5.931   6.663   4.474
 1983TIP3   OH2 5912   3.355   1.705   0.809
 1983TIP3    H1 5913   3.379   1.742   0.724
 1983TIP3    H2 5914   3.289   1.766   0.844
 1984TIP3   OH2 5915   5.198   5.273   1.894
 1984TIP3    H1 5916   5.106   5.261   1.870
 1984TIP3    H2 5917   5.196   5.342   1.961
 1985TIP3   OH2 5918   3.504   1.381   4.140
 1985TIP3    H1 5919   3.458   1.353   4.220
 1985TIP3    H2 5920   3.473   1.320   4.072
 1986TIP3   OH2 5921   1.046   2.975   4.469
 1986TIP3    H1 5922   1.079   2.964   4.558
 1986TIP3    H2 5923   0.967   2.920   4.465
 1987TIP3   OH2 5924   0.998   3.492   4.030
 1987TIP3    H1 5925   0.982   3.528   3.943
 1987TIP3    H2 5926   0.943   3.413   4.033
 1988TIP3   OH2 5927   0.798   3.824   0.981
 1988TIP3    H1 5928   0.815   3.884   1.054
 1988TIP3    H2 5929   0.714   3.852   0.945
 1989TIP3   OH2 5930   6.096   4.622   3.368
 1989TIP3    H1 5931   6.070   4.694   3.310
 1989TIP3    H2 5932   6.188   4.607   3.346
 1990TIP3   OH2 5933   5.340   1.665   4.579
 1990TIP3    H1 5934   5.266   1.620   4.620
 1990TIP3    H2 5935   5.387   1.596   4.532
 1991TIP3   OH2 5936   4.705   4.631   2.878
 1991TIP3    H1 5937   4.640   4.622   2.808
 1991TIP3    H2 5938   4.789   4.613   2.836
 1992TIP3   OH2 5939   5.060   1.540   1.343
 1992TIP3    H1 5940   5.006   1.582   1.277
 1992TIP3    H2 5941   4.998   1.513   1.411
 1993TIP3   OH2 5942   0.286   5.212   1.674
 1993TIP3    H1 5943   0.203   5.168   1.696
 1993TIP3    H2 5944   0.259   5.294   1.633
 1994TIP3   OH2 5945   5.975   6.046   4.553
 1994TIP3    H1 5946   6.005   6.100   4.626
 1994TIP3    H2 5947   5.996   6.098   4.475
 1995TIP3   OH2 5948   6.937   4.021   4.883
 1995TIP3    H1 5949   6.875   4.093   4.870
 1995TIP3    H2 5950   6.882   3.945   4.900
 1996TIP3   OH2 5951   0.457   6.171   3.641
 1996TIP3    H1 5952   0.520   6.202   3.706
 1996TIP3    H2 5953   0.372   6.192   3.679
 1997TIP3   OH2 5954   5.374   4.807   2.845
 1997TIP3    H1 5955   5.376   4.819   2.940
 1997TIP3    H2 5956   5.370   4.712   2.833
 1998TIP3   OH2 5957   3.927   5.550   1.772
 1998TIP3    H1 5958   3.850   5.520   1.724
 1998TIP3    H2 5959   3.892   5.607   1.841
 1999TIP3   OH2 5960   5.508   6.650   2.088
 1999TIP3    H1 5961   5.426   6.605   2.068
 1999TIP3    H2 5962   5.554   6.653   2.004
 2000TIP3   OH2 5963   5.255   1.853   2.403
 2000TIP3    H1 5964   5.196   1.918   2.443
 2000TIP3    H2 5965   5.207   1.822   2.326
 2001TIP3   OH2 5966   5.193   5.128   5.646
 2001TIP3    H1 5967   5.208   5.071   5.721
 2001TIP3    H2 5968   5.176   5.214   5.684
 2002TIP3   OH2 5969   4.708   2.075   0.772
 2002TIP3    H1 5970   4.794   2.066   0.814
 2002TIP3    H2 5971   4.728   2.080   0.678
 2003TIP3   OH2 5972   6.589   6.009   1.853
 2003TIP3    H1 5973   6.545   5.945   1.797
 2003TIP3    H2 5974   6.605   5.962   1.935
 2004TIP3   OH2 5975   0.547   2.411   2.533
 2004TIP3    H1 5976   0.594   2.399   2.615
 2004TIP3    H2 5977   0.534   2.323   2.499
 2005TIP3   OH2 5978   0.024   2.245   3.231
 2005TIP3    H1 5979  -0.029   2.206   3.161
 2005TIP3    H2 5980   0.088   2.177   3.253
 2006TIP3   OH2 5981   4.352   6.509   3.519
 2006TIP3    H1 5982   4.260   6.512   3.495
 2006TIP3    H2 5983   4.363   6.582   3.581
 2007TIP3   OH2 5984   4.965   0.582   5.200
 2007TIP3    H1 5985   4.952   0.607   5.292
 2007TIP3    H2 5986   4.926   0.654   5.150
 2008TIP3   OH2 5987   7.064   0.605   3.248
 2008TIP3    H1 5988   7.155   0.580   3.267
 2008TIP3    H2 5989   7.070   0.696   3.219
 2009TIP3   OH2 5990   3.092   2.046   3.688
 2009TIP3    H1 5991   3.056   2.128   3.722
 2009TIP3    H2 5992   3.063   1.979   3.751
 2010TIP3   OH2 5993   2.465   6.542   1.603
 2010TIP3    H1 5994   2.384   6.587   1.581
 2010TIP3    H2 5995   2.521   6.610   1.640
 2011TIP3   OH2 5996   3.474   1.076   0.179
 2011TIP3    H1 5997   3.487   1.052   0.271
 2011TIP3    H2 5998   3.396   1.132   0.181
 2012TIP3   OH2 5999   3.920   4.008   5.629
 2012TIP3    H1 6000   3.993   3.953   5.601
 2012TIP3    H2 6001   3.856   4.001   5.558
 2013TIP3   OH2 6002   0.558   3.183   1.445
 2013TIP3    H1 6003   0.624   3.118   1.419
 2013TIP3    H2 6004   0.477   3.132   1.454
 2014TIP3   OH2 6005   4.201   4.765   5.299
 2014TIP3    H1 6006   4.140   4.754   5.372
 2014TIP3    H2 6007   4.180   4.692   5.240
 2015TIP3   OH2 6008   2.657   5.139   5.405
 2015TIP3    H1 6009   2.728   5.163   5.464
 2015TIP3    H2 6010   2.701   5.102   5.328
 2016TIP3   OH2 6011   3.737   6.331   2.507
 2016TIP3    H1 6012   3.737   6.332   2.412
 2016TIP3    H2 6013   3.795   6.403   2.532
 2017TIP3   OH2 6014   5.050   3.375   4.350
 2017TIP3    H1 6015   5.081   3.395   4.261
 2017TIP3    H2 6016   5.059   3.280   4.357
 2018TIP3   OH2 6017   3.833   3.886   3.201
 2018TIP3    H1 6018   3.831   3.890   3.297
 2018TIP3    H2 6019   3.810   3.795   3.181
 2019TIP3   OH2 6020   5.306   2.006   2.996
 2019TIP3    H1 6021   5.231   2.033   3.048
 2019TIP3    H2 6022   5.367   1.968   3.060
 2020TIP3   OH2 6023   2.529   0.725   2.720
 2020TIP3    H1 6024   2.490   0.663   2.783
 2020TIP3    H2 6025   2.532   0.808   2.767
 2021TIP3   OH2 6026   4.932   0.861   0.781
 2021TIP3    H1 6027   4.926   0.897   0.869
 2021TIP3    H2 6028   4.925   0.936   0.723
 2022TIP3   OH2 6029   0.081   5.520   4.814
 2022TIP3    H1 6030   0.097   5.451   4.749
 2022TIP3    H2 6031   0.148   5.505   4.881
 2023TIP3   OH2 6032   5.822  -0.037   4.113
 2023TIP3    H1 6033   5.758   0.024   4.150
 2023TIP3    H2 6034   5.803  -0.038   4.019
 2024TIP3   OH2 6035   2.643   6.132   0.134
 2024TIP3    H1 6036   2.603   6.101   0.215
 2024TIP3    H2 6037   2.601   6.216   0.117
 2025TIP3   OH2 6038   3.085   0.757   5.442
 2025TIP3    H1 6039   3.140   0.782   5.516
 2025TIP3    H2 6040   3.058   0.667   5.462
 2026TIP3   OH2 6041   5.804   3.579   0.236
 2026TIP3    H1 6042   5.804   3.661   0.189
 2026TIP3    H2 6043   5.747   3.594   0.312
 2027TIP3   OH2 6044   5.817   4.115   5.280
 2027TIP3    H1 6045   5.770   4.184   5.233
 2027TIP3    H2 6046   5.887   4.088   5.220
 2028TIP3   OH2 6047   4.712   4.165   3.687
 2028TIP3    H1 6048   4.740   4.130   3.772
 2028TIP3    H2 6049   4.620   4.140   3.680
 2029TIP3   OH2 6050   1.137   4.656   0.087
 2029TIP3    H1 6051   1.179   4.596   0.148
 2029TIP3    H2 6052   1.153   4.618   0.000
 2030TIP3   OH2 6053   6.608   1.856   0.534
 2030TIP3    H1 6054   6.615   1.761   0.535
 2030TIP3    H2 6055   6.675   1.886   0.473
 2031TIP3   OH2 6056   5.853   3.321   5.103
 2031TIP3    H1 6057   5.807   3.350   5.182
 2031TIP3    H2 6058   5.806   3.241   5.077
 2032TIP3   OH2 6059   0.668   5.950   5.338
 2032TIP3    H1 6060   0.587   5.998   5.320
 2032TIP3    H2 6061   0.687   5.902   5.258
 2033TIP3   OH2 6062   5.798   3.927   0.480
 2033TIP3    H1 6063   5.802   3.996   0.546
 2033TIP3    H2 6064   5.880   3.879   0.489
 2034TIP3   OH2 6065   4.027   1.860   5.265
 2034TIP3    H1 6066   3.963   1.789   5.264
 2034TIP3    H2 6067   4.049   1.874   5.173
 2035TIP3   OH2 6068   6.885   4.105   1.148
 2035TIP3    H1 6069   6.811   4.058   1.110
 2035TIP3    H2 6070   6.886   4.189   1.103
 2036TIP3   OH2 6071   1.061   0.231   4.063
 2036TIP3    H1 6072   1.095   0.232   3.974
 2036TIP3    H2 6073   1.136   0.254   4.118
 2037TIP3   OH2 6074   3.085   6.283   5.180
 2037TIP3    H1 6075   3.114   6.300   5.091
 2037TIP3    H2 6076   3.160   6.240   5.222
 2038TIP3   OH2 6077   7.151   4.637   2.855
 2038TIP3    H1 6078   7.101   4.612   2.932
 2038TIP3    H2 6079   7.086   4.641   2.785
 2039TIP3   OH2 6080   6.088   0.551   2.918
 2039TIP3    H1 6081   6.117   0.460   2.914
 2039TIP3    H2 6082   6.069   0.574   2.828
 2040TIP3   OH2 6083   0.773   6.454   2.466
 2040TIP3    H1 6084   0.835   6.518   2.499
 2040TIP3    H2 6085   0.824   6.399   2.406
 2041TIP3   OH2 6086   2.004   1.783   3.469
 2041TIP3    H1 6087   1.923   1.819   3.432
 2041TIP3    H2 6088   2.017   1.700   3.423
 2042TIP3   OH2 6089   2.268   3.579   0.297
 2042TIP3    H1 6090   2.241   3.525   0.371
 2042TIP3    H2 6091   2.239   3.667   0.319
 2043TIP3   OH2 6092   4.715   2.007   5.167
 2043TIP3    H1 6093   4.707   1.935   5.229
 2043TIP3    H2 6094   4.757   2.078   5.216
 2044TIP3   OH2 6095   6.737   5.218   4.401
 2044TIP3    H1 6096   6.676   5.196   4.471
 2044TIP3    H2 6097   6.696   5.292   4.355
 2045TIP3   OH2 6098   6.297   4.961   4.608
 2045TIP3    H1 6099   6.217   5.008   4.630
 2045TIP3    H2 6100   6.309   4.900   4.682
 2046TIP3   OH2 6101   3.454   2.945   4.739
 2046TIP3    H1 6102   3.368   2.904   4.744
 2046TIP3    H2 6103   3.514   2.877   4.770
 2047TIP3   OH2 6104   5.603   3.852   0.675
 2047TIP3    H1 6105   5.538   3.781   0.675
 2047TIP3    H2 6106   5.596   3.891   0.588
 2048TIP3   OH2 6107   3.803   2.958   1.946
 2048TIP3    H1 6108   3.741   2.993   1.882
 2048TIP3    H2 6109   3.830   3.033   1.998
 2049TIP3   OH2 6110   1.451   0.560   3.157
 2049TIP3    H1 6111   1.368   0.520   3.128
 2049TIP3    H2 6112   1.452   0.545   3.251
 2050TIP3   OH2 6113   6.212   2.852   3.663
 2050TIP3    H1 6114   6.297   2.890   3.642
 2050TIP3    H2 6115   6.210   2.770   3.613
 2051TIP3   OH2 6116   3.194   2.436   0.086
 2051TIP3    H1 6117   3.112   2.402   0.122
 2051TIP3    H2 6118   3.180   2.531   0.077
 2052TIP3   OH2 6119   6.569   4.274   2.795
 2052TIP3    H1 6120   6.589   4.181   2.800
 2052TIP3    H2 6121   6.479   4.279   2.762
 2053TIP3   OH2 6122   5.578   5.453   1.597
 2053TIP3    H1 6123   5.511   5.418   1.655
 2053TIP3    H2 6124   5.536   5.524   1.550
 2054TIP3   OH2 6125   5.126   3.230   3.586
 2054TIP3    H1 6126   5.121   3.325   3.577
 2054TIP3    H2 6127   5.043   3.199   3.548
 2055TIP3   OH2 6128   2.631   4.979   1.159
 2055TIP3    H1 6129   2.688   4.912   1.196
 2055TIP3    H2 6130   2.545   4.963   1.199
 2056TIP3   OH2 6131   5.108   4.706   1.782
 2056TIP3    H1 6132   5.071   4.718   1.870
 2056TIP3    H2 6133   5.049   4.645   1.739
 2057TIP3   OH2 6134   5.242   4.746   2.595
 2057TIP3    H1 6135   5.295   4.750   2.515
 2057TIP3    H2 6136   5.305   4.764   2.666
 2058TIP3   OH2 6137   2.710   6.702   4.684
 2058TIP3    H1 6138   2.778   6.713   4.750
 2058TIP3    H2 6139   2.657   6.782   4.691
 2059TIP3   OH2 6140   5.636   2.918   0.283
 2059TIP3    H1 6141   5.570   2.944   0.219
 2059TIP3    H2 6142   5.647   2.824   0.270
 2060TIP3   OH2 6143   6.262   0.688   1.755
 2060TIP3    H1 6144   6.342   0.672   1.706
 2060TIP3    H2 6145   6.248   0.783   1.748
 2061TIP3   OH2 6146   6.350   1.700   5.120
 2061TIP3    H1 6147   6.278   1.697   5.183
 2061TIP3    H2 6148   6.416   1.756   5.161
 2062TIP3   OH2 6149   0.877   0.523   5.637
 2062TIP3    H1 6150   0.905   0.575   5.713
 2062TIP3    H2 6151   0.783   0.510   5.650
 2063TIP3   OH2 6152   6.500   1.158   1.105
 2063TIP3    H1 6153   6.467   1.068   1.101
 2063TIP3    H2 6154   6.443   1.201   1.168
 2064TIP3   OH2 6155   1.979   2.489   0.408
 2064TIP3    H1 6156   1.979   2.505   0.313
 2064TIP3    H2 6157   1.898   2.441   0.425
 2065TIP3   OH2 6158   6.740   5.556   1.946
 2065TIP3    H1 6159   6.787   5.473   1.938
 2065TIP3    H2 6160   6.647   5.531   1.939
 2066TIP3   OH2 6161   6.266   4.080   3.507
 2066TIP3    H1 6162   6.299   4.131   3.433
 2066TIP3    H2 6163   6.206   4.139   3.551
 2067TIP3   OH2 6164   7.067   0.720   5.150
 2067TIP3    H1 6165   7.132   0.679   5.092
 2067TIP3    H2 6166   6.986   0.673   5.133
 2068TIP3   OH2 6167   5.615   0.454   2.822
 2068TIP3    H1 6168   5.673   0.474   2.895
 2068TIP3    H2 6169   5.668   0.401   2.763
 2069TIP3   OH2 6170   1.681   4.758   5.367
 2069TIP3    H1 6171   1.681   4.713   5.452
 2069TIP3    H2 6172   1.715   4.845   5.387
 2070TIP3   OH2 6173   1.221   2.520   1.663
 2070TIP3    H1 6174   1.295   2.577   1.643
 2070TIP3    H2 6175   1.147   2.579   1.671
 2071TIP3   OH2 6176   3.528   6.516   1.658
 2071TIP3    H1 6177   3.471   6.443   1.680
 2071TIP3    H2 6178   3.566   6.492   1.573
 2072TIP3   OH2 6179   6.325   6.149   3.402
 2072TIP3    H1 6180   6.298   6.133   3.312
 2072TIP3    H2 6181   6.260   6.102   3.455
 2073TIP3   OH2 6182   1.606   1.975   1.943
 2073TIP3    H1 6183   1.663   2.005   1.873
 2073TIP3    H2 6184   1.518   1.977   1.906
 2074TIP3   OH2 6185   0.761   4.053   0.237
 2074TIP3    H1 6186   0.728   4.107   0.308
 2074TIP3    H2 6187   0.789   4.116   0.170
 2075TIP3   OH2 6188   6.495   2.240   1.101
 2075TIP3    H1 6189   6.506   2.146   1.089
 2075TIP3    H2 6190   6.537   2.278   1.024
 2076TIP3   OH2 6191   6.816   4.089   3.948
 2076TIP3    H1 6192   6.875   4.124   3.881
 2076TIP3    H2 6193   6.731   4.126   3.926
 2077TIP3   OH2 6194   0.787   5.157   5.809
 2077TIP3    H1 6195   0.727   5.219   5.768
 2077TIP3    H2 6196   0.793   5.185   5.900
 2078TIP3   OH2 6197   0.396   1.740   0.136
 2078TIP3    H1 6198   0.443   1.778   0.062
 2078TIP3    H2 6199   0.304   1.743   0.109
 2079TIP3   OH2 6200   4.849   4.115   2.081
 2079TIP3    H1 6201   4.767   4.151   2.047
 2079TIP3    H2 6202   4.859   4.156   2.167
 2080TIP3   OH2 6203   5.164   6.547   2.647
 2080TIP3    H1 6204   5.079   6.565   2.608
 2080TIP3    H2 6205   5.145   6.536   2.740
 2081TIP3   OH2 6206   2.771   5.615   1.829
 2081TIP3    H1 6207   2.701   5.636   1.768
 2081TIP3    H2 6208   2.822   5.547   1.785
 2082TIP3   OH2 6209   2.102   5.171   3.790
 2082TIP3    H1 6210   2.111   5.076   3.786
 2082TIP3    H2 6211   2.025   5.186   3.845
 2083TIP3   OH2 6212   5.787   0.357   0.862
 2083TIP3    H1 6213   5.853   0.427   0.862
 2083TIP3    H2 6214   5.832   0.281   0.827
 2084TIP3   OH2 6215   3.756   0.834   4.626
 2084TIP3    H1 6216   3.716   0.889   4.558
 2084TIP3    H2 6217   3.720   0.747   4.611
 2085TIP3   OH2 6218   1.067   3.404   1.164
 2085TIP3    H1 6219   1.075   3.393   1.259
 2085TIP3    H2 6220   1.048   3.317   1.131
 2086TIP3   OH2 6221   3.675   4.722   0.096
 2086TIP3    H1 6222   3.681   4.694   0.188
 2086TIP3    H2 6223   3.764   4.748   0.073
 2087TIP3   OH2 6224   3.590   0.366   5.847
 2087TIP3    H1 6225   3.528   0.383   5.917
 2087TIP3    H2 6226   3.625   0.452   5.824
 2088TIP3   OH2 6227   2.046   2.915   3.030
 2088TIP3    H1 6228   1.995   2.847   3.074
 2088TIP3    H2 6229   2.080   2.969   3.102
 2089TIP3   OH2 6230   0.413   6.349   1.617
 2089TIP3    H1 6231   0.422   6.385   1.529
 2089TIP3    H2 6232   0.382   6.259   1.603
 2090TIP3   OH2 6233   3.723   5.505   1.167
 2090TIP3    H1 6234   3.633   5.515   1.137
 2090TIP3    H2 6235   3.734   5.411   1.180
 2091TIP3   OH2 6236   5.729   4.874   1.934
 2091TIP3    H1 6237   5.756   4.952   1.884
 2091TIP3    H2 6238   5.779   4.803   1.895
 2092TIP3   OH2 6239   3.651   1.386   1.041
 2092TIP3    H1 6240   3.699   1.396   1.123
 2092TIP3    H2 6241   3.712   1.338   0.983
 2093TIP3   OH2 6242   1.112   3.873   1.172
 2093TIP3    H1 6243   1.079   3.901   1.086
 2093TIP3    H2 6244   1.069   3.789   1.188
 2094TIP3   OH2 6245   7.077   2.154   1.978
 2094TIP3    H1 6246   7.091   2.241   1.941
 2094TIP3    H2 6247   7.103   2.094   1.908
 2095TIP3   OH2 6248   1.793   5.444   0.682
 2095TIP3    H1 6249   1.821   5.519   0.630
 2095TIP3    H2 6250   1.698   5.452   0.688
 2096TIP3   OH2 6251   5.398   2.661   1.534
 2096TIP3    H1 6252   5.471   2.624   1.584
 2096TIP3    H2 6253   5.376   2.742   1.580
 2097TIP3   OH2 6254   4.998   0.881   4.337
 2097TIP3    H1 6255   4.914   0.910   4.300
 2097TIP3    H2 6256   5.060   0.949   4.311
 2098TIP3   OH2 6257   1.778   3.571   2.152
 2098TIP3    H1 6258   1.724   3.625   2.094
 2098TIP3    H2 6259   1.866   3.608   2.145
 2099TIP3   OH2 6260   3.547  -0.046   0.793
 2099TIP3    H1 6261   3.460  -0.007   0.785
 2099TIP3    H2 6262   3.603   0.027   0.820
 2100TIP3   OH2 6263   4.230   1.132   0.902
 2100TIP3    H1 6264   4.300   1.197   0.894
 2100TIP3    H2 6265   4.168   1.171   0.963
 2101TIP3   OH2 6266   1.533   3.591   2.319
 2101TIP3    H1 6267   1.613   3.550   2.286
 2101TIP3    H2 6268   1.479   3.517   2.347
 2102TIP3   OH2 6269   1.408   0.720   1.697
 2102TIP3    H1 6270   1.372   0.793   1.747
 2102TIP3    H2 6271   1.423   0.755   1.609
 2103TIP3   OH2 6272   0.202   3.340   4.635
 2103TIP3    H1 6273   0.202   3.254   4.594
 2103TIP3    H2 6274   0.164   3.326   4.722
 2104TIP3   OH2 6275   6.493   1.781   0.902
 2104TIP3    H1 6276   6.449   1.796   0.986
 2104TIP3    H2 6277   6.434   1.818   0.837
 2105TIP3   OH2 6278   0.843   5.235   2.515
 2105TIP3    H1 6279   0.923   5.235   2.463
 2105TIP3    H2 6280   0.873   5.216   2.605
 2106TIP3   OH2 6281   1.077   1.223   3.951
 2106TIP3    H1 6282   1.029   1.140   3.962
 2106TIP3    H2 6283   1.021   1.275   3.892
 2107TIP3   OH2 6284   1.994   5.687   1.786
 2107TIP3    H1 6285   1.912   5.736   1.779
 2107TIP3    H2 6286   2.021   5.700   1.877
 2108TIP3   OH2 6287   3.493   3.058   1.199
 2108TIP3    H1 6288   3.574   3.019   1.166
 2108TIP3    H2 6289   3.496   3.148   1.169
 2109TIP3   OH2 6290   2.221   3.678   4.374
 2109TIP3    H1 6291   2.205   3.769   4.399
 2109TIP3    H2 6292   2.213   3.630   4.457
 2110TIP3   OH2 6293   2.015   2.013   5.836
 2110TIP3    H1 6294   2.067   1.964   5.899
 2110TIP3    H2 6295   2.077   2.077   5.800
 2111TIP3   OH2 6296   3.218   1.884   2.436
 2111TIP3    H1 6297   3.267   1.945   2.491
 2111TIP3    H2 6298   3.242   1.909   2.347
 2112TIP3   OH2 6299   0.425   0.972   0.195
 2112TIP3    H1 6300   0.331   0.988   0.186
 2112TIP3    H2 6301   0.433   0.877   0.202
 2113TIP3   OH2 6302   1.285   4.529   0.483
 2113TIP3    H1 6303   1.344   4.472   0.532
 2113TIP3    H2 6304   1.197   4.499   0.508
 2114TIP3   OH2 6305   4.739   2.541   0.771
 2114TIP3    H1 6306   4.689   2.512   0.695
 2114TIP3    H2 6307   4.737   2.466   0.831
 2115TIP3   OH2 6308   1.348   1.993   1.612
 2115TIP3    H1 6309   1.367   2.084   1.634
 2115TIP3    H2 6310   1.338   1.949   1.697
 2116TIP3   OH2 6311   0.904   2.849   2.938
 2116TIP3    H1 6312   0.908   2.908   2.863
 2116TIP3    H2 6313   0.993   2.815   2.946
 2117TIP3   OH2 6314   3.971   1.387   0.870
 2117TIP3    H1 6315   3.902   1.326   0.843
 2117TIP3    H2 6316   3.978   1.448   0.796
 2118TIP3   OH2 6317   3.272   4.805   2.711
 2118TIP3    H1 6318   3.271   4.747   2.787
 2118TIP3    H2 6319   3.329   4.760   2.648
 2119TIP3   OH2 6320   6.791   6.447   0.911
 2119TIP3    H1 6321   6.840   6.365   0.918
 2119TIP3    H2 6322   6.778   6.475   1.001
 2120TIP3   OH2 6323   3.264   3.837   4.270
 2120TIP3    H1 6324   3.307   3.904   4.323
 2120TIP3    H2 6325   3.176   3.871   4.254
 2121TIP3   OH2 6326   5.760   5.906   5.351
 2121TIP3    H1 6327   5.674   5.947   5.362
 2121TIP3    H2 6328   5.797   5.902   5.439
 2122TIP3   OH2 6329   3.162   4.393   0.126
 2122TIP3    H1 6330   3.153   4.370   0.219
 2122TIP3    H2 6331   3.203   4.479   0.127
 2123TIP3   OH2 6332   2.437   3.209   0.916
 2123TIP3    H1 6333   2.464   3.228   0.826
 2123TIP3    H2 6334   2.503   3.150   0.949
 2124TIP3   OH2 6335   4.661   1.428   1.807
 2124TIP3    H1 6336   4.656   1.468   1.894
 2124TIP3    H2 6337   4.755   1.422   1.788
 2125TIP3   OH2 6338   4.196   1.229   2.833
 2125TIP3    H1 6339   4.136   1.191   2.769
 2125TIP3    H2 6340   4.219   1.314   2.796
 2126TIP3   OH2 6341   2.378   5.525   1.247
 2126TIP3    H1 6342   2.472   5.543   1.250
 2126TIP3    H2 6343   2.341   5.579   1.316
 2127TIP3   OH2 6344   3.595   4.888   1.986
 2127TIP3    H1 6345   3.577   4.803   2.026
 2127TIP3    H2 6346   3.601   4.871   1.892
 2128TIP3   OH2 6347   3.348   6.580   4.905
 2128TIP3    H1 6348   3.406   6.617   4.971
 2128TIP3    H2 6349   3.403   6.572   4.827
 2129TIP3   OH2 6350   2.191   5.780   5.401
 2129TIP3    H1 6351   2.221   5.703   5.352
 2129TIP3    H2 6352   2.192   5.851   5.337
 2130TIP3   OH2 6353   0.779   3.280   5.578
 2130TIP3    H1 6354   0.827   3.319   5.651
 2130TIP3    H2 6355   0.732   3.207   5.617
 2131TIP3   OH2 6356   3.076   0.309   1.703
 2131TIP3    H1 6357   3.125   0.391   1.694
 2131TIP3    H2 6358   2.992   0.327   1.659
 2132TIP3   OH2 6359   5.760   1.448   4.414
 2132TIP3    H1 6360   5.732   1.495   4.336
 2132TIP3    H2 6361   5.769   1.516   4.481
 2133TIP3   OH2 6362   2.910   1.608   5.744
 2133TIP3    H1 6363   2.881   1.521   5.769
 2133TIP3    H2 6364   2.858   1.667   5.799
 2134TIP3   OH2 6365   7.224   0.957   1.440
 2134TIP3    H1 6366   7.186   0.983   1.356
 2134TIP3    H2 6367   7.183   0.873   1.461
 2135TIP3   OH2 6368   7.037   1.936   2.552
 2135TIP3    H1 6369   6.959   1.899   2.512
 2135TIP3    H2 6370   7.054   1.881   2.628
 2136TIP3   OH2 6371   1.835   0.885   5.009
 2136TIP3    H1 6372   1.772   0.838   4.954
 2136TIP3    H2 6373   1.835   0.837   5.092
 2137TIP3   OH2 6374   1.419   5.776   4.230
 2137TIP3    H1 6375   1.484   5.711   4.257
 2137TIP3    H2 6376   1.468   5.838   4.176
 2138TIP3   OH2 6377   0.414   4.081   0.754
 2138TIP3    H1 6378   0.319   4.073   0.741
 2138TIP3    H2 6379   0.432   4.174   0.738
 2139TIP3   OH2 6380   4.271   0.717   5.252
 2139TIP3    H1 6381   4.209   0.663   5.300
 2139TIP3    H2 6382   4.340   0.737   5.316
 2140TIP3   OH2 6383   2.639   2.616   4.202
 2140TIP3    H1 6384   2.630   2.603   4.297
 2140TIP3    H2 6385   2.636   2.527   4.166
 2141TIP3   OH2 6386   6.257   5.680   1.848
 2141TIP3    H1 6387   6.186   5.741   1.829
 2141TIP3    H2 6388   6.216   5.594   1.845
 2142TIP3   OH2 6389   3.791   6.086   2.816
 2142TIP3    H1 6390   3.843   6.114   2.891
 2142TIP3    H2 6391   3.719   6.149   2.812
 2143TIP3   OH2 6392   6.559   0.692   4.839
 2143TIP3    H1 6393   6.566   0.767   4.780
 2143TIP3    H2 6394   6.650   0.672   4.863
 2144TIP3   OH2 6395   0.151   2.163   4.533
 2144TIP3    H1 6396   0.144   2.204   4.447
 2144TIP3    H2 6397   0.111   2.226   4.593
 2145TIP3   OH2 6398   1.489   5.798   5.864
 2145TIP3    H1 6399   1.572   5.770   5.824
 2145TIP3    H2 6400   1.493   5.894   5.861
 2146TIP3   OH2 6401   5.886   3.808   2.080
 2146TIP3    H1 6402   5.926   3.849   2.003
 2146TIP3    H2 6403   5.797   3.786   2.051
 2147TIP3   OH2 6404   4.116   1.307   5.067
 2147TIP3    H1 6405   4.111   1.350   4.981
 2147TIP3    H2 6406   4.167   1.228   5.051
 2148TIP3   OH2 6407   6.890   0.285   3.448
 2148TIP3    H1 6408   6.977   0.318   3.471
 2148TIP3    H2 6409   6.861   0.339   3.375
 2149TIP3   OH2 6410   3.277   0.117   3.174
 2149TIP3    H1 6411   3.257   0.037   3.222
 2149TIP3    H2 6412   3.275   0.186   3.241
 2150TIP3   OH2 6413   0.220   2.231   5.571
 2150TIP3    H1 6414   0.248   2.269   5.488
 2150TIP3    H2 6415   0.208   2.307   5.629
 2151TIP3   OH2 6416   0.219   5.823   0.260
 2151TIP3    H1 6417   0.150   5.886   0.238
 2151TIP3    H2 6418   0.240   5.780   0.177
 2152TIP3   OH2 6419   6.424   2.154   2.412
 2152TIP3    H1 6420   6.395   2.202   2.334
 2152TIP3    H2 6421   6.513   2.126   2.392
 2153TIP3   OH2 6422   2.745   5.639   3.603
 2153TIP3    H1 6423   2.758   5.647   3.697
 2153TIP3    H2 6424   2.777   5.722   3.567
 2154TIP3   OH2 6425   6.506   5.296   3.365
 2154TIP3    H1 6426   6.516   5.340   3.449
 2154TIP3    H2 6427   6.555   5.351   3.303
 2155TIP3   OH2 6428   3.760   3.990   0.534
 2155TIP3    H1 6429   3.840   4.027   0.570
 2155TIP3    H2 6430   3.784   3.901   0.508
 2156TIP3   OH2 6431   3.313   2.776   4.457
 2156TIP3    H1 6432   3.399   2.742   4.481
 2156TIP3    H2 6433   3.259   2.698   4.444
 2157TIP3   OH2 6434   3.300   1.262   4.319
 2157TIP3    H1 6435   3.244   1.282   4.394
 2157TIP3    H2 6436   3.309   1.167   4.321
 2158TIP3   OH2 6437   3.508   6.685   5.138
 2158TIP3    H1 6438   3.493   6.615   5.202
 2158TIP3    H2 6439   3.599   6.674   5.112
 2159TIP3   OH2 6440   1.369   5.586   1.932
 2159TIP3    H1 6441   1.447   5.535   1.910
 2159TIP3    H2 6442   1.296   5.531   1.903
 2160TIP3   OH2 6443   3.000   2.067   3.373
 2160TIP3    H1 6444   2.915   2.071   3.416
 2160TIP3    H2 6445   3.063   2.076   3.444
 2161TIP3   OH2 6446   3.271   1.677   3.067
 2161TIP3    H1 6447   3.350   1.649   3.021
 2161TIP3    H2 6448   3.200   1.664   3.004
 2162TIP3   OH2 6449   2.364   4.903   0.294
 2162TIP3    H1 6450   2.289   4.919   0.351
 2162TIP3    H2 6451   2.334   4.926   0.206
 2163TIP3   OH2 6452   5.157   2.243   3.808
 2163TIP3    H1 6453   5.240   2.206   3.836
 2163TIP3    H2 6454   5.163   2.249   3.713
 2164TIP3   OH2 6455   5.747   6.430   1.644
 2164TIP3    H1 6456   5.696   6.483   1.582
 2164TIP3    H2 6457   5.838   6.454   1.628
 2165TIP3   OH2 6458   2.267   6.512   5.333
 2165TIP3    H1 6459   2.359   6.495   5.354
 2165TIP3    H2 6460   2.249   6.457   5.257
 2166TIP3   OH2 6461   0.693   1.177   5.426
 2166TIP3    H1 6462   0.722   1.269   5.435
 2166TIP3    H2 6463   0.774   1.129   5.410
 2167TIP3   OH2 6464   0.649   5.266   1.527
 2167TIP3    H1 6465   0.728   5.242   1.478
 2167TIP3    H2 6466   0.616   5.344   1.482
 2168TIP3   OH2 6467   5.907   4.497   0.475
 2168TIP3    H1 6468   5.977   4.517   0.413
 2168TIP3    H2 6469   5.826   4.514   0.427
 2169TIP3   OH2 6470   2.900   5.261   5.481
 2169TIP3    H1 6471   2.953   5.266   5.401
 2169TIP3    H2 6472   2.901   5.350   5.516
 2170TIP3   OH2 6473   6.127   2.658   0.362
 2170TIP3    H1 6474   6.123   2.737   0.309
 2170TIP3    H2 6475   6.163   2.686   0.445
 2171TIP3   OH2 6476   2.968   3.254   1.695
 2171TIP3    H1 6477   3.064   3.248   1.690
 2171TIP3    H2 6478   2.942   3.172   1.737
 2172TIP3   OH2 6479   0.353   5.169   3.926
 2172TIP3    H1 6480   0.339   5.146   3.834
 2172TIP3    H2 6481   0.267   5.155   3.968
 2173TIP3   OH2 6482   5.354   0.604   4.180
 2173TIP3    H1 6483   5.305   0.637   4.105
 2173TIP3    H2 6484   5.445   0.628   4.163
 2174TIP3   OH2 6485   5.522   2.925   3.923
 2174TIP3    H1 6486   5.578   2.864   3.876
 2174TIP3    H2 6487   5.537   3.010   3.881
 2175TIP3   OH2 6488   2.541   0.418   1.774
 2175TIP3    H1 6489   2.569   0.408   1.865
 2175TIP3    H2 6490   2.475   0.350   1.761
 2176TIP3   OH2 6491   5.571   4.288   3.278
 2176TIP3    H1 6492   5.490   4.340   3.278
 2176TIP3    H2 6493   5.613   4.310   3.195
 2177TIP3   OH2 6494   6.430   6.793   2.274
 2177TIP3    H1 6495   6.480   6.876   2.275
 2177TIP3    H2 6496   6.462   6.748   2.196
 2178TIP3   OH2 6497   5.043   3.107   0.569
 2178TIP3    H1 6498   4.964   3.062   0.598
 2178TIP3    H2 6499   5.101   3.038   0.539
 2179TIP3   OH2 6500   6.442   4.581   4.888
 2179TIP3    H1 6501   6.450   4.521   4.814
 2179TIP3    H2 6502   6.375   4.643   4.861
 2180TIP3   OH2 6503   5.430   0.850   2.252
 2180TIP3    H1 6504   5.506   0.900   2.224
 2180TIP3    H2 6505   5.462   0.794   2.324
 2181TIP3   OH2 6506   2.580   2.681   1.865
 2181TIP3    H1 6507   2.557   2.632   1.944
 2181TIP3    H2 6508   2.625   2.759   1.897
 2182TIP3   OH2 6509   5.283   2.537   0.041
 2182TIP3    H1 6510   5.344   2.463   0.033
 2182TIP3    H2 6511   5.201   2.497   0.070
 2183TIP3   OH2 6512   5.666   2.667   2.948
 2183TIP3    H1 6513   5.689   2.659   2.855
 2183TIP3    H2 6514   5.641   2.579   2.974
 2184TIP3   OH2 6515   7.175   3.906   4.297
 2184TIP3    H1 6516   7.243   3.848   4.331
 2184TIP3    H2 6517   7.093   3.863   4.321
 2185TIP3   OH2 6518   4.936   3.459   1.464
 2185TIP3    H1 6519   4.982   3.504   1.393
 2185TIP3    H2 6520   5.006   3.412   1.511
 2186TIP3   OH2 6521   2.803   6.314   1.927
 2186TIP3    H1 6522   2.824   6.368   1.850
 2186TIP3    H2 6523   2.849   6.232   1.912
 2187TIP3   OH2 6524   4.175   5.990   4.719
 2187TIP3    H1 6525   4.085   6.021   4.729
 2187TIP3    H2 6526   4.220   6.060   4.672
 2188TIP3   OH2 6527   3.524   0.391   0.573
 2188TIP3    H1 6528   3.545   0.336   0.648
 2188TIP3    H2 6529   3.494   0.330   0.506
 2189TIP3   OH2 6530   4.383   3.362   2.794
 2189TIP3    H1 6531   4.434   3.433   2.755
 2189TIP3    H2 6532   4.415   3.356   2.884
 2190TIP3   OH2 6533   3.230   0.195   3.432
 2190TIP3    H1 6534   3.212   0.109   3.472
 2190TIP3    H2 6535   3.211   0.258   3.502
 2191TIP3   OH2 6536   1.392   2.972   4.712
 2191TIP3    H1 6537   1.426   3.062   4.715
 2191TIP3    H2 6538   1.346   2.966   4.629
 2192TIP3   OH2 6539   6.609   0.082   1.556
 2192TIP3    H1 6540   6.566   0.080   1.642
 2192TIP3    H2 6541   6.686   0.026   1.566
 2193TIP3   OH2 6542   0.418   1.197   1.230
 2193TIP3    H1 6543   0.336   1.153   1.211
 2193TIP3    H2 6544   0.425   1.265   1.163
 2194TIP3   OH2 6545   1.156   0.481   4.409
 2194TIP3    H1 6546   1.174   0.485   4.315
 2194TIP3    H2 6547   1.157   0.388   4.430
 2195TIP3   OH2 6548   6.113   6.622   4.769
 2195TIP3    H1 6549   6.157   6.566   4.705
 2195TIP3    H2 6550   6.162   6.611   4.850
 2196TIP3   OH2 6551   0.747   3.208   3.297
 2196TIP3    H1 6552   0.729   3.252   3.214
 2196TIP3    H2 6553   0.832   3.165   3.282
 2197TIP3   OH2 6554   6.219   2.000   5.884
 2197TIP3    H1 6555   6.132   2.037   5.886
 2197TIP3    H2 6556   6.205   1.905   5.886
 2198TIP3   OH2 6557   1.447   3.936   3.972
 2198TIP3    H1 6558   1.477   3.848   3.992
 2198TIP3    H2 6559   1.442   3.980   4.057
 2199TIP3   OH2 6560   5.773   5.879   0.828
 2199TIP3    H1 6561   5.697   5.821   0.824
 2199TIP3    H2 6562   5.743   5.961   0.789
 2200TIP3   OH2 6563   1.109   3.412   2.986
 2200TIP3    H1 6564   1.063   3.453   3.059
 2200TIP3    H2 6565   1.198   3.445   2.991
 2201TIP3   OH2 6566   0.125   1.220   2.862
 2201TIP3    H1 6567   0.065   1.283   2.825
 2201TIP3    H2 6568   0.112   1.228   2.957
 2202TIP3   OH2 6569   3.274   6.733   1.084
 2202TIP3    H1 6570   3.259   6.663   1.022
 2202TIP3    H2 6571   3.344   6.785   1.046
 2203TIP3   OH2 6572   0.460   5.251   0.723
 2203TIP3    H1 6573   0.392   5.214   0.780
 2203TIP3    H2 6574   0.537   5.259   0.779
 2204TIP3   OH2 6575   0.243   0.881   0.587
 2204TIP3    H1 6576   0.186   0.821   0.636
 2204TIP3    H2 6577   0.196   0.898   0.506
 2205TIP3   OH2 6578   4.078   0.165   2.514
 2205TIP3    H1 6579   4.142   0.225   2.553
 2205TIP3    H2 6580   4.128   0.114   2.450
 2206TIP3   OH2 6581   0.053   4.689   3.351
 2206TIP3    H1 6582   0.119   4.688   3.420
 2206TIP3    H2 6583   0.050   4.781   3.323
 2207TIP3   OH2 6584   1.161   3.160   2.908
 2207TIP3    H1 6585   1.256   3.151   2.910
 2207TIP3    H2 6586   1.144   3.249   2.938
 2208TIP3   OH2 6587   1.057   0.770   0.995
 2208TIP3    H1 6588   0.988   0.836   1.004
 2208TIP3    H2 6589   1.017   0.689   1.027
 2209TIP3   OH2 6590   4.595   0.299   3.228
 2209TIP3    H1 6591   4.631   0.210   3.231
 2209TIP3    H2 6592   4.655   0.350   3.282
 2210TIP3   OH2 6593   3.352   3.784   5.625
 2210TIP3    H1 6594   3.416   3.852   5.600
 2210TIP3    H2 6595   3.391   3.742   5.701
 2211TIP3   OH2 6596   2.718   6.030   2.816
 2211TIP3    H1 6597   2.762   6.007   2.897
 2211TIP3    H2 6598   2.759   6.112   2.788
 2212TIP3   OH2 6599   2.039   1.133   5.289
 2212TIP3    H1 6600   2.075   1.203   5.343
 2212TIP3    H2 6601   2.111   1.109   5.231
 2213TIP3   OH2 6602   1.491   0.134  -0.011
 2213TIP3    H1 6603   1.494   0.204   0.055
 2213TIP3    H2 6604   1.554   0.161  -0.078
 2214TIP3   OH2 6605   3.390   5.490   1.683
 2214TIP3    H1 6606   3.434   5.451   1.758
 2214TIP3    H2 6607   3.338   5.561   1.720
 2215TIP3   OH2 6608   4.713   3.190   4.343
 2215TIP3    H1 6609   4.628   3.211   4.304
 2215TIP3    H2 6610   4.756   3.274   4.354
 2216TIP3   OH2 6611   5.785   3.134   2.851
 2216TIP3    H1 6612   5.856   3.174   2.800
 2216TIP3    H2 6613   5.828   3.092   2.925
 2217TIP3   OH2 6614   3.861   5.203   5.870
 2217TIP3    H1 6615   3.921   5.136   5.902
 2217TIP3    H2 6616   3.807   5.225   5.946
 2218TIP3   OH2 6617   6.139   2.578   5.900
 2218TIP3    H1 6618   6.146   2.518   5.826
 2218TIP3    H2 6619   6.046   2.594   5.910
 2219TIP3   OH2 6620   4.536   2.202   2.289
 2219TIP3    H1 6621   4.565   2.292   2.276
 2219TIP3    H2 6622   4.599   2.165   2.350
 2220TIP3   OH2 6623   6.977   0.067   1.015
 2220TIP3    H1 6624   7.052   0.014   1.042
 2220TIP3    H2 6625   6.969   0.134   1.082
 2221TIP3   OH2 6626   5.132   3.784   4.699
 2221TIP3    H1 6627   5.117   3.875   4.723
 2221TIP3    H2 6628   5.211   3.786   4.644
 2222TIP3   OH2 6629   6.602   2.189   3.848
 2222TIP3    H1 6630   6.627   2.160   3.936
 2222TIP3    H2 6631   6.670   2.154   3.791
 2223TIP3   OH2 6632   6.450   2.124   1.436
 2223TIP3    H1 6633   6.369   2.145   1.484
 2223TIP3    H2 6634   6.432   2.152   1.346
 2224TIP3   OH2 6635   1.253   0.973   0.956
 2224TIP3    H1 6636   1.191   0.901   0.960
 2224TIP3    H2 6637   1.305   0.964   1.037
 2225TIP3   OH2 6638   3.125   3.549   2.014
 2225TIP3    H1 6639   3.198   3.601   1.980
 2225TIP3    H2 6640   3.147   3.459   1.992
 2226TIP3   OH2 6641   3.124   1.627   4.927
 2226TIP3    H1 6642   3.133   1.588   5.014
 2226TIP3    H2 6643   3.136   1.721   4.941
 2227TIP3   OH2 6644   1.401   6.137   2.575
 2227TIP3    H1 6645   1.471   6.180   2.528
 2227TIP3    H2 6646   1.439   6.116   2.661
 2228TIP3   OH2 6647   6.871   5.454   4.533
 2228TIP3    H1 6648   6.857   5.507   4.455
 2228TIP3    H2 6649   6.966   5.451   4.543
 2229TIP3   OH2 6650   6.951   6.345   0.449
 2229TIP3    H1 6651   6.880   6.409   0.452
 2229TIP3    H2 6652   6.931   6.290   0.374
 2230TIP3   OH2 6653   1.041   3.925   1.990
 2230TIP3    H1 6654   0.951   3.894   1.979
 2230TIP3    H2 6655   1.077   3.926   1.901
 2231TIP3   OH2 6656   2.137   0.221   1.331
 2231TIP3    H1 6657   2.204   0.261   1.387
 2231TIP3    H2 6658   2.054   0.239   1.375
 2232TIP3   OH2 6659   2.165   1.033   3.673
 2232TIP3    H1 6660   2.119   1.117   3.669
 2232TIP3    H2 6661   2.136   0.986   3.595
 2233TIP3   OH2 6662   2.397   4.517   3.999
 2233TIP3    H1 6663   2.482   4.549   3.969
 2233TIP3    H2 6664   2.368   4.581   4.064
 2234TIP3   OH2 6665   4.602   0.164   5.494
 2234TIP3    H1 6666   4.606   0.121   5.408
 2234TIP3    H2 6667   4.508   0.163   5.516
 2235TIP3   OH2 6668   6.908   5.356   3.059
 2235TIP3    H1 6669   6.858   5.341   2.979
 2235TIP3    H2 6670   6.994   5.385   3.029
 2236TIP3   OH2 6671   3.902   0.427   2.949
 2236TIP3    H1 6672   3.967   0.380   2.898
 2236TIP3    H2 6673   3.844   0.466   2.884
 2237TIP3   OH2 6674   4.959   4.447   0.191
 2237TIP3    H1 6675   5.009   4.528   0.193
 2237TIP3    H2 6676   4.889   4.460   0.255
 2238TIP3   OH2 6677   2.581   0.392   3.490
 2238TIP3    H1 6678   2.486   0.392   3.499
 2238TIP3    H2 6679   2.601   0.475   3.447
 2239TIP3   OH2 6680   4.714   6.038   0.361
 2239TIP3    H1 6681   4.708   6.103   0.290
 2239TIP3    H2 6682   4.627   6.000   0.366
 2240TIP3   OH2 6683   5.818   1.650   4.091
 2240TIP3    H1 6684   5.797   1.718   4.156
 2240TIP3    H2 6685   5.739   1.643   4.038
 2241TIP3   OH2 6686   6.322   1.695   1.367
 2241TIP3    H1 6687   6.318   1.757   1.440
 2241TIP3    H2 6688   6.235   1.699   1.328
 2242TIP3   OH2 6689   4.636   1.882   3.946
 2242TIP3    H1 6690   4.716   1.849   3.905
 2242TIP3    H2 6691   4.630   1.974   3.919
 2243TIP3   OH2 6692   2.076   2.912   2.608
 2243TIP3    H1 6693   2.143   2.846   2.623
 2243TIP3    H2 6694   2.085   2.935   2.515
 2244TIP3   OH2 6695   2.714   6.206   2.509
 2244TIP3    H1 6696   2.671   6.137   2.458
 2244TIP3    H2 6697   2.684   6.287   2.469
 2245TIP3   OH2 6698   4.394   1.394   1.872
 2245TIP3    H1 6699   4.333   1.410   1.799
 2245TIP3    H2 6700   4.481   1.404   1.833
 2246TIP3   OH2 6701   2.064   0.606   0.547
 2246TIP3    H1 6702   2.059   0.698   0.571
 2246TIP3    H2 6703   2.030   0.559   0.623
 2247TIP3   OH2 6704   5.914   1.655   5.596
 2247TIP3    H1 6705   5.907   1.724   5.662
 2247TIP3    H2 6706   5.967   1.587   5.638
 2248TIP3   OH2 6707   1.598   5.905   2.356
 2248TIP3    H1 6708   1.633   5.905   2.267
 2248TIP3    H2 6709   1.522   5.847   2.352
 2249TIP3   OH2 6710   2.706   2.837   2.793
 2249TIP3    H1 6711   2.705   2.893   2.870
 2249TIP3    H2 6712   2.699   2.897   2.719
 2250TIP3   OH2 6713   3.555   6.596   2.690
 2250TIP3    H1 6714   3.477   6.551   2.659
 2250TIP3    H2 6715   3.576   6.659   2.621
 2251TIP3   OH2 6716   5.982   3.745   3.765
 2251TIP3    H1 6717   6.071   3.741   3.800
 2251TIP3    H2 6718   5.983   3.684   3.691
 2252TIP3   OH2 6719   5.859   5.644   5.066
 2252TIP3    H1 6720   5.837   5.649   4.973
 2252TIP3    H2 6721   5.819   5.563   5.097
 2253TIP3   OH2 6722   2.907   6.685   3.418
 2253TIP3    H1 6723   2.987   6.689   3.366
 2253TIP3    H2 6724   2.935   6.697   3.508
 2254TIP3   OH2 6725   2.488   1.786   5.120
 2254TIP3    H1 6726   2.489   1.869   5.071
 2254TIP3    H2 6727   2.397   1.776   5.148
 2255TIP3   OH2 6728   2.992   2.617   5.485
 2255TIP3    H1 6729   2.996   2.591   5.577
 2255TIP3    H2 6730   3.083   2.617   5.456
 2256TIP3   OH2 6731   2.316   5.582   4.070
 2256TIP3    H1 6732   2.369   5.600   3.993
 2256TIP3    H2 6733   2.237   5.636   4.058
 2257TIP3   OH2 6734   4.439   2.867   0.254
 2257TIP3    H1 6735   4.531   2.857   0.232
 2257TIP3    H2 6736   4.438   2.906   0.341
 2258TIP3   OH2 6737   3.763   6.399   4.081
 2258TIP3    H1 6738   3.684   6.346   4.084
 2258TIP3    H2 6739   3.835   6.335   4.076
 2259TIP3   OH2 6740   6.547   3.560   3.660
 2259TIP3    H1 6741   6.555   3.653   3.641
 2259TIP3    H2 6742   6.580   3.550   3.749
 2260TIP3   OH2 6743   2.604   4.212   2.235
 2260TIP3    H1 6744   2.528   4.224   2.292
 2260TIP3    H2 6745   2.579   4.140   2.177
 2261TIP3   OH2 6746   5.343   0.709   1.920
 2261TIP3    H1 6747   5.337   0.663   2.004
 2261TIP3    H2 6748   5.266   0.766   1.919
 2262TIP3   OH2 6749   3.236   3.836   3.222
 2262TIP3    H1 6750   3.194   3.920   3.205
 2262TIP3    H2 6751   3.327   3.848   3.194
 2263TIP3   OH2 6752   4.517   0.725   1.036
 2263TIP3    H1 6753   4.480   0.660   0.977
 2263TIP3    H2 6754   4.447   0.789   1.048
 2264TIP3   OH2 6755   1.742   6.101   3.377
 2264TIP3    H1 6756   1.714   6.025   3.428
 2264TIP3    H2 6757   1.661   6.149   3.361
 2265TIP3   OH2 6758   0.684   4.787   5.215
 2265TIP3    H1 6759   0.761   4.766   5.268
 2265TIP3    H2 6760   0.611   4.784   5.276
 2266TIP3   OH2 6761   2.781   5.572   0.606
 2266TIP3    H1 6762   2.818   5.545   0.522
 2266TIP3    H2 6763   2.693   5.534   0.607
 2267TIP3   OH2 6764   6.751   3.790   4.375
 2267TIP3    H1 6765   6.749   3.770   4.282
 2267TIP3    H2 6766   6.838   3.762   4.404
 2268TIP3   OH2 6767   1.671   6.404   2.167
 2268TIP3    H1 6768   1.653   6.340   2.098
 2268TIP3    H2 6769   1.608   6.385   2.236
 2269TIP3   OH2 6770   5.235   5.618   0.974
 2269TIP3    H1 6771   5.239   5.683   1.044
 2269TIP3    H2 6772   5.239   5.670   0.894
 2270TIP3   OH2 6773   0.667   4.057   4.982
 2270TIP3    H1 6774   0.707   4.007   4.911
 2270TIP3    H2 6775   0.626   3.990   5.037
 2271TIP3   OH2 6776   4.921   2.569   2.757
 2271TIP3    H1 6777   4.839   2.560   2.709
 2271TIP3    H2 6778   4.897   2.612   2.839
 2272TIP3   OH2 6779   4.338   2.558   0.365
 2272TIP3    H1 6780   4.407   2.497   0.341
 2272TIP3    H2 6781   4.381   2.644   0.367
 2273TIP3   OH2 6782   4.535   1.231   4.332
 2273TIP3    H1 6783   4.464   1.253   4.392
 2273TIP3    H2 6784   4.495   1.237   4.245
 2274TIP3   OH2 6785   4.288   1.051  -0.001
 2274TIP3    H1 6786   4.253   1.095   0.077
 2274TIP3    H2 6787   4.339   0.978   0.033
 2275TIP3   OH2 6788   3.991   4.553   1.658
 2275TIP3    H1 6789   3.947   4.468   1.659
 2275TIP3    H2 6790   3.935   4.608   1.604
 2276TIP3   OH2 6791   6.938   3.655   2.461
 2276TIP3    H1 6792   6.904   3.717   2.524
 2276TIP3    H2 6793   6.912   3.569   2.494
 2277TIP3   OH2 6794   1.441   6.614   4.731
 2277TIP3    H1 6795   1.389   6.634   4.808
 2277TIP3    H2 6796   1.399   6.538   4.691
 2278TIP3   OH2 6797   4.120   2.954   2.791
 2278TIP3    H1 6798   4.171   2.936   2.712
 2278TIP3    H2 6799   4.160   3.032   2.829
 2279TIP3   OH2 6800   3.124   5.654   1.714
 2279TIP3    H1 6801   3.147   5.729   1.658
 2279TIP3    H2 6802   3.098   5.694   1.797
 2280TIP3   OH2 6803   3.381   0.996   4.089
 2280TIP3    H1 6804   3.460   0.942   4.093
 2280TIP3    H2 6805   3.336   0.979   4.172
 2281TIP3   OH2 6806   3.045   4.211   2.653
 2281TIP3    H1 6807   3.108   4.197   2.582
 2281TIP3    H2 6808   2.959   4.204   2.611
 2282TIP3   OH2 6809   5.518   1.301   2.105
 2282TIP3    H1 6810   5.581   1.229   2.103
 2282TIP3    H2 6811   5.440   1.266   2.063
 2283TIP3   OH2 6812   2.231   1.509   0.412
 2283TIP3    H1 6813   2.144   1.495   0.449
 2283TIP3    H2 6814   2.268   1.580   0.465
 2284TIP3   OH2 6815   4.890   6.042   5.119
 2284TIP3    H1 6816   4.970   6.095   5.113
 2284TIP3    H2 6817   4.819   6.105   5.130
 2285TIP3   OH2 6818   4.238   3.502   3.112
 2285TIP3    H1 6819   4.324   3.466   3.091
 2285TIP3    H2 6820   4.208   3.450   3.187
 2286TIP3   OH2 6821   1.298   2.937   2.386
 2286TIP3    H1 6822   1.361   2.986   2.438
 2286TIP3    H2 6823   1.345   2.857   2.361
 2287TIP3   OH2 6824   0.704   5.296   5.368
 2287TIP3    H1 6825   0.689   5.204   5.386
 2287TIP3    H2 6826   0.645   5.316   5.296
 2288TIP3   OH2 6827   4.382  -0.090   0.348
 2288TIP3    H1 6828   4.296  -0.048   0.350
 2288TIP3    H2 6829   4.432  -0.046   0.416
 2289TIP3   OH2 6830   4.901   6.628   4.423
 2289TIP3    H1 6831   4.810   6.600   4.435
 2289TIP3    H2 6832   4.951   6.568   4.478
 2290TIP3   OH2 6833   6.798   5.153   2.029
 2290TIP3    H1 6834   6.803   5.224   1.965
 2290TIP3    H2 6835   6.736   5.090   1.991
 2291TIP3   OH2 6836   2.357   0.859   4.988
 2291TIP3    H1 6837   2.293   0.858   5.060
 2291TIP3    H2 6838   2.358   0.950   4.958
 2292TIP3   OH2 6839   5.000   0.751   2.864
 2292TIP3    H1 6840   4.958   0.672   2.830
 2292TIP3    H2 6841   5.085   0.752   2.821
 2293TIP3   OH2 6842   4.402   5.327   4.074
 2293TIP3    H1 6843   4.386   5.421   4.065
 2293TIP3    H2 6844   4.362   5.289   3.996
 2294TIP3   OH2 6845   4.414   2.535   1.766
 2294TIP3    H1 6846   4.433   2.553   1.859
 2294TIP3    H2 6847   4.492   2.565   1.720
 2295TIP3   OH2 6848   0.140   0.136   2.945
 2295TIP3    H1 6849   0.194   0.176   2.877
 2295TIP3    H2 6850   0.050   0.156   2.920
 2296TIP3   OH2 6851   2.462   2.010   1.440
 2296TIP3    H1 6852   2.551   1.984   1.465
 2296TIP3    H2 6853   2.412   1.929   1.440
 2297TIP3   OH2 6854   6.053   0.772   1.194
 2297TIP3    H1 6855   5.990   0.806   1.131
 2297TIP3    H2 6856   6.000   0.722   1.256
 2298TIP3   OH2 6857   0.833   6.159   1.380
 2298TIP3    H1 6858   0.909   6.105   1.359
 2298TIP3    H2 6859   0.762   6.121   1.327
 2299TIP3   OH2 6860   4.897   4.855   3.269
 2299TIP3    H1 6861   4.835   4.920   3.237
 2299TIP3    H2 6862   4.905   4.793   3.197
 2300TIP3   OH2 6863   1.863   6.530   2.836
 2300TIP3    H1 6864   1.942   6.528   2.891
 2300TIP3    H2 6865   1.796   6.570   2.891
 2301TIP3   OH2 6866   6.870   2.148   5.837
 2301TIP3    H1 6867   6.914   2.140   5.752
 2301TIP3    H2 6868   6.844   2.239   5.842
 2302TIP3   OH2 6869   3.510   5.453   4.648
 2302TIP3    H1 6870   3.591   5.406   4.665
 2302TIP3    H2 6871   3.454   5.390   4.603
 2303TIP3   OH2 6872   5.792   2.561   5.245
 2303TIP3    H1 6873   5.805   2.613   5.166
 2303TIP3    H2 6874   5.880   2.532   5.269
 2304TIP3   OH2 6875   3.646   4.858   2.393
 2304TIP3    H1 6876   3.699   4.927   2.352
 2304TIP3    H2 6877   3.565   4.857   2.343
 2305TIP3   OH2 6878   2.987   6.390   0.363
 2305TIP3    H1 6879   3.005   6.300   0.337
 2305TIP3    H2 6880   2.909   6.415   0.314
 2306TIP3   OH2 6881   1.265   5.124   1.930
 2306TIP3    H1 6882   1.269   5.071   2.010
 2306TIP3    H2 6883   1.352   5.116   1.892
 2307TIP3   OH2 6884   4.257   3.065   5.845
 2307TIP3    H1 6885   4.283   3.046   5.935
 2307TIP3    H2 6886   4.162   3.062   5.847
 2308TIP3   OH2 6887   5.726   6.715   1.514
 2308TIP3    H1 6888   5.715   6.784   1.580
 2308TIP3    H2 6889   5.646   6.717   1.463
 2309TIP3   OH2 6890   6.046   4.856   2.070
 2309TIP3    H1 6891   5.996   4.867   2.150
 2309TIP3    H2 6892   6.083   4.768   2.076
 2310TIP3   OH2 6893   5.159   4.958   0.668
 2310TIP3    H1 6894   5.119   5.045   0.657
 2310TIP3    H2 6895   5.145   4.937   0.760
 2311TIP3   OH2 6896   1.544   0.043   1.486
 2311TIP3    H1 6897   1.497   0.007   1.411
 2311TIP3    H2 6898   1.517   0.135   1.488
 2312TIP3   OH2 6899   2.309   2.149   5.114
 2312TIP3    H1 6900   2.355   2.129   5.033
 2312TIP3    H2 6901   2.275   2.238   5.102
 2313TIP3   OH2 6902   6.136   4.509   3.073
 2313TIP3    H1 6903   6.148   4.414   3.077
 2313TIP3    H2 6904   6.078   4.529   3.146
 2314TIP3   OH2 6905   0.549   4.687   2.332
 2314TIP3    H1 6906   0.535   4.714   2.241
 2314TIP3    H2 6907   0.572   4.767   2.378
 2315TIP3   OH2 6908   0.747   5.362   0.822
 2315TIP3    H1 6909   0.780   5.445   0.786
 2315TIP3    H2 6910   0.819   5.300   0.808
 2316TIP3   OH2 6911   4.031   4.931   2.128
 2316TIP3    H1 6912   3.986   5.015   2.119
 2316TIP3    H2 6913   4.014   4.904   2.218
 2317TIP3   OH2 6914   6.823   3.002   3.080
 2317TIP3    H1 6915   6.796   2.982   3.170
 2317TIP3    H2 6916   6.877   2.928   3.053
 2318TIP3   OH2 6917   1.831   6.596   1.428
 2318TIP3    H1 6918   1.881   6.586   1.509
 2318TIP3    H2 6919   1.821   6.691   1.417
 2319TIP3   OH2 6920   6.208   1.250   1.552
 2319TIP3    H1 6921   6.116   1.267   1.574
 2319TIP3    H2 6922   6.230   1.170   1.598
 2320TIP3   OH2 6923   1.005   1.794   1.185
 2320TIP3    H1 6924   0.927   1.814   1.236
 2320TIP3    H2 6925   1.035   1.878   1.152
 2321TIP3   OH2 6926   5.042   6.530   3.760
 2321TIP3    H1 6927   4.996   6.601   3.804
 2321TIP3    H2 6928   4.977   6.492   3.701
 2322TIP3   OH2 6929   6.411   2.663   3.856
 2322TIP3    H1 6930   6.450   2.749   3.870
 2322TIP3    H2 6931   6.457   2.605   3.916
 2323TIP3   OH2 6932   1.648   5.299   3.853
 2323TIP3    H1 6933   1.683   5.225   3.902
 2323TIP3    H2 6934   1.562   5.315   3.890
 2324TIP3   OH2 6935   7.052   0.925   2.635
 2324TIP3    H1 6936   7.045   0.971   2.719
 2324TIP3    H2 6937   7.049   0.995   2.570
 2325TIP3   OH2 6938   4.131   6.105   1.850
 2325TIP3    H1 6939   4.171   6.032   1.897
 2325TIP3    H2 6940   4.172   6.103   1.764
 2326TIP3   OH2 6941   4.278   0.363   2.545
 2326TIP3    H1 6942   4.372   0.379   2.537
 2326TIP3    H2 6943   4.240   0.450   2.552
 2327TIP3   OH2 6944   5.521   3.276   1.947
 2327TIP3    H1 6945   5.431   3.281   1.915
 2327TIP3    H2 6946   5.534   3.184   1.969
 2328TIP3   OH2 6947   1.380   0.143   4.421
 2328TIP3    H1 6948   1.379   0.236   4.443
 2328TIP3    H2 6949   1.357   0.098   4.502
 2329TIP3   OH2 6950   1.440   1.532   1.975
 2329TIP3    H1 6951   1.505   1.553   1.908
 2329TIP3    H2 6952   1.467   1.447   2.009
 2330TIP3   OH2 6953   2.188   0.358   2.517
 2330TIP3    H1 6954   2.189   0.303   2.438
 2330TIP3    H2 6955   2.158   0.299   2.586
 2331TIP3   OH2 6956   2.920   1.353   4.517
 2331TIP3    H1 6957   2.952   1.282   4.462
 2331TIP3    H2 6958   2.838   1.381   4.476
 2332TIP3   OH2 6959   4.452   5.258   2.179
 2332TIP3    H1 6960   4.528   5.206   2.203
 2332TIP3    H2 6961   4.479   5.308   2.102
 2333TIP3   OH2 6962   2.428   2.003   2.860
 2333TIP3    H1 6963   2.417   1.941   2.788
 2333TIP3    H2 6964   2.411   1.952   2.939
 2334TIP3   OH2 6965   1.591   1.566   4.745
 2334TIP3    H1 6966   1.533   1.518   4.686
 2334TIP3    H2 6967   1.562   1.657   4.740
 2335TIP3   OH2 6968   3.599   6.084   1.881
 2335TIP3    H1 6969   3.674   6.141   1.899
 2335TIP3    H2 6970   3.637   6.001   1.852
 2336TIP3   OH2 6971   3.857   5.196   1.360
 2336TIP3    H1 6972   3.765   5.207   1.340
 2336TIP3    H2 6973   3.858   5.147   1.442
 2337TIP3   OH2 6974   6.430   5.141   4.920
 2337TIP3    H1 6975   6.372   5.216   4.907
 2337TIP3    H2 6976   6.371   5.068   4.940
 2338TIP3   OH2 6977   2.072   5.552   3.438
 2338TIP3    H1 6978   1.980   5.575   3.429
 2338TIP3    H2 6979   2.087   5.547   3.533
 2339TIP3   OH2 6980   1.319   1.148   2.241
 2339TIP3    H1 6981   1.411   1.174   2.240
 2339TIP3    H2 6982   1.310   1.094   2.320
 2340TIP3   OH2 6983   3.143   2.428   1.287
 2340TIP3    H1 6984   3.064   2.456   1.242
 2340TIP3    H2 6985   3.180   2.360   1.231
 2341TIP3   OH2 6986   6.921   1.930   1.125
 2341TIP3    H1 6987   6.880   1.909   1.040
 2341TIP3    H2 6988   6.907   1.851   1.178
 2342TIP3   OH2 6989   1.735   0.050   5.233
 2342TIP3    H1 6990   1.662   0.085   5.181
 2342TIP3    H2 6991   1.788   0.002   5.170
 2343TIP3   OH2 6992   4.680   2.150   2.532
 2343TIP3    H1 6993   4.722   2.064   2.539
 2343TIP3    H2 6994   4.721   2.202   2.601
 2344TIP3   OH2 6995   2.099   4.291   1.800
 2344TIP3    H1 6996   2.109   4.284   1.705
 2344TIP3    H2 6997   2.021   4.345   1.813
 2345TIP3   OH2 6998   1.532   0.382   2.277
 2345TIP3    H1 6999   1.577   0.332   2.209
 2345TIP3    H2 7000   1.441   0.387   2.247
 2346TIP3   OH2 7001   5.928   4.613   2.189
 2346TIP3    H1 7002   5.945   4.589   2.098
 2346TIP3    H2 7003   5.905   4.530   2.232
 2347TIP3   OH2 7004   4.313   5.089   1.955
 2347TIP3    H1 7005   4.262   5.071   2.033
 2347TIP3    H2 7006   4.394   5.039   1.967
 2348TIP3   OH2 7007   3.766   6.124   0.664
 2348TIP3    H1 7008   3.850   6.078   0.662
 2348TIP3    H2 7009   3.725   6.096   0.746
 2349TIP3   OH2 7010   6.170   3.070   3.448
 2349TIP3    H1 7011   6.231   2.996   3.445
 2349TIP3    H2 7012   6.110   3.048   3.519
 2350TIP3   OH2 7013   1.084   3.406   1.823
 2350TIP3    H1 7014   1.161   3.402   1.767
 2350TIP3    H2 7015   1.035   3.483   1.792
 2351TIP3   OH2 7016   5.260   1.345   1.071
 2351TIP3    H1 7017   5.313   1.289   1.015
 2351TIP3    H2 7018   5.323   1.405   1.112
 2352TIP3   OH2 7019   4.755   1.269   4.040
 2352TIP3    H1 7020   4.803   1.338   3.994
 2352TIP3    H2 7021   4.667   1.271   4.002
 2353TIP3   OH2 7022   6.567   4.629   4.485
 2353TIP3    H1 7023   6.565   4.725   4.479
 2353TIP3    H2 7024   6.475   4.604   4.488
 2354TIP3   OH2 7025   6.933   2.880   2.078
 2354TIP3    H1 7026   6.945   2.829   2.158
 2354TIP3    H2 7027   6.973   2.964   2.097
 2355TIP3   OH2 7028   7.182   4.184   3.104
 2355TIP3    H1 7029   7.125   4.214   3.175
 2355TIP3    H2 7030   7.242   4.257   3.090
 2356TIP3   OH2 7031   5.025   4.448   1.421
 2356TIP3    H1 7032   4.936   4.414   1.406
 2356TIP3    H2 7033   5.080   4.370   1.429
 2357TIP3   OH2 7034   3.614   5.287   1.343
 2357TIP3    H1 7035   3.524   5.320   1.342
 2357TIP3    H2 7036   3.665   5.358   1.384
 2358TIP3   OH2 7037   0.395   0.622   5.270
 2358TIP3    H1 7038   0.320   0.564   5.254
 2358TIP3    H2 7039   0.362   0.686   5.334
 2359TIP3   OH2 7040   3.168   0.174   3.770
 2359TIP3    H1 7041   3.172   0.269   3.769
 2359TIP3    H2 7042   3.087   0.152   3.724
 2360TIP3   OH2 7043   4.219   6.239   3.476
 2360TIP3    H1 7044   4.155   6.274   3.538
 2360TIP3    H2 7045   4.299   6.289   3.493
 2361TIP3   OH2 7046   7.060   4.611   3.148
 2361TIP3    H1 7047   7.130   4.639   3.207
 2361TIP3    H2 7048   6.987   4.668   3.170
 2362TIP3   OH2 7049   1.881   5.366   0.359
 2362TIP3    H1 7050   1.910   5.295   0.417
 2362TIP3    H2 7051   1.946   5.435   0.370
 2363TIP3   OH2 7052   2.089   4.003   2.923
 2363TIP3    H1 7053   2.171   4.008   2.874
 2363TIP3    H2 7054   2.104   3.933   2.988
 2364TIP3   OH2 7055   3.447   1.237   1.174
 2364TIP3    H1 7056   3.518   1.263   1.116
 2364TIP3    H2 7057   3.372   1.290   1.146
 2365TIP3   OH2 7058   2.983   0.092   5.432
 2365TIP3    H1 7059   2.918   0.021   5.433
 2365TIP3    H2 7060   3.064   0.050   5.461
 2366TIP3   OH2 7061   4.336   0.993   1.693
 2366TIP3    H1 7062   4.380   0.912   1.720
 2366TIP3    H2 7063   4.272   1.009   1.762
 2367TIP3   OH2 7064   1.589   5.329   5.075
 2367TIP3    H1 7065   1.589   5.235   5.095
 2367TIP3    H2 7066   1.552   5.369   5.154
 2368TIP3   OH2 7067   5.595   0.465   1.970
 2368TIP3    H1 7068   5.688   0.481   1.954
 2368TIP3    H2 7069   5.566   0.541   2.021
 2369TIP3   OH2 7070   0.644   4.556   0.767
 2369TIP3    H1 7071   0.579   4.591   0.828
 2369TIP3    H2 7072   0.636   4.611   0.689
 2370TIP3   OH2 7073   6.708   6.686   0.826
 2370TIP3    H1 7074   6.740   6.599   0.848
 2370TIP3    H2 7075   6.788   6.738   0.812
 2371TIP3   OH2 7076   2.964   2.094   5.526
 2371TIP3    H1 7077   3.059   2.081   5.528
 2371TIP3    H2 7078   2.938   2.062   5.440
 2372TIP3   OH2 7079   4.213   1.847   5.605
 2372TIP3    H1 7080   4.180   1.877   5.690
 2372TIP3    H2 7081   4.215   1.926   5.551
 2373TIP3   OH2 7082   4.049   2.842   2.388
 2373TIP3    H1 7083   4.052   2.815   2.296
 2373TIP3    H2 7084   3.981   2.909   2.391
 2374TIP3   OH2 7085   1.954   2.232   3.288
 2374TIP3    H1 7086   1.926   2.291   3.218
 2374TIP3    H2 7087   1.888   2.162   3.289
 2375TIP3   OH2 7088   2.541   3.969   3.601
 2375TIP3    H1 7089   2.606   3.900   3.617
 2375TIP3    H2 7090   2.458   3.923   3.594
 2376TIP3   OH2 7091   0.945   2.337   1.811
 2376TIP3    H1 7092   0.913   2.421   1.843
 2376TIP3    H2 7093   0.983   2.294   1.888
 2377TIP3   OH2 7094   3.365   0.777   5.563
 2377TIP3    H1 7095   3.452   0.747   5.536
 2377TIP3    H2 7096   3.379   0.812   5.651
 2378TIP3   OH2 7097   3.432   2.430   1.693
 2378TIP3    H1 7098   3.522   2.462   1.694
 2378TIP3    H2 7099   3.401   2.448   1.605
 2379TIP3   OH2 7100   4.339   1.015   4.522
 2379TIP3    H1 7101   4.424   0.983   4.552
 2379TIP3    H2 7102   4.354   1.108   4.502
 2380TIP3   OH2 7103   2.345   1.047   1.976
 2380TIP3    H1 7104   2.356   1.130   1.929
 2380TIP3    H2 7105   2.295   1.070   2.054
 2381TIP3   OH2 7106   0.335   5.301   5.253
 2381TIP3    H1 7107   0.352   5.384   5.298
 2381TIP3    H2 7108   0.367   5.234   5.314
 2382TIP3   OH2 7109   5.866   2.864   2.639
 2382TIP3    H1 7110   5.914   2.802   2.694
 2382TIP3    H2 7111   5.831   2.811   2.567
 2383TIP3   OH2 7112   5.277   1.880   3.895
 2383TIP3    H1 7113   5.189   1.861   3.926
 2383TIP3    H2 7114   5.268   1.894   3.801
 2384TIP3   OH2 7115   3.425   0.203   1.865
 2384TIP3    H1 7116   3.362   0.239   1.927
 2384TIP3    H2 7117   3.493   0.270   1.859
 2385TIP3   OH2 7118   3.101   6.670   1.816
 2385TIP3    H1 7119   3.082   6.760   1.842
 2385TIP3    H2 7120   3.181   6.677   1.763
 2386TIP3   OH2 7121   4.837   5.026   5.467
 2386TIP3    H1 7122   4.798   5.108   5.497
 2386TIP3    H2 7123   4.826   4.965   5.541
 2387TIP3   OH2 7124   6.845   1.464   4.758
 2387TIP3    H1 7125   6.938   1.469   4.737
 2387TIP3    H2 7126   6.802   1.519   4.693
 2388TIP3   OH2 7127   1.944   6.289   0.632
 2388TIP3    H1 7128   1.945   6.263   0.540
 2388TIP3    H2 7129   2.007   6.362   0.637
 2389TIP3   OH2 7130   2.383   5.765   2.385
 2389TIP3    H1 7131   2.433   5.719   2.453
 2389TIP3    H2 7132   2.317   5.815   2.433
 2390TIP3   OH2 7133   7.198   6.483   3.570
 2390TIP3    H1 7134   7.266   6.544   3.597
 2390TIP3    H2 7135   7.117   6.532   3.576
 2391TIP3   OH2 7136   0.412   2.382   0.248
 2391TIP3    H1 7137   0.465   2.417   0.176
 2391TIP3    H2 7138   0.456   2.412   0.327
 2392TIP3   OH2 7139   5.232   1.406   5.567
 2392TIP3    H1 7140   5.246   1.455   5.648
 2392TIP3    H2 7141   5.267   1.462   5.498
 2393TIP3   OH2 7142   5.994   5.836   1.130
 2393TIP3    H1 7143   5.962   5.871   1.047
 2393TIP3    H2 7144   5.952   5.889   1.197
 2394TIP3   OH2 7145   2.089   4.446   5.529
 2394TIP3    H1 7146   2.027   4.491   5.472
 2394TIP3    H2 7147   2.066   4.475   5.617
 2395TIP3   OH2 7148   1.429   2.475   0.438
 2395TIP3    H1 7149   1.419   2.382   0.457
 2395TIP3    H2 7150   1.484   2.478   0.359
 2396TIP3   OH2 7151   0.114   3.672   3.143
 2396TIP3    H1 7152   0.147   3.754   3.107
 2396TIP3    H2 7153   0.188   3.637   3.194
 2397TIP3   OH2 7154   5.285   4.516   1.333
 2397TIP3    H1 7155   5.231   4.556   1.401
 2397TIP3    H2 7156   5.314   4.433   1.372
 2398TIP3   OH2 7157   3.682   2.810   3.028
 2398TIP3    H1 7158   3.769   2.770   3.037
 2398TIP3    H2 7159   3.699   2.890   2.979
 2399TIP3   OH2 7160   1.211   4.654   3.062
 2399TIP3    H1 7161   1.270   4.716   3.019
 2399TIP3    H2 7162   1.125   4.695   3.057
 2400TIP3   OH2 7163   2.222   5.985   5.760
 2400TIP3    H1 7164   2.166   6.008   5.834
 2400TIP3    H2 7165   2.306   6.026   5.781
 2401TIP3   OH2 7166   5.734   5.367   3.473
 2401TIP3    H1 7167   5.644   5.333   3.477
 2401TIP3    H2 7168   5.757   5.385   3.564
 2402TIP3   OH2 7169   6.429   4.916   0.822
 2402TIP3    H1 7170   6.496   4.980   0.800
 2402TIP3    H2 7171   6.414   4.929   0.916
 2403TIP3   OH2 7172   1.621   0.504   4.902
 2403TIP3    H1 7173   1.669   0.474   4.825
 2403TIP3    H2 7174   1.530   0.510   4.873
 2404TIP3   OH2 7175   3.391   5.159   3.672
 2404TIP3    H1 7176   3.435   5.244   3.677
 2404TIP3    H2 7177   3.421   5.112   3.750
 2405TIP3   OH2 7178   5.016   4.396   5.256
 2405TIP3    H1 7179   4.931   4.429   5.285
 2405TIP3    H2 7180   5.027   4.434   5.168
 2406TIP3   OH2 7181   2.104   0.050   0.866
 2406TIP3    H1 7182   2.114   0.139   0.832
 2406TIP3    H2 7183   2.160   0.046   0.943
 2407TIP3   OH2 7184   1.306   3.986   5.528
 2407TIP3    H1 7185   1.244   4.018   5.593
 2407TIP3    H2 7186   1.392   4.011   5.563
 2408TIP3   OH2 7187   6.177   5.918   2.992
 2408TIP3    H1 7188   6.086   5.890   3.004
 2408TIP3    H2 7189   6.174   5.976   2.916
 2409TIP3   OH2 7190   0.324   6.167   4.704
 2409TIP3    H1 7191   0.261   6.238   4.717
 2409TIP3    H2 7192   0.409   6.211   4.697
 2410TIP3   OH2 7193   4.146   5.417   0.919
 2410TIP3    H1 7194   4.214   5.416   0.986
 2410TIP3    H2 7195   4.089   5.343   0.942
 2411TIP3   OH2 7196   3.833   5.148   0.547
 2411TIP3    H1 7197   3.804   5.192   0.467
 2411TIP3    H2 7198   3.864   5.219   0.604
 2412TIP3   OH2 7199   4.782   5.470   3.687
 2412TIP3    H1 7200   4.689   5.447   3.693
 2412TIP3    H2 7201   4.827   5.387   3.677
 2413TIP3   OH2 7202   5.421   2.805   2.380
 2413TIP3    H1 7203   5.366   2.841   2.311
 2413TIP3    H2 7204   5.510   2.834   2.359
 2414TIP3   OH2 7205   4.120   1.746   4.133
 2414TIP3    H1 7206   4.142   1.822   4.080
 2414TIP3    H2 7207   4.139   1.671   4.077
 2415TIP3   OH2 7208   7.011   3.265   2.416
 2415TIP3    H1 7209   6.937   3.313   2.379
 2415TIP3    H2 7210   6.988   3.252   2.508
 2416TIP3   OH2 7211   0.726   4.504   2.418
 2416TIP3    H1 7212   0.659   4.570   2.398
 2416TIP3    H2 7213   0.770   4.538   2.496
 2417TIP3   OH2 7214   3.796   4.555   1.169
 2417TIP3    H1 7215   3.871   4.538   1.112
 2417TIP3    H2 7216   3.753   4.631   1.130
 2418TIP3   OH2 7217   5.491   6.219   3.724
 2418TIP3    H1 7218   5.500   6.307   3.760
 2418TIP3    H2 7219   5.579   6.182   3.731
 2419TIP3   OH2 7220   3.005   6.492   5.563
 2419TIP3    H1 7221   2.980   6.570   5.611
 2419TIP3    H2 7222   3.100   6.488   5.570
 2420TIP3   OH2 7223   6.827   4.843   0.098
 2420TIP3    H1 7224   6.795   4.784   0.030
 2420TIP3    H2 7225   6.779   4.817   0.176
 2421TIP3   OH2 7226   3.250   4.421   4.363
 2421TIP3    H1 7227   3.235   4.363   4.438
 2421TIP3    H2 7228   3.344   4.415   4.346
 2422TIP3   OH2 7229   2.341   0.639   3.187
 2422TIP3    H1 7230   2.312   0.649   3.277
 2422TIP3    H2 7231   2.386   0.554   3.185
 2423TIP3   OH2 7232   6.690   2.028   0.147
 2423TIP3    H1 7233   6.742   2.094   0.102
 2423TIP3    H2 7234   6.754   1.968   0.185
 2424TIP3   OH2 7235   6.474   1.145   2.783
 2424TIP3    H1 7236   6.556   1.170   2.825
 2424TIP3    H2 7237   6.490   1.159   2.689
 2425TIP3   OH2 7238   5.933   3.619   1.377
 2425TIP3    H1 7239   5.853   3.663   1.407
 2425TIP3    H2 7240   5.973   3.682   1.316
 2426TIP3   OH2 7241   2.457   0.212   2.361
 2426TIP3    H1 7242   2.435   0.299   2.327
 2426TIP3    H2 7243   2.512   0.173   2.293
 2427TIP3   OH2 7244   7.127   3.495   0.212
 2427TIP3    H1 7245   7.201   3.435   0.211
 2427TIP3    H2 7246   7.088   3.485   0.299
 2428TIP3   OH2 7247   3.010   2.048   0.111
 2428TIP3    H1 7248   3.073   2.051   0.183
 2428TIP3    H2 7249   3.012   2.136   0.074
 2429TIP3   OH2 7250   2.957   0.930   4.167
 2429TIP3    H1 7251   2.879   0.878   4.188
 2429TIP3    H2 7252   3.030   0.869   4.176
 2430TIP3   OH2 7253   3.505   5.910   4.178
 2430TIP3    H1 7254   3.581   5.854   4.162
 2430TIP3    H2 7255   3.492   5.905   4.273
 2431TIP3   OH2 7256   0.861   0.041   3.172
 2431TIP3    H1 7257   0.804   0.107   3.133
 2431TIP3    H2 7258   0.865   0.064   3.265
 2432TIP3   OH2 7259   2.374   3.485   3.971
 2432TIP3    H1 7260   2.314   3.527   4.033
 2432TIP3    H2 7261   2.449   3.543   3.968
 2433TIP3   OH2 7262   4.453   4.645   4.482
 2433TIP3    H1 7263   4.542   4.617   4.503
 2433TIP3    H2 7264   4.434   4.605   4.397
 2434TIP3   OH2 7265   0.494   6.523   2.813
 2434TIP3    H1 7266   0.417   6.504   2.867
 2434TIP3    H2 7267   0.513   6.441   2.768
 2435TIP3   OH2 7268   6.831   4.830   5.440
 2435TIP3    H1 7269   6.874   4.884   5.373
 2435TIP3    H2 7270   6.787   4.761   5.391
 2436TIP3   OH2 7271   1.305   3.018   4.434
 2436TIP3    H1 7272   1.213   3.022   4.410
 2436TIP3    H2 7273   1.352   3.037   4.353
 2437TIP3   OH2 7274   1.529   5.623   5.183
 2437TIP3    H1 7275   1.496   5.608   5.094
 2437TIP3    H2 7276   1.600   5.686   5.171
 2438TIP3   OH2 7277   1.788   5.521   1.676
 2438TIP3    H1 7278   1.853   5.454   1.654
 2438TIP3    H2 7279   1.839   5.591   1.717
 2439TIP3   OH2 7280   1.478   3.725   5.275
 2439TIP3    H1 7281   1.551   3.683   5.322
 2439TIP3    H2 7282   1.406   3.663   5.286
 2440TIP3   OH2 7283   5.490   3.550   5.926
 2440TIP3    H1 7284   5.494   3.557   5.830
 2440TIP3    H2 7285   5.455   3.463   5.942
 2441TIP3   OH2 7286   6.999   0.351   0.409
 2441TIP3    H1 7287   7.046   0.395   0.480
 2441TIP3    H2 7288   6.996   0.259   0.435
 2442TIP3   OH2 7289   2.761   0.282   0.069
 2442TIP3    H1 7290   2.849   0.253   0.045
 2442TIP3    H2 7291   2.706   0.205   0.059
 2443TIP3   OH2 7292   0.290   0.041   3.888
 2443TIP3    H1 7293   0.203   0.005   3.900
 2443TIP3    H2 7294   0.301   0.047   3.793
 2444TIP3   OH2 7295   3.865   2.847   0.454
 2444TIP3    H1 7296   3.948   2.802   0.467
 2444TIP3    H2 7297   3.838   2.875   0.541
 2445TIP3   OH2 7298   5.986   4.930   4.431
 2445TIP3    H1 7299   5.949   4.846   4.460
 2445TIP3    H2 7300   6.021   4.911   4.344
 2446TIP3   OH2 7301   0.691   6.175   4.977
 2446TIP3    H1 7302   0.599   6.146   4.980
 2446TIP3    H2 7303   0.733   6.126   5.047
 2447TIP3   OH2 7304   4.790   3.705   1.466
 2447TIP3    H1 7305   4.749   3.690   1.551
 2447TIP3    H2 7306   4.852   3.633   1.456
 2448TIP3   OH2 7307   2.493   6.596   4.486
 2448TIP3    H1 7308   2.440   6.548   4.550
 2448TIP3    H2 7309   2.582   6.591   4.520
 2449TIP3   OH2 7310   7.160   3.584   3.627
 2449TIP3    H1 7311   7.223   3.524   3.666
 2449TIP3    H2 7312   7.116   3.624   3.702
 2450TIP3   OH2 7313   0.849   1.903   0.010
 2450TIP3    H1 7314   0.907   1.964   0.057
 2450TIP3    H2 7315   0.762   1.925   0.042
 2451TIP3   OH2 7316   3.766   5.526   3.648
 2451TIP3    H1 7317   3.766   5.599   3.710
 2451TIP3    H2 7318   3.684   5.536   3.599
 2452TIP3   OH2 7319   5.840   5.344   2.076
 2452TIP3    H1 7320   5.775   5.313   2.013
 2452TIP3    H2 7321   5.806   5.317   2.161
 2453TIP3   OH2 7322   0.894   1.015   0.428
 2453TIP3    H1 7323   0.822   1.039   0.370
 2453TIP3    H2 7324   0.928   0.933   0.393
 2454TIP3   OH2 7325   5.381   4.214   5.447
 2454TIP3    H1 7326   5.414   4.149   5.385
 2454TIP3    H2 7327   5.424   4.193   5.530
 2455TIP3   OH2 7328   3.033   3.489   5.054
 2455TIP3    H1 7329   3.115   3.531   5.081
 2455TIP3    H2 7330   3.059   3.400   5.030
 2456TIP3   OH2 7331   4.955   5.901   3.025
 2456TIP3    H1 7332   5.007   5.870   3.099
 2456TIP3    H2 7333   4.939   5.993   3.045
 2457TIP3   OH2 7334   0.975   4.328   4.645
 2457TIP3    H1 7335   0.991   4.413   4.604
 2457TIP3    H2 7336   0.889   4.301   4.612
 2458TIP3   OH2 7337   1.635   5.285   0.303
 2458TIP3    H1 7338   1.575   5.360   0.307
 2458TIP3    H2 7339   1.715   5.316   0.345
 2459TIP3   OH2 7340   1.099   3.134   1.706
 2459TIP3    H1 7341   1.053   3.129   1.622
 2459TIP3    H2 7342   1.069   3.216   1.745
 2460TIP3   OH2 7343   5.075   0.096   0.758
 2460TIP3    H1 7344   5.146   0.160   0.772
 2460TIP3    H2 7345   5.118   0.011   0.764
 2461TIP3   OH2 7346   5.552   3.336   4.074
 2461TIP3    H1 7347   5.534   3.428   4.094
 2461TIP3    H2 7348   5.510   3.288   4.145
 2462TIP3   OH2 7349   0.328   0.213   0.267
 2462TIP3    H1 7350   0.363   0.289   0.314
 2462TIP3    H2 7351   0.327   0.240   0.175
 2463TIP3   OH2 7352   0.056   6.668   4.087
 2463TIP3    H1 7353   0.094   6.583   4.065
 2463TIP3    H2 7354  -0.038   6.656   4.076
 2464TIP3   OH2 7355   4.690   3.854   1.233
 2464TIP3    H1 7356   4.656   3.785   1.177
 2464TIP3    H2 7357   4.720   3.808   1.312
 2465TIP3   OH2 7358   0.824   2.636   3.882
 2465TIP3    H1 7359   0.806   2.694   3.956
 2465TIP3    H2 7360   0.918   2.617   3.889
 2466TIP3   OH2 7361   4.776   1.023   5.253
 2466TIP3    H1 7362   4.730   1.081   5.192
 2466TIP3    H2 7363   4.868   1.047   5.244
 2467TIP3   OH2 7364   6.283   5.227   0.644
 2467TIP3    H1 7365   6.342   5.175   0.590
 2467TIP3    H2 7366   6.339   5.287   0.692
 2468TIP3   OH2 7367   4.481   0.324   0.758
 2468TIP3    H1 7368   4.416   0.393   0.766
 2468TIP3    H2 7369   4.565   0.370   0.748
 2469TIP3   OH2 7370   1.221   6.781   0.479
 2469TIP3    H1 7371   1.147   6.818   0.527
 2469TIP3    H2 7372   1.268   6.728   0.544
 2470TIP3   OH2 7373   0.533   5.786   2.267
 2470TIP3    H1 7374   0.531   5.780   2.171
 2470TIP3    H2 7375   0.452   5.831   2.290
 2471TIP3   OH2 7376   7.028   4.108   3.603
 2471TIP3    H1 7377   7.083   4.049   3.656
 2471TIP3    H2 7378   6.959   4.051   3.568
 2472TIP3   OH2 7379   2.518   3.079   1.401
 2472TIP3    H1 7380   2.557   3.151   1.451
 2472TIP3    H2 7381   2.503   3.117   1.314
 2473TIP3   OH2 7382   1.821   2.274   0.451
 2473TIP3    H1 7383   1.787   2.257   0.363
 2473TIP3    H2 7384   1.896   2.216   0.459
 2474TIP3   OH2 7385   5.950   3.146   3.093
 2474TIP3    H1 7386   5.912   3.118   3.177
 2474TIP3    H2 7387   6.042   3.162   3.113
 2475TIP3   OH2 7388   4.426   2.657   2.296
 2475TIP3    H1 7389   4.416   2.750   2.273
 2475TIP3    H2 7390   4.514   2.651   2.333
 2476TIP3   OH2 7391   6.552   3.841   3.572
 2476TIP3    H1 7392   6.543   3.931   3.603
 2476TIP3    H2 7393   6.636   3.840   3.526
 2477TIP3   OH2 7394   4.034   4.731   5.545
 2477TIP3    H1 7395   3.982   4.699   5.472
 2477TIP3    H2 7396   3.977   4.794   5.589
 2478TIP3   OH2 7397   6.550   3.408   4.853
 2478TIP3    H1 7398   6.543   3.433   4.760
 2478TIP3    H2 7399   6.496   3.329   4.860
 2479TIP3   OH2 7400   1.884   2.263   1.593
 2479TIP3    H1 7401   1.885   2.323   1.518
 2479TIP3    H2 7402   1.922   2.314   1.665
 2480TIP3   OH2 7403   4.875   6.467   1.981
 2480TIP3    H1 7404   4.784   6.482   2.007
 2480TIP3    H2 7405   4.869   6.444   1.888
 2481TIP3   OH2 7406   5.575   4.116   3.806
 2481TIP3    H1 7407   5.545   4.202   3.777
 2481TIP3    H2 7408   5.654   4.100   3.754
 2482TIP3   OH2 7409   0.146   1.190   3.144
 2482TIP3    H1 7410   0.052   1.179   3.158
 2482TIP3    H2 7411   0.176   1.102   3.120
 2483TIP3   OH2 7412   3.622   5.672   5.592
 2483TIP3    H1 7413   3.717   5.662   5.605
 2483TIP3    H2 7414   3.605   5.633   5.507
 2484TIP3   OH2 7415   2.889   1.119   1.589
 2484TIP3    H1 7416   2.896   1.034   1.545
 2484TIP3    H2 7417   2.825   1.104   1.659
 2485TIP3   OH2 7418   4.006   5.776   2.379
 2485TIP3    H1 7419   3.938   5.816   2.324
 2485TIP3    H2 7420   4.074   5.843   2.383
 2486TIP3   OH2 7421   6.131   1.246   0.759
 2486TIP3    H1 7422   6.209   1.199   0.789
 2486TIP3    H2 7423   6.108   1.206   0.675
 2487TIP3   OH2 7424   1.187   2.853   4.052
 2487TIP3    H1 7425   1.160   2.789   4.118
 2487TIP3    H2 7426   1.282   2.847   4.050
 2488TIP3   OH2 7427   0.102   1.028   4.079
 2488TIP3    H1 7428   0.022   1.076   4.103
 2488TIP3    H2 7429   0.085   0.997   3.991
 2489TIP3   OH2 7430   0.066   5.887   4.919
 2489TIP3    H1 7431   0.061   5.837   4.837
 2489TIP3    H2 7432   0.038   5.975   4.895
 2490TIP3   OH2 7433   1.112   4.761   4.273
 2490TIP3    H1 7434   1.149   4.713   4.199
 2490TIP3    H2 7435   1.137   4.709   4.350
 2491TIP3   OH2 7436   3.759   5.011   0.249
 2491TIP3    H1 7437   3.851   4.988   0.260
 2491TIP3    H2 7438   3.756   5.058   0.166
 2492TIP3   OH2 7439   5.482   4.100   4.127
 2492TIP3    H1 7440   5.468   4.020   4.075
 2492TIP3    H2 7441   5.445   4.170   4.074
 2493TIP3   OH2 7442   0.125   4.507   0.408
 2493TIP3    H1 7443   0.133   4.477   0.317
 2493TIP3    H2 7444   0.038   4.547   0.413
 2494TIP3   OH2 7445   0.985   4.879   0.273
 2494TIP3    H1 7446   0.911   4.821   0.288
 2494TIP3    H2 7447   1.056   4.841   0.324
 2495TIP3   OH2 7448   2.283   1.372   1.528
 2495TIP3    H1 7449   2.189   1.353   1.524
 2495TIP3    H2 7450   2.305   1.404   1.441
 2496TIP3   OH2 7451   5.860   4.227   3.290
 2496TIP3    H1 7452   5.870   4.318   3.317
 2496TIP3    H2 7453   5.765   4.213   3.291
 2497TIP3   OH2 7454   6.602   0.405   2.952
 2497TIP3    H1 7455   6.560   0.489   2.931
 2497TIP3    H2 7456   6.606   0.359   2.868
 2498TIP3   OH2 7457   1.580   6.810   5.094
 2498TIP3    H1 7458   1.486   6.802   5.113
 2498TIP3    H2 7459   1.615   6.723   5.111
 2499TIP3   OH2 7460   7.025   1.640   1.867
 2499TIP3    H1 7461   7.057   1.586   1.940
 2499TIP3    H2 7462   6.998   1.576   1.801
 2500TIP3   OH2 7463   5.840   6.767   0.453
 2500TIP3    H1 7464   5.832   6.728   0.366
 2500TIP3    H2 7465   5.774   6.722   0.505
 2501TIP3   OH2 7466   3.842   3.125   5.091
 2501TIP3    H1 7467   3.831   3.159   5.180
 2501TIP3    H2 7468   3.933   3.143   5.069
 2502TIP3   OH2 7469   6.399   3.365   2.401
 2502TIP3    H1 7470   6.472   3.313   2.434
 2502TIP3    H2 7471   6.355   3.309   2.338
 2503TIP3   OH2 7472   6.076  -0.003   4.662
 2503TIP3    H1 7473   6.013   0.064   4.688
 2503TIP3    H2 7474   6.159   0.043   4.657
 2504TIP3   OH2 7475   1.958   2.661   5.413
 2504TIP3    H1 7476   1.872   2.623   5.433
 2504TIP3    H2 7477   1.969   2.645   5.319
 2505TIP3   OH2 7478   0.323   4.638   2.626
 2505TIP3    H1 7479   0.286   4.622   2.713
 2505TIP3    H2 7480   0.410   4.675   2.644
 2506TIP3   OH2 7481   7.073   5.343   1.350
 2506TIP3    H1 7482   7.165   5.320   1.334
 2506TIP3    H2 7483   7.077   5.419   1.409
 2507TIP3   OH2 7484   6.203   3.190   2.112
 2507TIP3    H1 7485   6.153   3.126   2.163
 2507TIP3    H2 7486   6.165   3.274   2.136
 2508TIP3   OH2 7487   4.435   0.603   0.302
 2508TIP3    H1 7488   4.355   0.565   0.267
 2508TIP3    H2 7489   4.425   0.595   0.397
 2509TIP3   OH2 7490   6.955   1.853   4.575
 2509TIP3    H1 7491   6.949   1.884   4.665
 2509TIP3    H2 7492   7.048   1.860   4.553
 2510TIP3   OH2 7493   6.032   0.803   4.928
 2510TIP3    H1 7494   6.036   0.894   4.901
 2510TIP3    H2 7495   5.963   0.800   4.994
 2511TIP3   OH2 7496   2.307   5.874   0.485
 2511TIP3    H1 7497   2.372   5.804   0.498
 2511TIP3    H2 7498   2.335   5.944   0.544
 2512TIP3   OH2 7499   1.784   1.583   4.490
 2512TIP3    H1 7500   1.731   1.658   4.516
 2512TIP3    H2 7501   1.748   1.555   4.406
 2513TIP3   OH2 7502   1.198   4.781   0.414
 2513TIP3    H1 7503   1.272   4.840   0.398
 2513TIP3    H2 7504   1.238   4.694   0.417
 2514TIP3   OH2 7505   3.946   2.510   5.015
 2514TIP3    H1 7506   3.890   2.587   5.023
 2514TIP3    H2 7507   4.030   2.545   4.985
 2515TIP3   OH2 7508   6.239   6.306   1.376
 2515TIP3    H1 7509   6.184   6.274   1.448
 2515TIP3    H2 7510   6.327   6.275   1.397
 2516TIP3   OH2 7511   6.774   6.667   4.761
 2516TIP3    H1 7512   6.753   6.720   4.685
 2516TIP3    H2 7513   6.862   6.695   4.787
 2517TIP3   OH2 7514   3.324   3.462   0.605
 2517TIP3    H1 7515   3.334   3.396   0.536
 2517TIP3    H2 7516   3.367   3.540   0.570
 2518TIP3   OH2 7517   3.465   0.982   0.457
 2518TIP3    H1 7518   3.484   1.071   0.485
 2518TIP3    H2 7519   3.501   0.927   0.527
 2519TIP3   OH2 7520   2.984   6.767   4.805
 2519TIP3    H1 7521   2.957   6.740   4.892
 2519TIP3    H2 7522   3.026   6.852   4.818
 2520TIP3   OH2 7523   2.260   5.095   4.789
 2520TIP3    H1 7524   2.250   5.070   4.881
 2520TIP3    H2 7525   2.182   5.146   4.769
 2521TIP3   OH2 7526   2.867   5.786   2.308
 2521TIP3    H1 7527   2.837   5.708   2.262
 2521TIP3    H2 7528   2.889   5.848   2.239
 2522TIP3   OH2 7529   1.284   0.664   0.640
 2522TIP3    H1 7530   1.193   0.634   0.636
 2522TIP3    H2 7531   1.280   0.749   0.684
 2523TIP3   OH2 7532   6.740   1.276   4.497
 2523TIP3    H1 7533   6.646   1.291   4.491
 2523TIP3    H2 7534   6.765   1.309   4.583
 2524TIP3   OH2 7535   5.219   4.933   3.361
 2524TIP3    H1 7536   5.180   4.890   3.285
 2524TIP3    H2 7537   5.163   4.909   3.434
 2525TIP3   OH2 7538   2.601   4.877   0.886
 2525TIP3    H1 7539   2.562   4.903   0.969
 2525TIP3    H2 7540   2.653   4.799   0.907
 2526TIP3   OH2 7541   1.551   2.708   2.469
 2526TIP3    H1 7542   1.485   2.731   2.535
 2526TIP3    H2 7543   1.539   2.614   2.456
 2527TIP3   OH2 7544   1.611   2.000   5.141
 2527TIP3    H1 7545   1.690   1.950   5.122
 2527TIP3    H2 7546   1.613   2.014   5.236
 2528TIP3   OH2 7547   3.485   1.723   4.738
 2528TIP3    H1 7548   3.440   1.779   4.801
 2528TIP3    H2 7549   3.578   1.730   4.762
 2529TIP3   OH2 7550   5.676   0.083   2.628
 2529TIP3    H1 7551   5.661   0.047   2.540
 2529TIP3    H2 7552   5.750   0.142   2.617
 2530TIP3   OH2 7553   0.778   2.504   4.569
 2530TIP3    H1 7554   0.727   2.449   4.628
 2530TIP3    H2 7555   0.764   2.465   4.482
 2531TIP3   OH2 7556   4.075   0.862   1.823
 2531TIP3    H1 7557   4.053   0.944   1.868
 2531TIP3    H2 7558   4.102   0.803   1.893
 2532TIP3   OH2 7559   3.119   5.683   5.007
 2532TIP3    H1 7560   3.188   5.704   4.945
 2532TIP3    H2 7561   3.152   5.713   5.091
 2533TIP3   OH2 7562   3.185   3.961   0.089
 2533TIP3    H1 7563   3.183   4.037   0.031
 2533TIP3    H2 7564   3.225   3.992   0.170
 2534TIP3   OH2 7565   0.475   0.209   4.045
 2534TIP3    H1 7566   0.440   0.144   3.984
 2534TIP3    H2 7567   0.422   0.287   4.031
 2535TIP3   OH2 7568   2.557   5.099   2.757
 2535TIP3    H1 7569   2.647   5.074   2.781
 2535TIP3    H2 7570   2.549   5.190   2.785
 2536TIP3   OH2 7571   6.813   3.446   2.615
 2536TIP3    H1 7572   6.857   3.375   2.662
 2536TIP3    H2 7573   6.761   3.491   2.682
 2537TIP3   OH2 7574   6.246   4.298   5.745
 2537TIP3    H1 7575   6.273   4.255   5.827
 2537TIP3    H2 7576   6.323   4.289   5.688
 2538TIP3   OH2 7577   4.919   1.988   1.002
 2538TIP3    H1 7578   4.922   1.900   0.965
 2538TIP3    H2 7579   5.006   2.024   0.987
 2539TIP3   OH2 7580   3.299   3.729   2.925
 2539TIP3    H1 7581   3.216   3.684   2.940
 2539TIP3    H2 7582   3.278   3.822   2.938
 2540TIP3   OH2 7583   5.282   2.641   2.002
 2540TIP3    H1 7584   5.253   2.563   1.954
 2540TIP3    H2 7585   5.352   2.610   2.059
 2541TIP3   OH2 7586   2.394   2.250   3.799
 2541TIP3    H1 7587   2.304   2.239   3.831
 2541TIP3    H2 7588   2.408   2.344   3.799
 2542TIP3   OH2 7589   1.439   2.581   4.595
 2542TIP3    H1 7590   1.534   2.585   4.599
 2542TIP3    H2 7591   1.419   2.489   4.580
 2543TIP3   OH2 7592   2.531   6.362   5.651
 2543TIP3    H1 7593   2.511   6.435   5.593
 2543TIP3    H2 7594   2.534   6.400   5.739
 2544TIP3   OH2 7595   5.640   1.016   2.240
 2544TIP3    H1 7596   5.675   1.075   2.307
 2544TIP3    H2 7597   5.691   1.037   2.161
 2545TIP3   OH2 7598   0.897   3.370   2.786
 2545TIP3    H1 7599   0.965   3.366   2.853
 2545TIP3    H2 7600   0.907   3.289   2.736
 2546TIP3   OH2 7601   3.796   0.437   5.614
 2546TIP3    H1 7602   3.740   0.369   5.578
 2546TIP3    H2 7603   3.875   0.391   5.641
 2547TIP3   OH2 7604   1.277   6.222   0.953
 2547TIP3    H1 7605   1.264   6.283   0.881
 2547TIP3    H2 7606   1.264   6.136   0.914
 2548TIP3   OH2 7607   1.065   6.008   4.828
 2548TIP3    H1 7608   1.079   6.002   4.923
 2548TIP3    H2 7609   1.042   5.919   4.801
 2549TIP3   OH2 7610   0.155   3.335   0.184
 2549TIP3    H1 7611   0.144   3.282   0.263
 2549TIP3    H2 7612   0.242   3.314   0.151
 2550TIP3   OH2 7613   0.455   4.309   2.541
 2550TIP3    H1 7614   0.484   4.349   2.624
 2550TIP3    H2 7615   0.404   4.233   2.568
 2551TIP3   OH2 7616   6.250   6.754   2.737
 2551TIP3    H1 7617   6.253   6.661   2.757
 2551TIP3    H2 7618   6.234   6.758   2.643
 2552TIP3   OH2 7619   1.379   1.220   4.615
 2552TIP3    H1 7620   1.399   1.309   4.645
 2552TIP3    H2 7621   1.459   1.192   4.570
 2553TIP3   OH2 7622   5.962   3.455   3.303
 2553TIP3    H1 7623   5.970   3.373   3.352
 2553TIP3    H2 7624   5.892   3.503   3.347
 2554TIP3   OH2 7625   2.610   6.755   1.640
 2554TIP3    H1 7626   2.696   6.792   1.659
 2554TIP3    H2 7627   2.565   6.823   1.589
 2555TIP3   OH2 7628   0.887   3.816   1.397
 2555TIP3    H1 7629   0.965   3.806   1.451
 2555TIP3    H2 7630   0.908   3.769   1.316
 2556TIP3   OH2 7631   3.353   5.815   0.068
 2556TIP3    H1 7632   3.373   5.891   0.124
 2556TIP3    H2 7633   3.365   5.739   0.126
 2557TIP3   OH2 7634   4.825   6.069   3.844
 2557TIP3    H1 7635   4.869   5.987   3.868
 2557TIP3    H2 7636   4.751   6.041   3.790
 2558TIP3   OH2 7637   1.753   3.855   3.633
 2558TIP3    H1 7638   1.718   3.809   3.557
 2558TIP3    H2 7639   1.715   3.809   3.708
 2559TIP3   OH2 7640   6.941   6.739   1.342
 2559TIP3    H1 7641   6.976   6.826   1.325
 2559TIP3    H2 7642   6.979   6.714   1.426
 2560TIP3   OH2 7643   0.171   5.054   1.383
 2560TIP3    H1 7644   0.264   5.058   1.408
 2560TIP3    H2 7645   0.143   5.146   1.381
 2561TIP3   OH2 7646   1.336   1.707   5.877
 2561TIP3    H1 7647   1.363   1.663   5.796
 2561TIP3    H2 7648   1.343   1.800   5.857
 2562TIP3   OH2 7649   6.639   3.112   3.811
 2562TIP3    H1 7650   6.553   3.151   3.791
 2562TIP3    H2 7651   6.618   3.026   3.847
 2563TIP3   OH2 7652   1.040   4.508   2.860
 2563TIP3    H1 7653   1.058   4.601   2.873
 2563TIP3    H2 7654   1.075   4.489   2.773
 2564TIP3   OH2 7655   4.147   5.001   3.113
 2564TIP3    H1 7656   4.103   4.942   3.175
 2564TIP3    H2 7657   4.076   5.050   3.072
 2565TIP3   OH2 7658   3.685   5.348   0.402
 2565TIP3    H1 7659   3.621   5.405   0.357
 2565TIP3    H2 7660   3.768   5.367   0.357
 2566TIP3   OH2 7661   1.817   1.691   0.887
 2566TIP3    H1 7662   1.868   1.772   0.889
 2566TIP3    H2 7663   1.799   1.671   0.979
 2567TIP3   OH2 7664   4.423   5.932   5.515
 2567TIP3    H1 7665   4.342   5.971   5.548
 2567TIP3    H2 7666   4.465   5.897   5.593
 2568TIP3   OH2 7667   3.251   0.501   5.102
 2568TIP3    H1 7668   3.292   0.447   5.035
 2568TIP3    H2 7669   3.204   0.568   5.053
 2569TIP3   OH2 7670   5.882   1.192   0.513
 2569TIP3    H1 7671   5.970   1.158   0.528
 2569TIP3    H2 7672   5.826   1.115   0.516
 2570TIP3   OH2 7673   1.894   4.287   4.258
 2570TIP3    H1 7674   1.938   4.251   4.181
 2570TIP3    H2 7675   1.925   4.233   4.331
 2571TIP3   OH2 7676   3.142   3.327   4.802
 2571TIP3    H1 7677   3.131   3.317   4.708
 2571TIP3    H2 7678   3.236   3.344   4.814
 2572TIP3   OH2 7679   1.027   2.076   0.614
 2572TIP3    H1 7680   1.109   2.029   0.599
 2572TIP3    H2 7681   0.959   2.010   0.600
 2573TIP3   OH2 7682   2.144   6.166   5.547
 2573TIP3    H1 7683   2.160   6.097   5.611
 2573TIP3    H2 7684   2.157   6.247   5.595
 2574TIP3   OH2 7685   3.549   5.924   0.520
 2574TIP3    H1 7686   3.575   5.943   0.610
 2574TIP3    H2 7687   3.576   5.833   0.507
 2575TIP3   OH2 7688   5.334   2.330   5.452
 2575TIP3    H1 7689   5.250   2.301   5.486
 2575TIP3    H2 7690   5.315   2.416   5.413
 2576TIP3   OH2 7691   4.484   5.718   1.025
 2576TIP3    H1 7692   4.393   5.732   1.051
 2576TIP3    H2 7693   4.524   5.675   1.099
 2577TIP3   OH2 7694   4.609   0.698   3.568
 2577TIP3    H1 7695   4.692   0.703   3.519
 2577TIP3    H2 7696   4.551   0.646   3.513
 2578TIP3   OH2 7697   6.049   3.482   0.262
 2578TIP3    H1 7698   5.954   3.492   0.268
 2578TIP3    H2 7699   6.083   3.570   0.273
 2579TIP3   OH2 7700   2.190   3.321   4.866
 2579TIP3    H1 7701   2.263   3.349   4.812
 2579TIP3    H2 7702   2.228   3.309   4.953
 2580TIP3   OH2 7703   0.566   6.867   2.443
 2580TIP3    H1 7704   0.516   6.816   2.379
 2580TIP3    H2 7705   0.571   6.811   2.520
 2581TIP3   OH2 7706   1.057   2.037   1.527
 2581TIP3    H1 7707   1.144   2.075   1.531
 2581TIP3    H2 7708   1.017   2.076   1.449
 2582TIP3   OH2 7709   6.477   6.218   5.017
 2582TIP3    H1 7710   6.395   6.242   4.973
 2582TIP3    H2 7711   6.502   6.297   5.065
 2583TIP3   OH2 7712   2.566   4.973   0.627
 2583TIP3    H1 7713   2.577   4.960   0.722
 2583TIP3    H2 7714   2.645   5.021   0.601
 2584TIP3   OH2 7715   6.410   1.045   3.573
 2584TIP3    H1 7716   6.370   1.072   3.491
 2584TIP3    H2 7717   6.353   1.080   3.641
 2585TIP3   OH2 7718   6.696   4.449   3.201
 2585TIP3    H1 7719   6.608   4.462   3.166
 2585TIP3    H2 7720   6.683   4.403   3.284
 2586TIP3   OH2 7721   2.896   6.443   4.021
 2586TIP3    H1 7722   2.819   6.479   4.065
 2586TIP3    H2 7723   2.929   6.514   3.967
 2587TIP3   OH2 7724   6.428   0.881   0.057
 2587TIP3    H1 7725   6.479   0.811   0.016
 2587TIP3    H2 7726   6.342   0.841   0.073
 2588TIP3   OH2 7727   4.806   5.297   5.490
 2588TIP3    H1 7728   4.805   5.357   5.415
 2588TIP3    H2 7729   4.876   5.330   5.546
 2589TIP3   OH2 7730   1.695   4.546   2.480
 2589TIP3    H1 7731   1.746   4.595   2.415
 2589TIP3    H2 7732   1.716   4.586   2.563
 2590TIP3   OH2 7733   6.706   0.534   5.504
 2590TIP3    H1 7734   6.672   0.485   5.429
 2590TIP3    H2 7735   6.639   0.524   5.571
 2591TIP3   OH2 7736   3.131   2.331   3.496
 2591TIP3    H1 7737   3.161   2.420   3.514
 2591TIP3    H2 7738   3.043   2.327   3.532
 2592TIP3   OH2 7739   0.432   5.705   3.489
 2592TIP3    H1 7740   0.448   5.612   3.508
 2592TIP3    H2 7741   0.343   5.720   3.521
 2593TIP3   OH2 7742   6.502   0.950   1.774
 2593TIP3    H1 7743   6.541   1.037   1.776
 2593TIP3    H2 7744   6.410   0.965   1.754
 2594TIP3   OH2 7745   4.702   4.997   0.886
 2594TIP3    H1 7746   4.753   4.919   0.909
 2594TIP3    H2 7747   4.665   4.976   0.800
 2595TIP3   OH2 7748   4.451   4.174   5.419
 2595TIP3    H1 7749   4.419   4.114   5.486
 2595TIP3    H2 7750   4.429   4.261   5.453
 2596TIP3   OH2 7751   0.542   0.835   0.844
 2596TIP3    H1 7752   0.637   0.850   0.846
 2596TIP3    H2 7753   0.527   0.782   0.765
 2597TIP3   OH2 7754   7.016   1.312   4.502
 2597TIP3    H1 7755   6.928   1.315   4.463
 2597TIP3    H2 7756   7.018   1.228   4.548
 2598TIP3   OH2 7757   3.882   3.524   4.118
 2598TIP3    H1 7758   3.959   3.470   4.138
 2598TIP3    H2 7759   3.809   3.461   4.114
 2599TIP3   OH2 7760   0.981   3.128   1.180
 2599TIP3    H1 7761   1.049   3.080   1.227
 2599TIP3    H2 7762   0.990   3.100   1.089
 2600TIP3   OH2 7763   2.919   0.724   1.687
 2600TIP3    H1 7764   3.007   0.687   1.696
 2600TIP3    H2 7765   2.906   0.775   1.767
 2601TIP3   OH2 7766   3.774   1.576   5.754
 2601TIP3    H1 7767   3.865   1.567   5.726
 2601TIP3    H2 7768   3.775   1.650   5.816
 2602TIP3   OH2 7769   0.877   2.990   2.361
 2602TIP3    H1 7770   0.847   3.076   2.390
 2602TIP3    H2 7771   0.906   3.003   2.271
 2603TIP3   OH2 7772   3.409   0.276   0.348
 2603TIP3    H1 7773   3.322   0.286   0.308
 2603TIP3    H2 7774   3.451   0.207   0.297
 2604TIP3   OH2 7775   5.836   5.554   1.779
 2604TIP3    H1 7776   5.808   5.496   1.850
 2604TIP3    H2 7777   5.931   5.542   1.773
 2605TIP3   OH2 7778   5.710   0.649   5.656
 2605TIP3    H1 7779   5.653   0.607   5.591
 2605TIP3    H2 7780   5.750   0.576   5.703
 2606TIP3   OH2 7781   4.231   5.316   2.860
 2606TIP3    H1 7782   4.295   5.274   2.917
 2606TIP3    H2 7783   4.204   5.248   2.799
 2607TIP3   OH2 7784   4.191   5.215   2.218
 2607TIP3    H1 7785   4.142   5.266   2.154
 2607TIP3    H2 7786   4.283   5.230   2.196
 2608TIP3   OH2 7787   2.915   3.101   0.088
 2608TIP3    H1 7788   2.971   3.058   0.153
 2608TIP3    H2 7789   2.974   3.158   0.040
 2609TIP3   OH2 7790   6.271   4.489   2.293
 2609TIP3    H1 7791   6.363   4.505   2.271
 2609TIP3    H2 7792   6.267   4.500   2.388
 2610TIP3   OH2 7793   2.605   1.893   4.208
 2610TIP3    H1 7794   2.654   1.960   4.162
 2610TIP3    H2 7795   2.562   1.842   4.139
 2611TIP3   OH2 7796   4.223   0.775   5.554
 2611TIP3    H1 7797   4.148   0.739   5.506
 2611TIP3    H2 7798   4.185   0.809   5.635
 2612TIP3   OH2 7799   6.159   3.640   3.566
 2612TIP3    H1 7800   6.207   3.688   3.633
 2612TIP3    H2 7801   6.138   3.706   3.499
 2613TIP3   OH2 7802   3.306   6.601   0.668
 2613TIP3    H1 7803   3.401   6.591   0.663
 2613TIP3    H2 7804   3.273   6.556   0.590
 2614TIP3   OH2 7805   0.801   1.251   1.916
 2614TIP3    H1 7806   0.818   1.169   1.869
 2614TIP3    H2 7807   0.713   1.240   1.951
 2615TIP3   OH2 7808   2.210   1.118   5.686
 2615TIP3    H1 7809   2.256   1.199   5.706
 2615TIP3    H2 7810   2.169   1.134   5.601
 2616TIP3   OH2 7811   6.005   0.074   3.366
 2616TIP3    H1 7812   5.918   0.102   3.339
 2616TIP3    H2 7813   6.064   0.114   3.302
 2617TIP3   OH2 7814   1.368   6.592   2.126
 2617TIP3    H1 7815   1.358   6.557   2.214
 2617TIP3    H2 7816   1.278   6.615   2.100
 2618TIP3   OH2 7817   3.953   3.310   2.793
 2618TIP3    H1 7818   3.860   3.332   2.781
 2618TIP3    H2 7819   3.997   3.351   2.719
 2619TIP3   OH2 7820   4.522   0.432   1.553
 2619TIP3    H1 7821   4.475   0.354   1.523
 2619TIP3    H2 7822   4.522   0.491   1.477
 2620TIP3   OH2 7823   6.732   0.231   2.137
 2620TIP3    H1 7824   6.824   0.244   2.160
 2620TIP3    H2 7825   6.707   0.313   2.094
 2621TIP3   OH2 7826   5.821   5.189   0.069
 2621TIP3    H1 7827   5.883   5.196   0.142
 2621TIP3    H2 7828   5.855   5.118   0.015
 2622TIP3   OH2 7829   6.654   4.855   2.349
 2622TIP3    H1 7830   6.617   4.834   2.435
 2622TIP3    H2 7831   6.634   4.947   2.337
 2623TIP3   OH2 7832   0.544   2.292   2.043
 2623TIP3    H1 7833   0.607   2.354   2.005
 2623TIP3    H2 7834   0.589   2.257   2.120
 2624TIP3   OH2 7835   1.208   0.323   5.228
 2624TIP3    H1 7836   1.160   0.368   5.297
 2624TIP3    H2 7837   1.172   0.358   5.147
 2625TIP3   OH2 7838   1.179   0.369   5.799
 2625TIP3    H1 7839   1.275   0.373   5.803
 2625TIP3    H2 7840   1.154   0.451   5.757
 2626TIP3   OH2 7841   1.953   3.012   3.455
 2626TIP3    H1 7842   1.938   3.085   3.395
 2626TIP3    H2 7843   2.042   2.982   3.436
 2627TIP3   OH2 7844   1.628   5.552   2.110
 2627TIP3    H1 7845   1.688   5.625   2.127
 2627TIP3    H2 7846   1.552   5.593   2.068
 2628TIP3   OH2 7847   2.033   1.082   1.959
 2628TIP3    H1 7848   2.100   1.142   1.991
 2628TIP3    H2 7849   1.972   1.072   2.033
 2629TIP3   OH2 7850   1.270   3.545   5.946
 2629TIP3    H1 7851   1.322   3.604   5.891
 2629TIP3    H2 7852   1.300   3.457   5.922
 2630TIP3   OH2 7853   1.796   0.259   1.381
 2630TIP3    H1 7854   1.752   0.289   1.460
 2630TIP3    H2 7855   1.747   0.298   1.309
 2631TIP3   OH2 7856   6.984   1.665   5.554
 2631TIP3    H1 7857   6.962   1.615   5.475
 2631TIP3    H2 7858   7.064   1.712   5.532
 2632TIP3   OH2 7859   6.488   3.697   2.974
 2632TIP3    H1 7860   6.471   3.786   3.004
 2632TIP3    H2 7861   6.455   3.641   3.045
 2633TIP3   OH2 7862   0.673   1.028   5.674
 2633TIP3    H1 7863   0.759   0.995   5.647
 2633TIP3    H2 7864   0.646   1.085   5.602
 2634TIP3   OH2 7865   1.598   3.217   0.119
 2634TIP3    H1 7866   1.548   3.137   0.133
 2634TIP3    H2 7867   1.688   3.193   0.142
 2635TIP3   OH2 7868   5.698   6.679   4.804
 2635TIP3    H1 7869   5.760   6.657   4.874
 2635TIP3    H2 7870   5.638   6.604   4.801
 2636TIP3   OH2 7871   3.006   6.540   4.626
 2636TIP3    H1 7872   2.990   6.616   4.682
 2636TIP3    H2 7873   3.101   6.526   4.632
 2637TIP3   OH2 7874   2.967   0.985   5.915
 2637TIP3    H1 7875   2.916   1.032   5.849
 2637TIP3    H2 7876   2.902   0.937   5.966
 2638TIP3   OH2 7877   6.927   1.867   5.904
 2638TIP3    H1 7878   6.866   1.898   5.837
 2638TIP3    H2 7879   6.874   1.808   5.958
 2639TIP3   OH2 7880   4.038   5.555   5.136
 2639TIP3    H1 7881   3.945   5.546   5.113
 2639TIP3    H2 7882   4.052   5.488   5.203
 2640TIP3   OH2 7883   5.773   0.479   3.685
 2640TIP3    H1 7884   5.790   0.458   3.777
 2640TIP3    H2 7885   5.860   0.490   3.646
 2641TIP3   OH2 7886   1.982   2.872   4.074
 2641TIP3    H1 7887   2.067   2.861   4.033
 2641TIP3    H2 7888   1.944   2.949   4.030
 2642TIP3   OH2 7889   5.014   3.458   5.709
 2642TIP3    H1 7890   4.950   3.526   5.687
 2642TIP3    H2 7891   5.083   3.469   5.644
 2643TIP3   OH2 7892   6.485   1.626   3.981
 2643TIP3    H1 7893   6.580   1.617   3.990
 2643TIP3    H2 7894   6.449   1.550   4.026
 2644TIP3   OH2 7895   6.745   6.375   1.507
 2644TIP3    H1 7896   6.713   6.461   1.534
 2644TIP3    H2 7897   6.840   6.381   1.513
 2645TIP3   OH2 7898   2.917   0.704   1.229
 2645TIP3    H1 7899   2.904   0.611   1.208
 2645TIP3    H2 7900   3.006   0.723   1.200
 2646TIP3   OH2 7901   5.274   2.603   0.629
 2646TIP3    H1 7902   5.242   2.693   0.618
 2646TIP3    H2 7903   5.295   2.575   0.540
 2647TIP3   OH2 7904   6.043   4.286   4.074
 2647TIP3    H1 7905   5.981   4.331   4.016
 2647TIP3    H2 7906   6.013   4.308   4.162
 2648TIP3   OH2 7907   5.676   2.090   4.703
 2648TIP3    H1 7908   5.717   2.174   4.685
 2648TIP3    H2 7909   5.601   2.086   4.644
 2649TIP3   OH2 7910   5.243   5.794   0.749
 2649TIP3    H1 7911   5.214   5.886   0.750
 2649TIP3    H2 7912   5.338   5.799   0.752
 2650TIP3   OH2 7913   5.402   3.684   0.459
 2650TIP3    H1 7914   5.313   3.716   0.470
 2650TIP3    H2 7915   5.452   3.761   0.430
 2651TIP3   OH2 7916   4.591   6.565   3.736
 2651TIP3    H1 7917   4.580   6.472   3.755
 2651TIP3    H2 7918   4.519   6.608   3.782
 2652TIP3   OH2 7919   4.738   4.575   2.135
 2652TIP3    H1 7920   4.670   4.525   2.090
 2652TIP3    H2 7921   4.819   4.529   2.114
 2653TIP3   OH2 7922   2.699   0.820   0.522
 2653TIP3    H1 7923   2.794   0.804   0.518
 2653TIP3    H2 7924   2.663   0.744   0.566
 2654TIP3   OH2 7925   6.031   5.418   2.972
 2654TIP3    H1 7926   6.115   5.458   2.992
 2654TIP3    H2 7927   5.998   5.387   3.056
 2655TIP3   OH2 7928   7.173   3.065   3.694
 2655TIP3    H1 7929   7.189   2.975   3.667
 2655TIP3    H2 7930   7.078   3.075   3.690
 2656TIP3   OH2 7931   5.978   6.112   0.980
 2656TIP3    H1 7932   5.890   6.119   1.016
 2656TIP3    H2 7933   6.036   6.121   1.055
 2657TIP3   OH2 7934   5.809   5.508   3.243
 2657TIP3    H1 7935   5.725   5.529   3.203
 2657TIP3    H2 7936   5.790   5.436   3.303
 2658TIP3   OH2 7937   4.843   3.499   1.959
 2658TIP3    H1 7938   4.855   3.432   1.891
 2658TIP3    H2 7939   4.783   3.459   2.021
 2659TIP3   OH2 7940   2.258   1.837   4.499
 2659TIP3    H1 7941   2.179   1.881   4.531
 2659TIP3    H2 7942   2.226   1.754   4.462
 2660TIP3   OH2 7943   4.381   1.112   4.097
 2660TIP3    H1 7944   4.437   1.035   4.104
 2660TIP3    H2 7945   4.296   1.083   4.128
 2661TIP3   OH2 7946   6.938   2.821   5.541
 2661TIP3    H1 7947   7.015   2.837   5.595
 2661TIP3    H2 7948   6.868   2.871   5.583
 2662TIP3   OH2 7949   6.020   1.912   2.294
 2662TIP3    H1 7950   5.954   1.844   2.305
 2662TIP3    H2 7951   6.006   1.944   2.205
 2663TIP3   OH2 7952   7.135   4.700   4.012
 2663TIP3    H1 7953   7.154   4.735   4.099
 2663TIP3    H2 7954   7.069   4.759   3.976
 2664TIP3   OH2 7955   1.110   0.764   4.460
 2664TIP3    H1 7956   1.022   0.789   4.433
 2664TIP3    H2 7957   1.113   0.669   4.448
 2665TIP3   OH2 7958   7.100   5.027   4.237
 2665TIP3    H1 7959   7.085   5.113   4.276
 2665TIP3    H2 7960   7.016   5.005   4.196
 2666TIP3   OH2 7961   4.875   0.173   5.597
 2666TIP3    H1 7962   4.913   0.124   5.670
 2666TIP3    H2 7963   4.780   0.165   5.610
 2667TIP3   OH2 7964   0.842   6.420   4.586
 2667TIP3    H1 7965   0.933   6.431   4.560
 2667TIP3    H2 7966   0.841   6.343   4.642
 2668TIP3   OH2 7967   6.666   4.508   0.075
 2668TIP3    H1 7968   6.572   4.523   0.084
 2668TIP3    H2 7969   6.694   4.569   0.007
 2669TIP3   OH2 7970   4.970   2.473   4.742
 2669TIP3    H1 7971   4.904   2.534   4.708
 2669TIP3    H2 7972   5.012   2.438   4.664
 2670TIP3   OH2 7973   0.740   1.629   3.130
 2670TIP3    H1 7974   0.834   1.644   3.139
 2670TIP3    H2 7975   0.729   1.535   3.143
 2671TIP3   OH2 7976   5.042   1.074   4.604
 2671TIP3    H1 7977   5.017   1.098   4.693
 2671TIP3    H2 7978   5.022   0.981   4.598
 2672TIP3   OH2 7979   1.256   0.215   0.876
 2672TIP3    H1 7980   1.224   0.290   0.827
 2672TIP3    H2 7981   1.318   0.173   0.817
 2673TIP3   OH2 7982   3.173   0.828   3.409
 2673TIP3    H1 7983   3.239   0.892   3.382
 2673TIP3    H2 7984   3.205   0.795   3.493
 2674TIP3   OH2 7985   3.970   0.855   4.058
 2674TIP3    H1 7986   3.937   0.790   4.120
 2674TIP3    H2 7987   3.997   0.803   3.982
 2675TIP3   OH2 7988   5.545   4.386   3.737
 2675TIP3    H1 7989   5.640   4.399   3.746
 2675TIP3    H2 7990   5.516   4.460   3.684
 2676TIP3   OH2 7991   1.591   1.259   1.947
 2676TIP3    H1 7992   1.579   1.261   2.042
 2676TIP3    H2 7993   1.594   1.166   1.925
 2677TIP3   OH2 7994   5.155   5.510   0.001
 2677TIP3    H1 7995   5.173   5.565   0.078
 2677TIP3    H2 7996   5.155   5.421   0.036
 2678TIP3   OH2 7997   3.419   0.986   3.689
 2678TIP3    H1 7998   3.441   1.057   3.749
 2678TIP3    H2 7999   3.501   0.967   3.643
 2679TIP3   OH2 8000   3.824   6.645   2.877
 2679TIP3    H1 8001   3.858   6.558   2.897
 2679TIP3    H2 8002   3.750   6.629   2.819
 2680TIP3   OH2 8003   5.620   6.539   4.457
 2680TIP3    H1 8004   5.600   6.627   4.424
 2680TIP3    H2 8005   5.716   6.535   4.456
 2681TIP3   OH2 8006   4.416   5.926   1.717
 2681TIP3    H1 8007   4.429   5.979   1.639
 2681TIP3    H2 8008   4.414   5.836   1.684
 2682TIP3   OH2 8009   2.681   0.084   2.209
 2682TIP3    H1 8010   2.745   0.061   2.276
 2682TIP3    H2 8011   2.647   0.000   2.178
 2683TIP3   OH2 8012   0.928   0.720   1.494
 2683TIP3    H1 8013   0.972   0.805   1.496
 2683TIP3    H2 8014   0.836   0.741   1.484
 2684TIP3   OH2 8015   5.240   4.452   3.767
 2684TIP3    H1 8016   5.305   4.507   3.810
 2684TIP3    H2 8017   5.286   4.372   3.744
 2685TIP3   OH2 8018   4.008   6.499   5.436
 2685TIP3    H1 8019   3.984   6.457   5.518
 2685TIP3    H2 8020   4.100   6.473   5.422
 2686TIP3   OH2 8021   7.209   5.721   5.307
 2686TIP3    H1 8022   7.209   5.647   5.247
 2686TIP3    H2 8023   7.127   5.713   5.356
 2687TIP3   OH2 8024   5.867   0.978   1.160
 2687TIP3    H1 8025   5.876   1.021   1.075
 2687TIP3    H2 8026   5.881   1.048   1.224
 2688TIP3   OH2 8027   6.518   3.421   3.405
 2688TIP3    H1 8028   6.528   3.473   3.484
 2688TIP3    H2 8029   6.517   3.330   3.436
 2689TIP3   OH2 8030   3.807   0.936   3.819
 2689TIP3    H1 8031   3.784   0.843   3.815
 2689TIP3    H2 8032   3.756   0.976   3.748
 2690TIP3   OH2 8033   6.617   4.313   1.616
 2690TIP3    H1 8034   6.702   4.291   1.577
 2690TIP3    H2 8035   6.632   4.307   1.710
 2691TIP3   OH2 8036   2.882   0.631   3.910
 2691TIP3    H1 8037   2.835   0.563   3.863
 2691TIP3    H2 8038   2.821   0.705   3.914
 2692TIP3   OH2 8039   2.153   5.326   1.474
 2692TIP3    H1 8040   2.145   5.373   1.557
 2692TIP3    H2 8041   2.233   5.274   1.484
 2693TIP3   OH2 8042   3.111   1.116   4.772
 2693TIP3    H1 8043   3.138   1.199   4.811
 2693TIP3    H2 8044   3.187   1.087   4.723
 2694TIP3   OH2 8045   4.139   4.541   3.176
 2694TIP3    H1 8046   4.208   4.570   3.117
 2694TIP3    H2 8047   4.134   4.609   3.243
 2695TIP3   OH2 8048   6.730   6.664   3.488
 2695TIP3    H1 8049   6.661   6.617   3.443
 2695TIP3    H2 8050   6.707   6.757   3.478
 2696TIP3   OH2 8051   3.607   6.266   1.004
 2696TIP3    H1 8052   3.699   6.245   1.021
 2696TIP3    H2 8053   3.597   6.355   1.038
 2697TIP3   OH2 8054   6.530   6.843   3.375
 2697TIP3    H1 8055   6.451   6.885   3.341
 2697TIP3    H2 8056   6.568   6.799   3.300
 2698TIP3   OH2 8057   3.435   3.192   5.043
 2698TIP3    H1 8058   3.375   3.245   5.096
 2698TIP3    H2 8059   3.453   3.247   4.966
 2699TIP3   OH2 8060   5.471   3.821   5.321
 2699TIP3    H1 8061   5.469   3.904   5.273
 2699TIP3    H2 8062   5.417   3.836   5.398
 2700TIP3   OH2 8063   5.096   1.242   0.165
 2700TIP3    H1 8064   5.023   1.274   0.112
 2700TIP3    H2 8065   5.134   1.321   0.202
 2701TIP3   OH2 8066   1.553   5.967   4.475
 2701TIP3    H1 8067   1.546   6.053   4.434
 2701TIP3    H2 8068   1.498   5.974   4.553
 2702TIP3   OH2 8069   4.114   4.166   0.236
 2702TIP3    H1 8070   4.163   4.235   0.281
 2702TIP3    H2 8071   4.068   4.212   0.166
 2703TIP3   OH2 8072   2.434   3.080   4.048
 2703TIP3    H1 8073   2.401   3.139   3.980
 2703TIP3    H2 8074   2.405   3.119   4.130
 2704TIP3   OH2 8075   6.051   4.384   1.517
 2704TIP3    H1 8076   6.043   4.396   1.422
 2704TIP3    H2 8077   6.107   4.307   1.527
 2705TIP3   OH2 8078   6.318   1.637   4.844
 2705TIP3    H1 8079   6.334   1.654   4.937
 2705TIP3    H2 8080   6.262   1.710   4.816
 2706TIP3   OH2 8081   1.756   1.868   3.896
 2706TIP3    H1 8082   1.754   1.963   3.901
 2706TIP3    H2 8083   1.845   1.847   3.867
 2707TIP3   OH2 8084   3.475   1.524   0.384
 2707TIP3    H1 8085   3.562   1.545   0.416
 2707TIP3    H2 8086   3.490   1.483   0.299
 2708TIP3   OH2 8087   5.892   0.556   1.263
 2708TIP3    H1 8088   5.938   0.535   1.345
 2708TIP3    H2 8089   5.860   0.471   1.232
 2709TIP3   OH2 8090   3.735   3.723   4.353
 2709TIP3    H1 8091   3.802   3.660   4.326
 2709TIP3    H2 8092   3.653   3.674   4.351
 2710TIP3   OH2 8093   2.979   5.053   0.891
 2710TIP3    H1 8094   2.935   4.969   0.900
 2710TIP3    H2 8095   3.045   5.053   0.961
 2711TIP3   OH2 8096   1.637   5.816   5.568
 2711TIP3    H1 8097   1.565   5.834   5.507
 2711TIP3    H2 8098   1.715   5.848   5.523
 2712TIP3   OH2 8099   4.816   1.074   2.732
 2712TIP3    H1 8100   4.841   1.029   2.652
 2712TIP3    H2 8101   4.721   1.088   2.723
 2713TIP3   OH2 8102   0.832   3.377   0.308
 2713TIP3    H1 8103   0.884   3.298   0.320
 2713TIP3    H2 8104   0.897   3.448   0.302
 2714TIP3   OH2 8105   0.497   1.515   2.904
 2714TIP3    H1 8106   0.448   1.440   2.937
 2714TIP3    H2 8107   0.434   1.587   2.903
 2715TIP3   OH2 8108   4.668   5.080   3.376
 2715TIP3    H1 8109   4.743   5.136   3.354
 2715TIP3    H2 8110   4.608   5.090   3.303
 2716TIP3   OH2 8111   0.057   0.730   5.846
 2716TIP3    H1 8112   0.052   0.742   5.941
 2716TIP3    H2 8113   0.005   0.801   5.810
 2717TIP3   OH2 8114   1.099   4.539   2.453
 2717TIP3    H1 8115   1.083   4.486   2.376
 2717TIP3    H2 8116   1.096   4.477   2.526
 2718TIP3   OH2 8117   7.131   3.373   2.147
 2718TIP3    H1 8118   7.053   3.428   2.140
 2718TIP3    H2 8119   7.194   3.427   2.196
 2719TIP3   OH2 8120   5.552   3.971   4.636
 2719TIP3    H1 8121   5.537   4.038   4.570
 2719TIP3    H2 8122   5.509   4.004   4.715
 2720TIP3   OH2 8123   3.532   2.923   5.037
 2720TIP3    H1 8124   3.480   3.003   5.030
 2720TIP3    H2 8125   3.557   2.919   5.129
 2721TIP3   OH2 8126   4.106   6.353   2.373
 2721TIP3    H1 8127   4.038   6.285   2.366
 2721TIP3    H2 8128   4.069   6.416   2.435
 2722TIP3   OH2 8129   5.118   2.841   3.571
 2722TIP3    H1 8130   5.146   2.829   3.662
 2722TIP3    H2 8131   5.023   2.846   3.577
 2723TIP3   OH2 8132   6.345   6.781   4.663
 2723TIP3    H1 8133   6.357   6.708   4.724
 2723TIP3    H2 8134   6.251   6.783   4.645
 2724TIP3   OH2 8135   4.176   2.775   0.676
 2724TIP3    H1 8136   4.138   2.703   0.625
 2724TIP3    H2 8137   4.101   2.826   0.706
 2725TIP3   OH2 8138   3.527   0.218   2.521
 2725TIP3    H1 8139   3.441   0.258   2.537
 2725TIP3    H2 8140   3.515   0.127   2.549
 2726TIP3   OH2 8141   4.973   0.732   1.102
 2726TIP3    H1 8142   4.956   0.819   1.065
 2726TIP3    H2 8143   5.052   0.744   1.155
 2727TIP3   OH2 8144   2.025   2.122   4.803
 2727TIP3    H1 8145   1.960   2.092   4.866
 2727TIP3    H2 8146   2.017   2.062   4.729
 2728TIP3   OH2 8147   3.486   5.115   4.324
 2728TIP3    H1 8148   3.461   5.101   4.233
 2728TIP3    H2 8149   3.412   5.161   4.363
 2729TIP3   OH2 8150   5.486   2.769   1.844
 2729TIP3    H1 8151   5.406   2.729   1.877
 2729TIP3    H2 8152   5.465   2.862   1.836
 2730TIP3   OH2 8153   2.907   2.186   2.742
 2730TIP3    H1 8154   2.840   2.230   2.689
 2730TIP3    H2 8155   2.881   2.094   2.741
 2731TIP3   OH2 8156   2.179   2.567   4.719
 2731TIP3    H1 8157   2.128   2.632   4.767
 2731TIP3    H2 8158   2.254   2.615   4.683
 2732TIP3   OH2 8159   1.596   1.856   5.714
 2732TIP3    H1 8160   1.687   1.880   5.692
 2732TIP3    H2 8161   1.558   1.828   5.631
 2733TIP3   OH2 8162   6.640   6.497   2.361
 2733TIP3    H1 8163   6.694   6.465   2.288
 2733TIP3    H2 8164   6.648   6.429   2.428
 2734TIP3   OH2 8165   4.033   1.582   3.858
 2734TIP3    H1 8166   3.970   1.540   3.916
 2734TIP3    H2 8167   3.995   1.575   3.771
 2735TIP3   OH2 8168   5.958   0.719   3.885
 2735TIP3    H1 8169   6.029   0.662   3.915
 2735TIP3    H2 8170   5.999   0.776   3.820
 2736TIP3   OH2 8171   5.267   3.313   1.850
 2736TIP3    H1 8172   5.234   3.255   1.781
 2736TIP3    H2 8173   5.253   3.401   1.816
 2737TIP3   OH2 8174   6.162   6.397   2.571
 2737TIP3    H1 8175   6.100   6.384   2.499
 2737TIP3    H2 8176   6.246   6.364   2.538
 2738TIP3   OH2 8177   5.683   5.497   1.254
 2738TIP3    H1 8178   5.746   5.569   1.247
 2738TIP3    H2 8179   5.719   5.439   1.321
 2739TIP3   OH2 8180   2.871   3.251   5.271
 2739TIP3    H1 8181   2.943   3.222   5.327
 2739TIP3    H2 8182   2.914   3.302   5.202
 2740TIP3   OH2 8183   6.958   1.411   1.730
 2740TIP3    H1 8184   6.902   1.382   1.802
 2740TIP3    H2 8185   6.897   1.430   1.659
 2741TIP3   OH2 8186   6.155   0.075   5.245
 2741TIP3    H1 8187   6.066   0.109   5.237
 2741TIP3    H2 8188   6.205   0.123   5.179
 2742TIP3   OH2 8189   4.230   3.874   2.541
 2742TIP3    H1 8190   4.286   3.951   2.553
 2742TIP3    H2 8191   4.182   3.892   2.460
 2743TIP3   OH2 8192   1.573   5.762   3.760
 2743TIP3    H1 8193   1.542   5.682   3.716
 2743TIP3    H2 8194   1.613   5.731   3.841
 2744TIP3   OH2 8195   5.281   0.268   5.148
 2744TIP3    H1 8196   5.370   0.287   5.178
 2744TIP3    H2 8197   5.225   0.297   5.220
 2745TIP3   OH2 8198   2.096   5.864   0.087
 2745TIP3    H1 8199   2.160   5.802   0.123
 2745TIP3    H2 8200   2.130   5.950   0.110
 2746TIP3   OH2 8201   6.947   4.529   5.757
 2746TIP3    H1 8202   7.035   4.492   5.754
 2746TIP3    H2 8203   6.924   4.528   5.850
 2747TIP3   OH2 8204   1.385   4.536   4.794
 2747TIP3    H1 8205   1.449   4.566   4.729
 2747TIP3    H2 8206   1.368   4.445   4.770
 2748TIP3   OH2 8207   1.270   3.922   2.596
 2748TIP3    H1 8208   1.209   3.968   2.653
 2748TIP3    H2 8209   1.287   3.984   2.524
 2749TIP3   OH2 8210   4.282   5.474   3.608
 2749TIP3    H1 8211   4.189   5.457   3.590
 2749TIP3    H2 8212   4.303   5.551   3.555
 2750TIP3   OH2 8213   6.314   4.657   3.610
 2750TIP3    H1 8214   6.381   4.682   3.673
 2750TIP3    H2 8215   6.352   4.679   3.525
 2751TIP3   OH2 8216   6.289   4.777   0.646
 2751TIP3    H1 8217   6.316   4.809   0.560
 2751TIP3    H2 8218   6.329   4.838   0.708
 2752TIP3   OH2 8219   2.771   6.827   0.131
 2752TIP3    H1 8220   2.731   6.819   0.218
 2752TIP3    H2 8221   2.859   6.791   0.141
 2753TIP3   OH2 8222   4.365   5.993   3.181
 2753TIP3    H1 8223   4.400   6.064   3.127
 2753TIP3    H2 8224   4.299   5.952   3.126
 2754TIP3   OH2 8225   4.530   4.151   1.038
 2754TIP3    H1 8226   4.626   4.154   1.041
 2754TIP3    H2 8227   4.504   4.243   1.045
 2755TIP3   OH2 8228   5.617   2.296   1.317
 2755TIP3    H1 8229   5.623   2.294   1.412
 2755TIP3    H2 8230   5.629   2.204   1.290
 2756TIP3   OH2 8231   7.009   4.947   2.149
 2756TIP3    H1 8232   6.955   5.019   2.119
 2756TIP3    H2 8233   7.095   4.962   2.108
 2757TIP3   OH2 8234   5.610   0.988   3.021
 2757TIP3    H1 8235   5.679   1.049   3.048
 2757TIP3    H2 8236   5.590   0.938   3.101
 2758TIP3   OH2 8237   6.162   0.517   1.943
 2758TIP3    H1 8238   6.200   0.559   2.020
 2758TIP3    H2 8239   6.198   0.565   1.868
 2759TIP3   OH2 8240   0.492   2.282   5.743
 2759TIP3    H1 8241   0.519   2.311   5.655
 2759TIP3    H2 8242   0.519   2.190   5.748
 2760TIP3   OH2 8243   1.124   2.063   1.146
 2760TIP3    H1 8244   1.180   2.095   1.216
 2760TIP3    H2 8245   1.073   2.140   1.119
 2761TIP3   OH2 8246   4.113   1.026   4.208
 2761TIP3    H1 8247   4.078   0.943   4.175
 2761TIP3    H2 8248   4.097   1.023   4.302
 2762TIP3   OH2 8249   6.206   0.057   3.586
 2762TIP3    H1 8250   6.195  -0.026   3.633
 2762TIP3    H2 8251   6.127   0.065   3.533
 2763TIP3   OH2 8252   1.982   1.888   1.487
 2763TIP3    H1 8253   1.982   1.803   1.444
 2763TIP3    H2 8254   2.069   1.924   1.468
 2764TIP3   OH2 8255   6.747   5.987   0.091
 2764TIP3    H1 8256   6.811   5.926   0.055
 2764TIP3    H2 8257   6.673   5.932   0.115
 2765TIP3   OH2 8258   1.986   2.508   4.406
 2765TIP3    H1 8259   1.958   2.426   4.447
 2765TIP3    H2 8260   2.077   2.493   4.381
 2766TIP3   OH2 8261   3.603   0.265   0.816
 2766TIP3    H1 8262   3.604   0.354   0.852
 2766TIP3    H2 8263   3.695   0.241   0.807
 2767TIP3   OH2 8264   2.657   3.720   3.762
 2767TIP3    H1 8265   2.628   3.686   3.846
 2767TIP3    H2 8266   2.747   3.688   3.752
 2768TIP3   OH2 8267   1.768   3.827   2.802
 2768TIP3    H1 8268   1.680   3.794   2.781
 2768TIP3    H2 8269   1.770   3.916   2.767
 2769TIP3   OH2 8270   0.486   4.918   0.795
 2769TIP3    H1 8271   0.480   4.850   0.861
 2769TIP3    H2 8272   0.398   4.957   0.792
 2770TIP3   OH2 8273   5.179   5.258   2.978
 2770TIP3    H1 8274   5.242   5.260   2.906
 2770TIP3    H2 8275   5.104   5.308   2.947
 2771TIP3   OH2 8276   3.870   3.015   0.141
 2771TIP3    H1 8277   3.862   3.014   0.237
 2771TIP3    H2 8278   3.930   3.087   0.123
 2772TIP3   OH2 8279   0.853   1.503   0.214
 2772TIP3    H1 8280   0.807   1.540   0.138
 2772TIP3    H2 8281   0.860   1.577   0.275
 2773TIP3   OH2 8282   4.036   4.882   2.647
 2773TIP3    H1 8283   4.041   4.826   2.725
 2773TIP3    H2 8284   4.077   4.964   2.674
 2774TIP3   OH2 8285   1.603   0.447   0.981
 2774TIP3    H1 8286   1.551   0.380   0.936
 2774TIP3    H2 8287   1.673   0.468   0.920
 2775TIP3   OH2 8288   3.685   3.446   1.725
 2775TIP3    H1 8289   3.776   3.470   1.742
 2775TIP3    H2 8290   3.635   3.496   1.790
 2776TIP3   OH2 8291   6.609   2.811   4.550
 2776TIP3    H1 8292   6.551   2.854   4.612
 2776TIP3    H2 8293   6.557   2.737   4.517
 2777TIP3   OH2 8294   2.443   5.568   4.684
 2777TIP3    H1 8295   2.366   5.623   4.697
 2777TIP3    H2 8296   2.415   5.480   4.709
 2778TIP3   OH2 8297   5.153   5.348   0.265
 2778TIP3    H1 8298   5.090   5.290   0.307
 2778TIP3    H2 8299   5.227   5.351   0.325
 2779TIP3   OH2 8300   3.786   4.655   0.367
 2779TIP3    H1 8301   3.835   4.730   0.399
 2779TIP3    H2 8302   3.842   4.617   0.299
 2780TIP3   OH2 8303   3.312   2.166   1.486
 2780TIP3    H1 8304   3.250   2.238   1.498
 2780TIP3    H2 8305   3.356   2.159   1.571
 2781TIP3   OH2 8306   4.866   3.590   5.066
 2781TIP3    H1 8307   4.875   3.684   5.079
 2781TIP3    H2 8308   4.939   3.566   5.008
 2782TIP3   OH2 8309   0.307   0.445   0.430
 2782TIP3    H1 8310   0.232   0.411   0.480
 2782TIP3    H2 8311   0.268   0.487   0.353
 2783TIP3   OH2 8312   4.352   5.308   1.774
 2783TIP3    H1 8313   4.292   5.375   1.807
 2783TIP3    H2 8314   4.345   5.237   1.838
 2784TIP3   OH2 8315   0.056   0.312   4.896
 2784TIP3    H1 8316   0.100   0.243   4.846
 2784TIP3    H2 8317  -0.018   0.268   4.938
 2785TIP3   OH2 8318   1.891   2.202   2.319
 2785TIP3    H1 8319   1.908   2.296   2.311
 2785TIP3    H2 8320   1.918   2.165   2.235
 2786TIP3   OH2 8321   1.141   3.449   0.024
 2786TIP3    H1 8322   1.145   3.488   0.112
 2786TIP3    H2 8323   1.187   3.366   0.034
 2787TIP3   OH2 8324   0.019   5.254   5.437
 2787TIP3    H1 8325   0.071   5.193   5.385
 2787TIP3    H2 8326  -0.057   5.203   5.465
 2788TIP3   OH2 8327   4.709   1.542   2.046
 2788TIP3    H1 8328   4.624   1.572   2.079
 2788TIP3    H2 8329   4.727   1.461   2.094
 2789TIP3   OH2 8330   6.921   4.392   3.038
 2789TIP3    H1 8331   6.837   4.419   3.075
 2789TIP3    H2 8332   6.984   4.455   3.072
 2790TIP3   OH2 8333   3.154   1.079   2.006
 2790TIP3    H1 8334   3.179   1.099   2.096
 2790TIP3    H2 8335   3.237   1.056   1.963
 2791TIP3   OH2 8336   4.317   0.546   5.692
 2791TIP3    H1 8337   4.258   0.621   5.681
 2791TIP3    H2 8338   4.345   0.523   5.604
 2792TIP3   OH2 8339   1.428   4.998   2.132
 2792TIP3    H1 8340   1.428   4.943   2.211
 2792TIP3    H2 8341   1.509   4.974   2.087
 2793TIP3   OH2 8342   1.917   2.456   1.398
 2793TIP3    H1 8343   1.923   2.551   1.403
 2793TIP3    H2 8344   1.852   2.440   1.329
 2794TIP3   OH2 8345   5.629   3.342   2.400
 2794TIP3    H1 8346   5.668   3.272   2.453
 2794TIP3    H2 8347   5.639   3.312   2.309
 2795TIP3   OH2 8348   5.887   1.189   1.367
 2795TIP3    H1 8349   5.923   1.183   1.455
 2795TIP3    H2 8350   5.885   1.283   1.348
 2796TIP3   OH2 8351   2.499   2.845   1.537
 2796TIP3    H1 8352   2.534   2.855   1.626
 2796TIP3    H2 8353   2.495   2.934   1.503
 2797TIP3   OH2 8354   0.876   0.050   4.594
 2797TIP3    H1 8355   0.898  -0.003   4.670
 2797TIP3    H2 8356   0.841  -0.012   4.530
 2798TIP3   OH2 8357   4.981   4.039   2.922
 2798TIP3    H1 8358   4.912   4.003   2.978
 2798TIP3    H2 8359   5.060   4.034   2.976
 2799TIP3   OH2 8360   1.898   4.647   4.794
 2799TIP3    H1 8361   1.901   4.585   4.868
 2799TIP3    H2 8362   1.890   4.591   4.717
 2800TIP3   OH2 8363   4.825   6.295   2.832
 2800TIP3    H1 8364   4.765   6.240   2.781
 2800TIP3    H2 8365   4.910   6.253   2.823
 2801TIP3   OH2 8366   0.015   0.859   3.456
 2801TIP3    H1 8367  -0.039   0.938   3.467
 2801TIP3    H2 8368   0.105   0.892   3.457
 2802TIP3   OH2 8369   1.106   2.763   3.810
 2802TIP3    H1 8370   1.111   2.792   3.901
 2802TIP3    H2 8371   1.048   2.826   3.768
 2803TIP3   OH2 8372   1.564   0.742   5.449
 2803TIP3    H1 8373   1.571   0.673   5.515
 2803TIP3    H2 8374   1.636   0.726   5.389
 2804TIP3   OH2 8375   0.527   5.333   1.748
 2804TIP3    H1 8376   0.437   5.302   1.756
 2804TIP3    H2 8377   0.561   5.290   1.670
 2805TIP3   OH2 8378   0.700   3.840   3.060
 2805TIP3    H1 8379   0.756   3.915   3.077
 2805TIP3    H2 8380   0.748   3.786   2.997
 2806TIP3   OH2 8381   2.828   0.353   4.975
 2806TIP3    H1 8382   2.861   0.325   5.060
 2806TIP3    H2 8383   2.846   0.279   4.916
 2807TIP3   OH2 8384   5.796   5.363   5.796
 2807TIP3    H1 8385   5.834   5.294   5.850
 2807TIP3    H2 8386   5.841   5.443   5.823
 2808TIP3   OH2 8387   0.135   3.516  -0.018
 2808TIP3    H1 8388   0.228   3.537  -0.015
 2808TIP3    H2 8389   0.118   3.467   0.062
 2809TIP3   OH2 8390   0.572   3.514   2.422
 2809TIP3    H1 8391   0.603   3.532   2.334
 2809TIP3    H2 8392   0.645   3.536   2.479
 2810TIP3   OH2 8393   3.023   2.081   1.700
 2810TIP3    H1 8394   3.023   2.058   1.607
 2810TIP3    H2 8395   3.115   2.076   1.726
 2811TIP3   OH2 8396   0.031   5.921   2.350
 2811TIP3    H1 8397   0.126   5.930   2.346
 2811TIP3    H2 8398   0.003   5.995   2.405
 2812TIP3   OH2 8399   4.956   5.486   0.991
 2812TIP3    H1 8400   4.976   5.417   1.054
 2812TIP3    H2 8401   5.039   5.531   0.977
 2813TIP3   OH2 8402   6.213   3.116   5.547
 2813TIP3    H1 8403   6.130   3.126   5.592
 2813TIP3    H2 8404   6.204   3.035   5.497
 2814TIP3   OH2 8405   0.955   6.674   4.301
 2814TIP3    H1 8406   0.982   6.748   4.246
 2814TIP3    H2 8407   0.868   6.697   4.332
 2815TIP3   OH2 8408   2.001   4.879   5.284
 2815TIP3    H1 8409   1.952   4.916   5.357
 2815TIP3    H2 8410   1.945   4.891   5.208
 2816TIP3   OH2 8411   0.836   6.072   3.132
 2816TIP3    H1 8412   0.759   6.025   3.164
 2816TIP3    H2 8413   0.848   6.040   3.043
 2817TIP3   OH2 8414   6.329   2.961   2.419
 2817TIP3    H1 8415   6.263   2.961   2.350
 2817TIP3    H2 8416   6.287   3.003   2.493
 2818TIP3   OH2 8417   1.757   5.824   3.446
 2818TIP3    H1 8418   1.770   5.873   3.527
 2818TIP3    H2 8419   1.756   5.732   3.474
 2819TIP3   OH2 8420   3.124   5.122   0.618
 2819TIP3    H1 8421   3.217   5.099   0.620
 2819TIP3    H2 8422   3.093   5.104   0.706
 2820TIP3   OH2 8423   3.379   5.579   5.774
 2820TIP3    H1 8424   3.370   5.641   5.846
 2820TIP3    H2 8425   3.467   5.543   5.784
 2821TIP3   OH2 8426   2.063   1.673   2.690
 2821TIP3    H1 8427   1.974   1.670   2.653
 2821TIP3    H2 8428   2.054   1.632   2.776
 2822TIP3   OH2 8429   4.364   4.195   2.236
 2822TIP3    H1 8430   4.438   4.154   2.282
 2822TIP3    H2 8431   4.373   4.163   2.146
 2823TIP3   OH2 8432   7.100   5.313   2.086
 2823TIP3    H1 8433   7.042   5.240   2.107
 2823TIP3    H2 8434   7.070   5.384   2.142
 2824TIP3   OH2 8435   4.011   4.212   5.793
 2824TIP3    H1 8436   3.954   4.192   5.719
 2824TIP3    H2 8437   4.001   4.138   5.852
 2825TIP3   OH2 8438   2.194   5.618   0.853
 2825TIP3    H1 8439   2.197   5.567   0.934
 2825TIP3    H2 8440   2.231   5.559   0.787
 2826TIP3   OH2 8441   6.946   0.510   2.146
 2826TIP3    H1 8442   6.986   0.596   2.133
 2826TIP3    H2 8443   6.946   0.498   2.241
 2827TIP3   OH2 8444   5.849   4.124   4.431
 2827TIP3    H1 8445   5.871   4.037   4.465
 2827TIP3    H2 8446   5.761   4.114   4.396
 2828TIP3   OH2 8447   5.469   4.795   5.703
 2828TIP3    H1 8448   5.542   4.741   5.672
 2828TIP3    H2 8449   5.505   4.884   5.706
 2829TIP3   OH2 8450   3.507   5.142   0.148
 2829TIP3    H1 8451   3.547   5.136   0.061
 2829TIP3    H2 8452   3.426   5.190   0.134
 2830TIP3   OH2 8453   4.174   2.136   1.768
 2830TIP3    H1 8454   4.164   2.230   1.785
 2830TIP3    H2 8455   4.171   2.128   1.673
 2831TIP3   OH2 8456   6.103   1.581   1.578
 2831TIP3    H1 8457   6.139   1.670   1.582
 2831TIP3    H2 8458   6.035   1.579   1.645
 2832TIP3   OH2 8459   5.248   2.577   3.458
 2832TIP3    H1 8460   5.290   2.664   3.458
 2832TIP3    H2 8461   5.263   2.544   3.370
 2833TIP3   OH2 8462   3.445   6.052   1.649
 2833TIP3    H1 8463   3.513   6.077   1.711
 2833TIP3    H2 8464   3.392   5.987   1.696
 2834TIP3   OH2 8465   0.508   3.012   1.874
 2834TIP3    H1 8466   0.429   3.061   1.854
 2834TIP3    H2 8467   0.517   2.950   1.802
 2835TIP3   OH2 8468   5.472   2.465   5.054
 2835TIP3    H1 8469   5.407   2.395   5.063
 2835TIP3    H2 8470   5.423   2.545   5.074
 2836TIP3   OH2 8471   3.781   4.134   0.998
 2836TIP3    H1 8472   3.802   4.190   0.923
 2836TIP3    H2 8473   3.862   4.132   1.050
 2837TIP3   OH2 8474   5.124   4.196   5.396
 2837TIP3    H1 8475   5.089   4.272   5.351
 2837TIP3    H2 8476   5.219   4.212   5.402
 2838TIP3   OH2 8477   3.014   3.176   4.995
 2838TIP3    H1 8478   2.918   3.175   4.991
 2838TIP3    H2 8479   3.041   3.206   4.908
 2839TIP3   OH2 8480   2.619   4.209   5.112
 2839TIP3    H1 8481   2.710   4.237   5.107
 2839TIP3    H2 8482   2.616   4.149   5.187
 2840TIP3   OH2 8483   1.013   3.339   1.463
 2840TIP3    H1 8484   0.961   3.415   1.491
 2840TIP3    H2 8485   0.951   3.267   1.460
 2841TIP3   OH2 8486   2.680   6.823   3.514
 2841TIP3    H1 8487   2.593   6.783   3.506
 2841TIP3    H2 8488   2.738   6.751   3.536
 2842TIP3   OH2 8489   0.996   2.010   5.012
 2842TIP3    H1 8490   0.976   2.040   5.101
 2842TIP3    H2 8491   1.037   2.085   4.970
 2843TIP3   OH2 8492   2.471   3.987   0.343
 2843TIP3    H1 8493   2.394   3.939   0.314
 2843TIP3    H2 8494   2.488   3.955   0.431
 2844TIP3   OH2 8495   4.059   6.552   2.174
 2844TIP3    H1 8496   4.070   6.469   2.220
 2844TIP3    H2 8497   4.140   6.599   2.190
 2845TIP3   OH2 8498   4.861   0.386   3.231
 2845TIP3    H1 8499   4.940   0.360   3.277
 2845TIP3    H2 8500   4.877   0.362   3.140
 2846TIP3   OH2 8501   6.333   2.188   3.906
 2846TIP3    H1 8502   6.427   2.180   3.888
 2846TIP3    H2 8503   6.309   2.102   3.942
 2847TIP3   OH2 8504   6.803   4.155   5.841
 2847TIP3    H1 8505   6.725   4.176   5.789
 2847TIP3    H2 8506   6.874   4.149   5.776
 2848TIP3   OH2 8507   0.870   3.086   0.409
 2848TIP3    H1 8508   0.808   3.018   0.385
 2848TIP3    H2 8509   0.937   3.083   0.341
 2849TIP3   OH2 8510   5.665   3.673   5.145
 2849TIP3    H1 8511   5.644   3.672   5.051
 2849TIP3    H2 8512   5.599   3.730   5.184
 2850TIP3   OH2 8513   3.059   2.909   2.506
 2850TIP3    H1 8514   3.123   2.966   2.462
 2850TIP3    H2 8515   3.092   2.902   2.596
 2851TIP3   OH2 8516   5.260   1.952   5.002
 2851TIP3    H1 8517   5.311   1.965   4.923
 2851TIP3    H2 8518   5.183   2.008   4.991
 2852TIP3   OH2 8519   3.803   3.540   5.108
 2852TIP3    H1 8520   3.793   3.606   5.176
 2852TIP3    H2 8521   3.827   3.460   5.155
 2853TIP3   OH2 8522   0.653   0.823   3.736
 2853TIP3    H1 8523   0.584   0.798   3.675
 2853TIP3    H2 8524   0.730   0.835   3.680
 2854TIP3   OH2 8525   7.226   2.688   0.933
 2854TIP3    H1 8526   7.213   2.593   0.928
 2854TIP3    H2 8527   7.263   2.711   0.847
 2855TIP3   OH2 8528   5.952   0.748   2.227
 2855TIP3    H1 8529   5.993   0.809   2.166
 2855TIP3    H2 8530   5.929   0.802   2.303
 2856TIP3   OH2 8531   1.544   4.171   2.197
 2856TIP3    H1 8532   1.572   4.083   2.222
 2856TIP3    H2 8533   1.455   4.179   2.232
 2857TIP3   OH2 8534   1.919   3.530   4.999
 2857TIP3    H1 8535   1.879   3.513   4.914
 2857TIP3    H2 8536   1.890   3.458   5.054
 2858TIP3   OH2 8537   4.238   2.576   2.885
 2858TIP3    H1 8538   4.229   2.653   2.941
 2858TIP3    H2 8539   4.269   2.611   2.801
 2859TIP3   OH2 8540   7.060   1.645   2.470
 2859TIP3    H1 8541   7.087   1.564   2.513
 2859TIP3    H2 8542   7.138   1.676   2.425
 2860TIP3   OH2 8543   1.896   4.449   4.547
 2860TIP3    H1 8544   1.886   4.376   4.608
 2860TIP3    H2 8545   1.963   4.420   4.485
 2861TIP3   OH2 8546   1.432   0.416   4.570
 2861TIP3    H1 8547   1.500   0.478   4.541
 2861TIP3    H2 8548   1.370   0.471   4.618
 2862TIP3   OH2 8549   1.174   0.880   5.638
 2862TIP3    H1 8550   1.213   0.831   5.710
 2862TIP3    H2 8551   1.228   0.858   5.562
 2863TIP3   OH2 8552   2.288   4.058   5.162
 2863TIP3    H1 8553   2.275   3.993   5.231
 2863TIP3    H2 8554   2.370   4.101   5.186
 2864TIP3   OH2 8555   1.385   1.573   5.641
 2864TIP3    H1 8556   1.319   1.627   5.597
 2864TIP3    H2 8557   1.398   1.498   5.583
 2865TIP3   OH2 8558   0.236   3.398   1.718
 2865TIP3    H1 8559   0.267   3.485   1.743
 2865TIP3    H2 8560   0.142   3.410   1.702
 2866TIP3   OH2 8561   6.289   0.996   4.070
 2866TIP3    H1 8562   6.366   0.978   4.124
 2866TIP3    H2 8563   6.226   0.928   4.095
 2867TIP3   OH2 8564   6.249   0.204   5.008
 2867TIP3    H1 8565   6.195   0.230   4.933
 2867TIP3    H2 8566   6.288   0.286   5.039
 2868TIP3   OH2 8567   4.292   1.528   0.279
 2868TIP3    H1 8568   4.351   1.579   0.223
 2868TIP3    H2 8569   4.204   1.548   0.247
 2869TIP3   OH2 8570   1.143   0.682   5.323
 2869TIP3    H1 8571   1.175   0.706   5.410
 2869TIP3    H2 8572   1.105   0.595   5.334
 2870TIP3   OH2 8573   4.308   3.969   0.268
 2870TIP3    H1 8574   4.259   3.903   0.317
 2870TIP3    H2 8575   4.241   4.026   0.231
 2871TIP3   OH2 8576   0.430   5.944   3.928
 2871TIP3    H1 8577   0.467   5.895   3.854
 2871TIP3    H2 8578   0.403   5.877   3.990
 2872TIP3   OH2 8579   0.790   3.227   2.489
 2872TIP3    H1 8580   0.819   3.316   2.470
 2872TIP3    H2 8581   0.700   3.238   2.519
 2873TIP3   OH2 8582   4.704   0.641   2.694
 2873TIP3    H1 8583   4.724   0.613   2.783
 2873TIP3    H2 8584   4.640   0.711   2.705
 2874TIP3   OH2 8585   0.656   5.061   2.780
 2874TIP3    H1 8586   0.664   5.151   2.748
 2874TIP3    H2 8587   0.567   5.056   2.815
 2875TIP3   OH2 8588   2.745   3.959   1.996
 2875TIP3    H1 8589   2.690   4.032   1.971
 2875TIP3    H2 8590   2.690   3.882   1.984
 2876TIP3   OH2 8591   3.466   6.082   1.136
 2876TIP3    H1 8592   3.498   6.155   1.082
 2876TIP3    H2 8593   3.423   6.023   1.074
 2877TIP3   OH2 8594   3.483   6.257   3.790
 2877TIP3    H1 8595   3.418   6.195   3.823
 2877TIP3    H2 8596   3.488   6.239   3.696
 2878TIP3   OH2 8597   3.598   6.303   2.760
 2878TIP3    H1 8598   3.595   6.398   2.770
 2878TIP3    H2 8599   3.632   6.290   2.671
 2879TIP3   OH2 8600   1.651   2.944   5.456
 2879TIP3    H1 8601   1.725   2.885   5.441
 2879TIP3    H2 8602   1.574   2.888   5.446
 2880TIP3   OH2 8603   3.649   2.422   5.436
 2880TIP3    H1 8604   3.722   2.376   5.394
 2880TIP3    H2 8605   3.688   2.503   5.468
 2881TIP3   OH2 8606   3.069   5.035   0.096
 2881TIP3    H1 8607   2.994   4.975   0.087
 2881TIP3    H2 8608   3.129   4.990   0.155
 2882TIP3   OH2 8609   2.275   6.806   3.647
 2882TIP3    H1 8610   2.300   6.806   3.740
 2882TIP3    H2 8611   2.179   6.808   3.648
 2883TIP3   OH2 8612   3.285   3.919   3.706
 2883TIP3    H1 8613   3.334   3.837   3.712
 2883TIP3    H2 8614   3.315   3.959   3.625
 2884TIP3   OH2 8615   4.889   0.787   0.005
 2884TIP3    H1 8616   4.917   0.717  -0.053
 2884TIP3    H2 8617   4.859   0.742   0.084
 2885TIP3   OH2 8618   5.446   5.463   5.335
 2885TIP3    H1 8619   5.506   5.503   5.398
 2885TIP3    H2 8620   5.496   5.391   5.296
 2886TIP3   OH2 8621   4.049   6.125   3.015
 2886TIP3    H1 8622   4.116   6.067   2.979
 2886TIP3    H2 8623   4.092   6.167   3.090
 2887TIP3   OH2 8624   1.744   5.236   2.911
 2887TIP3    H1 8625   1.665   5.289   2.915
 2887TIP3    H2 8626   1.766   5.218   3.003
 2888TIP3   OH2 8627   0.967   3.649   4.314
 2888TIP3    H1 8628   0.984   3.592   4.239
 2888TIP3    H2 8629   1.000   3.600   4.390
 2889TIP3   OH2 8630   5.577   3.093   3.694
 2889TIP3    H1 8631   5.517   3.168   3.701
 2889TIP3    H2 8632   5.578   3.072   3.600
 2890TIP3   OH2 8633   4.193   1.425   2.078
 2890TIP3    H1 8634   4.206   1.333   2.055
 2890TIP3    H2 8635   4.273   1.468   2.047
 2891TIP3   OH2 8636   1.223   3.348   2.645
 2891TIP3    H1 8637   1.149   3.289   2.652
 2891TIP3    H2 8638   1.185   3.431   2.614
 2892TIP3   OH2 8639   5.737   2.843   0.667
 2892TIP3    H1 8640   5.811   2.844   0.607
 2892TIP3    H2 8641   5.727   2.750   0.691
 2893TIP3   OH2 8642   5.501   6.128   4.360
 2893TIP3    H1 8643   5.484   6.211   4.317
 2893TIP3    H2 8644   5.481   6.144   4.452
 2894TIP3   OH2 8645   5.484   5.061   5.635
 2894TIP3    H1 8646   5.561   5.104   5.673
 2894TIP3    H2 8647   5.411   5.119   5.657
 2895TIP3   OH2 8648   1.057   1.642   5.612
 2895TIP3    H1 8649   1.099   1.583   5.674
 2895TIP3    H2 8650   1.052   1.593   5.531
 2896TIP3   OH2 8651   6.006   0.360   4.015
 2896TIP3    H1 8652   6.029   0.365   3.922
 2896TIP3    H2 8653   6.039   0.274   4.043
 2897TIP3   OH2 8654   2.412   4.346   0.891
 2897TIP3    H1 8655   2.399   4.406   0.964
 2897TIP3    H2 8656   2.334   4.290   0.892
 2898TIP3   OH2 8657   4.334   0.310   3.105
 2898TIP3    H1 8658   4.288   0.238   3.148
 2898TIP3    H2 8659   4.411   0.326   3.160
 2899TIP3   OH2 8660   5.451   2.648   4.263
 2899TIP3    H1 8661   5.453   2.739   4.231
 2899TIP3    H2 8662   5.507   2.600   4.201
 2900TIP3   OH2 8663   5.469   5.466   4.776
 2900TIP3    H1 8664   5.393   5.493   4.828
 2900TIP3    H2 8665   5.457   5.372   4.763
 2901TIP3   OH2 8666   1.248   5.691   1.616
 2901TIP3    H1 8667   1.290   5.728   1.538
 2901TIP3    H2 8668   1.156   5.718   1.609
 2902TIP3   OH2 8669   5.404   4.343   5.043
 2902TIP3    H1 8670   5.417   4.415   4.981
 2902TIP3    H2 8671   5.384   4.386   5.126
 2903TIP3   OH2 8672   4.790   6.385   3.645
 2903TIP3    H1 8673   4.739   6.463   3.665
 2903TIP3    H2 8674   4.730   6.328   3.597
 2904TIP3   OH2 8675   5.468   4.233   1.370
 2904TIP3    H1 8676   5.395   4.172   1.359
 2904TIP3    H2 8677   5.519   4.197   1.442
 2905TIP3   OH2 8678   4.176   0.612   1.054
 2905TIP3    H1 8679   4.189   0.524   1.018
 2905TIP3    H2 8680   4.197   0.604   1.147
 2906TIP3   OH2 8681   4.874   2.937   3.131
 2906TIP3    H1 8682   4.908   2.936   3.041
 2906TIP3    H2 8683   4.935   2.883   3.180
 2907TIP3   OH2 8684   5.565   6.298   4.595
 2907TIP3    H1 8685   5.638   6.289   4.656
 2907TIP3    H2 8686   5.576   6.385   4.557
 2908TIP3   OH2 8687   2.920   3.591   3.635
 2908TIP3    H1 8688   2.913   3.510   3.685
 2908TIP3    H2 8689   3.014   3.607   3.628
 2909TIP3   OH2 8690   5.362   0.209   0.557
 2909TIP3    H1 8691   5.424   0.139   0.576
 2909TIP3    H2 8692   5.370   0.270   0.630
 2910TIP3   OH2 8693   3.774   5.583   4.443
 2910TIP3    H1 8694   3.752   5.511   4.502
 2910TIP3    H2 8695   3.830   5.640   4.494
 2911TIP3   OH2 8696   0.012   6.385   2.810
 2911TIP3    H1 8697   0.032   6.291   2.817
 2911TIP3    H2 8698   0.025   6.419   2.898
 2912TIP3   OH2 8699   6.271   1.528   1.859
 2912TIP3    H1 8700   6.189   1.576   1.851
 2912TIP3    H2 8701   6.245   1.441   1.888
 2913TIP3   OH2 8702   3.689   6.628   4.385
 2913TIP3    H1 8703   3.661   6.690   4.318
 2913TIP3    H2 8704   3.781   6.649   4.400
 2914TIP3   OH2 8705   2.979   3.482  -0.015
 2914TIP3    H1 8706   3.005   3.416   0.048
 2914TIP3    H2 8707   2.912   3.534   0.030
 2915TIP3   OH2 8708   5.999   3.015   1.752
 2915TIP3    H1 8709   5.908   2.998   1.731
 2915TIP3    H2 8710   6.009   2.984   1.842
 2916TIP3   OH2 8711   4.838   3.651   5.572
 2916TIP3    H1 8712   4.897   3.716   5.609
 2916TIP3    H2 8713   4.897   3.583   5.537
 2917TIP3   OH2 8714   0.162   6.602   5.001
 2917TIP3    H1 8715   0.084   6.551   5.027
 2917TIP3    H2 8716   0.140   6.638   4.915
 2918TIP3   OH2 8717   0.894   4.963   4.292
 2918TIP3    H1 8718   0.840   4.937   4.367
 2918TIP3    H2 8719   0.973   4.909   4.299
 2919TIP3   OH2 8720   6.516   0.806   4.529
 2919TIP3    H1 8721   6.581   0.873   4.551
 2919TIP3    H2 8722   6.523   0.795   4.435
 2920TIP3   OH2 8723   1.968   2.383   4.738
 2920TIP3    H1 8724   2.050   2.430   4.754
 2920TIP3    H2 8725   1.983   2.295   4.772
 2921TIP3   OH2 8726   2.255   5.392   0.231
 2921TIP3    H1 8727   2.207   5.378   0.149
 2921TIP3    H2 8728   2.346   5.403   0.204
 2922TIP3   OH2 8729   6.012   2.757   2.026
 2922TIP3    H1 8730   6.003   2.673   2.070
 2922TIP3    H2 8731   5.927   2.772   1.983
 2923TIP3   OH2 8732   4.499   4.890   2.015
 2923TIP3    H1 8733   4.554   4.859   2.087
 2923TIP3    H2 8734   4.556   4.884   1.938
 2924TIP3   OH2 8735   4.796   6.726   0.271
 2924TIP3    H1 8736   4.829   6.803   0.316
 2924TIP3    H2 8737   4.870   6.665   0.270
 2925TIP3   OH2 8738   0.742   5.521   2.042
 2925TIP3    H1 8739   0.686   5.554   1.973
 2925TIP3    H2 8740   0.826   5.564   2.027
 2926TIP3   OH2 8741   5.276   5.922   5.590
 2926TIP3    H1 8742   5.269   5.905   5.496
 2926TIP3    H2 8743   5.221   5.855   5.630
 2927TIP3   OH2 8744   2.254   4.337   3.665
 2927TIP3    H1 8745   2.220   4.264   3.614
 2927TIP3    H2 8746   2.177   4.393   3.682
 2928TIP3   OH2 8747   4.611   4.741   1.046
 2928TIP3    H1 8748   4.684   4.757   0.986
 2928TIP3    H2 8749   4.545   4.697   0.993
 2929TIP3   OH2 8750   0.057   6.696   4.733
 2929TIP3    H1 8751  -0.019   6.750   4.754
 2929TIP3    H2 8752   0.096   6.737   4.656
 2930TIP3   OH2 8753   4.173   1.664   0.515
 2930TIP3    H1 8754   4.237   1.629   0.453
 2930TIP3    H2 8755   4.117   1.721   0.463
 2931TIP3   OH2 8756   0.719   1.897   5.140
 2931TIP3    H1 8757   0.686   1.854   5.061
 2931TIP3    H2 8758   0.667   1.977   5.146
 2932TIP3   OH2 8759   2.865   1.908   2.780
 2932TIP3    H1 8760   2.862   1.812   2.790
 2932TIP3    H2 8761   2.957   1.927   2.761
 2933TIP3   OH2 8762   2.581   4.049   1.402
 2933TIP3    H1 8763   2.500   4.101   1.400
 2933TIP3    H2 8764   2.651   4.114   1.392
 2934TIP3   OH2 8765   6.058   2.123   3.366
 2934TIP3    H1 8766   5.994   2.182   3.326
 2934TIP3    H2 8767   6.007   2.046   3.391
 2935TIP3   OH2 8768   6.050   5.573   0.259
 2935TIP3    H1 8769   6.014   5.578   0.347
 2935TIP3    H2 8770   5.983   5.527   0.209
 2936TIP3   OH2 8771   3.017   0.234   4.038
 2936TIP3    H1 8772   3.046   0.312   4.086
 2936TIP3    H2 8773   2.957   0.267   3.972
 2937TIP3   OH2 8774   0.444   1.225   2.959
 2937TIP3    H1 8775   0.350   1.242   2.963
 2937TIP3    H2 8776   0.450   1.129   2.958
 2938TIP3   OH2 8777   3.708   2.319   4.445
 2938TIP3    H1 8778   3.689   2.236   4.489
 2938TIP3    H2 8779   3.791   2.348   4.485
 2939TIP3   OH2 8780   2.001   3.826   3.529
 2939TIP3    H1 8781   2.067   3.760   3.553
 2939TIP3    H2 8782   1.929   3.811   3.589
 2940TIP3   OH2 8783   2.522   1.368   1.241
 2940TIP3    H1 8784   2.597   1.309   1.230
 2940TIP3    H2 8785   2.533   1.433   1.172
 2941TIP3   OH2 8786   4.957   2.146   4.774
 2941TIP3    H1 8787   4.981   2.086   4.844
 2941TIP3    H2 8788   5.026   2.212   4.774
 2942TIP3   OH2 8789   6.599   1.684   5.583
 2942TIP3    H1 8790   6.520   1.647   5.544
 2942TIP3    H2 8791   6.651   1.609   5.610
 2943TIP3   OH2 8792   2.943   4.499   2.826
 2943TIP3    H1 8793   3.005   4.440   2.869
 2943TIP3    H2 8794   2.860   4.483   2.870
 2944TIP3   OH2 8795   5.835   4.528   5.444
 2944TIP3    H1 8796   5.852   4.457   5.507
 2944TIP3    H2 8797   5.921   4.569   5.431
 2945TIP3   OH2 8798   6.364   5.520   0.716
 2945TIP3    H1 8799   6.374   5.595   0.657
 2945TIP3    H2 8800   6.454   5.497   0.740
 2946TIP3   OH2 8801   4.885   2.464   3.797
 2946TIP3    H1 8802   4.826   2.500   3.863
 2946TIP3    H2 8803   4.957   2.426   3.847
 2947TIP3   OH2 8804   1.626   3.373   3.784
 2947TIP3    H1 8805   1.645   3.343   3.873
 2947TIP3    H2 8806   1.628   3.294   3.731
 2948TIP3   OH2 8807   1.337   6.427   4.578
 2948TIP3    H1 8808   1.323   6.365   4.649
 2948TIP3    H2 8809   1.251   6.436   4.537
 2949TIP3   OH2 8810   6.129   5.492   0.816
 2949TIP3    H1 8811   6.209   5.501   0.764
 2949TIP3    H2 8812   6.083   5.575   0.804
 2950TIP3   OH2 8813   4.451   2.576   4.054
 2950TIP3    H1 8814   4.421   2.572   3.963
 2950TIP3    H2 8815   4.497   2.493   4.068
 2951TIP3   OH2 8816   0.017   5.637   2.616
 2951TIP3    H1 8817   0.111   5.620   2.618
 2951TIP3    H2 8818   0.004   5.711   2.675
 2952TIP3   OH2 8819   1.172   6.289   3.322
 2952TIP3    H1 8820   1.257   6.248   3.310
 2952TIP3    H2 8821   1.115   6.218   3.352
 2953TIP3   OH2 8822   0.018   6.640   1.821
 2953TIP3    H1 8823   0.078   6.566   1.828
 2953TIP3    H2 8824   0.067   6.715   1.853
 2954TIP3   OH2 8825   7.167   5.450   2.403
 2954TIP3    H1 8826   7.072   5.447   2.392
 2954TIP3    H2 8827   7.180   5.514   2.473
 2955TIP3   OH2 8828   5.617   3.004   4.883
 2955TIP3    H1 8829   5.525   3.026   4.869
 2955TIP3    H2 8830   5.620   2.909   4.878
 2956TIP3   OH2 8831   1.688   4.086   1.817
 2956TIP3    H1 8832   1.763   4.047   1.861
 2956TIP3    H2 8833   1.725   4.145   1.752
 2957TIP3   OH2 8834   1.799   3.111   2.116
 2957TIP3    H1 8835   1.744   3.187   2.099
 2957TIP3    H2 8836   1.745   3.036   2.090
 2958TIP3   OH2 8837   5.930   1.351   1.109
 2958TIP3    H1 8838   5.838   1.336   1.131
 2958TIP3    H2 8839   5.967   1.390   1.188
 2959TIP3   OH2 8840   6.066   0.193   4.416
 2959TIP3    H1 8841   6.040   0.276   4.458
 2959TIP3    H2 8842   6.077   0.132   4.488
 2960TIP3   OH2 8843   5.554   5.387   2.143
 2960TIP3    H1 8844   5.512   5.320   2.089
 2960TIP3    H2 8845   5.605   5.337   2.207
 2961TIP3   OH2 8846   7.134   1.805   2.161
 2961TIP3    H1 8847   7.196   1.801   2.234
 2961TIP3    H2 8848   7.175   1.754   2.091
 2962TIP3   OH2 8849   5.760   1.468   0.694
 2962TIP3    H1 8850   5.783   1.560   0.698
 2962TIP3    H2 8851   5.725   1.447   0.781
 2963TIP3   OH2 8852   4.804   4.105   3.251
 2963TIP3    H1 8853   4.772   4.167   3.316
 2963TIP3    H2 8854   4.894   4.086   3.277
 2964TIP3   OH2 8855   3.429   1.816   5.631
 2964TIP3    H1 8856   3.376   1.784   5.704
 2964TIP3    H2 8857   3.409   1.757   5.559
 2965TIP3   OH2 8858   4.127   1.424   2.344
 2965TIP3    H1 8859   4.152   1.446   2.254
 2965TIP3    H2 8860   4.135   1.328   2.348
 2966TIP3   OH2 8861   1.148   1.777   0.572
 2966TIP3    H1 8862   1.173   1.687   0.590
 2966TIP3    H2 8863   1.199   1.829   0.634
 2967TIP3   OH2 8864   5.528   0.390   4.992
 2967TIP3    H1 8865   5.481   0.447   4.931
 2967TIP3    H2 8866   5.502   0.421   5.079
 2968TIP3   OH2 8867   2.790   3.340   3.195
 2968TIP3    H1 8868   2.812   3.272   3.131
 2968TIP3    H2 8869   2.874   3.363   3.236
 2969TIP3   OH2 8870   6.249   2.387   3.025
 2969TIP3    H1 8871   6.307   2.312   3.033
 2969TIP3    H2 8872   6.234   2.396   2.930
 2970TIP3   OH2 8873   0.629   4.457   4.293
 2970TIP3    H1 8874   0.584   4.531   4.335
 2970TIP3    H2 8875   0.668   4.495   4.214
 2971TIP3   OH2 8876   7.139   4.963   0.321
 2971TIP3    H1 8877   7.110   5.000   0.237
 2971TIP3    H2 8878   7.061   4.966   0.376
 2972TIP3   OH2 8879   1.797   5.889   1.729
 2972TIP3    H1 8880   1.854   5.927   1.662
 2972TIP3    H2 8881   1.714   5.874   1.683
 2973TIP3   OH2 8882   1.815   3.031   4.559
 2973TIP3    H1 8883   1.865   3.107   4.530
 2973TIP3    H2 8884   1.867   2.956   4.530
 2974TIP3   OH2 8885   4.226   2.869   3.487
 2974TIP3    H1 8886   4.295   2.807   3.513
 2974TIP3    H2 8887   4.200   2.911   3.569
 2975TIP3   OH2 8888   2.435   6.500   0.293
 2975TIP3    H1 8889   2.505   6.456   0.340
 2975TIP3    H2 8890   2.358   6.444   0.305
 2976TIP3   OH2 8891   2.194   4.658   0.452
 2976TIP3    H1 8892   2.139   4.621   0.521
 2976TIP3    H2 8893   2.229   4.739   0.489
 2977TIP3   OH2 8894   2.090   5.834   4.504
 2977TIP3    H1 8895   2.150   5.846   4.431
 2977TIP3    H2 8896   2.003   5.844   4.466
 2978TIP3   OH2 8897   6.063   6.063   0.747
 2978TIP3    H1 8898   6.010   6.079   0.825
 2978TIP3    H2 8899   6.153   6.063   0.778
 2979TIP3   OH2 8900   0.029   5.374   3.245
 2979TIP3    H1 8901   0.037   5.460   3.203
 2979TIP3    H2 8902   0.082   5.381   3.324
 2980TIP3   OH2 8903   6.559   4.720   2.559
 2980TIP3    H1 8904   6.603   4.714   2.644
 2980TIP3    H2 8905   6.547   4.629   2.533
 2981TIP3   OH2 8906   7.267   4.271   4.835
 2981TIP3    H1 8907   7.246   4.239   4.747
 2981TIP3    H2 8908   7.187   4.256   4.885
 2982TIP3   OH2 8909  -0.021   6.338   4.487
 2982TIP3    H1 8910  -0.078   6.331   4.411
 2982TIP3    H2 8911   0.061   6.298   4.459
 2983TIP3   OH2 8912   7.063   0.729   1.823
 2983TIP3    H1 8913   7.137   0.788   1.840
 2983TIP3    H2 8914   7.070   0.707   1.730
 2984TIP3   OH2 8915   5.165   4.784   3.132
 2984TIP3    H1 8916   5.099   4.717   3.114
 2984TIP3    H2 8917   5.143   4.856   3.072
 2985TIP3   OH2 8918   4.006   6.774   1.317
 2985TIP3    H1 8919   3.976   6.789   1.228
 2985TIP3    H2 8920   4.101   6.786   1.313
 2986TIP3   OH2 8921   0.261   1.764   0.602
 2986TIP3    H1 8922   0.325   1.739   0.535
 2986TIP3    H2 8923   0.194   1.697   0.598
 2987TIP3   OH2 8924   0.085   0.110   3.497
 2987TIP3    H1 8925   0.001   0.154   3.506
 2987TIP3    H2 8926   0.081   0.068   3.411
 2988TIP3   OH2 8927   3.659   3.424   5.895
 2988TIP3    H1 8928   3.740   3.474   5.881
 2988TIP3    H2 8929   3.675   3.340   5.852
 2989TIP3   OH2 8930   3.636   6.709   3.069
 2989TIP3    H1 8931   3.675   6.732   3.153
 2989TIP3    H2 8932   3.712   6.693   3.012
 2990TIP3   OH2 8933   1.761   1.490   2.961
 2990TIP3    H1 8934   1.680   1.444   2.986
 2990TIP3    H2 8935   1.819   1.420   2.930
 2991TIP3   OH2 8936   0.742   3.947   4.733
 2991TIP3    H1 8937   0.772   3.856   4.730
 2991TIP3    H2 8938   0.684   3.956   4.658
 2992TIP3   OH2 8939   6.639   5.423   5.381
 2992TIP3    H1 8940   6.671   5.477   5.308
 2992TIP3    H2 8941   6.652   5.333   5.351
 2993TIP3   OH2 8942   4.853   2.599   3.037
 2993TIP3    H1 8943   4.780   2.655   3.011
 2993TIP3    H2 8944   4.830   2.568   3.125
 2994TIP3   OH2 8945   4.567   5.581   2.981
 2994TIP3    H1 8946   4.558   5.485   2.985
 2994TIP3    H2 8947   4.490   5.614   3.027
 2995TIP3   OH2 8948   1.982   1.764   3.747
 2995TIP3    H1 8949   2.053   1.785   3.685
 2995TIP3    H2 8950   1.906   1.750   3.691
 2996TIP3   OH2 8951   1.705   0.706   2.986
 2996TIP3    H1 8952   1.714   0.645   2.913
 2996TIP3    H2 8953   1.615   0.739   2.977
 2997TIP3   OH2 8954   2.479   5.700   5.511
 2997TIP3    H1 8955   2.510   5.771   5.568
 2997TIP3    H2 8956   2.385   5.716   5.503
 2998TIP3   OH2 8957   2.658   1.328   2.742
 2998TIP3    H1 8958   2.712   1.366   2.673
 2998TIP3    H2 8959   2.632   1.403   2.796
 2999TIP3   OH2 8960   1.495   1.966   2.806
 2999TIP3    H1 8961   1.588   1.949   2.822
 2999TIP3    H2 8962   1.464   1.889   2.760
 3000TIP3   OH2 8963   5.214   3.493   3.495
 3000TIP3    H1 8964   5.221   3.552   3.570
 3000TIP3    H2 8965   5.186   3.549   3.423
 3001TIP3   OH2 8966   5.540   1.345   1.380
 3001TIP3    H1 8967   5.494   1.430   1.384
 3001TIP3    H2 8968   5.592   1.342   1.460
 3002TIP3   OH2 8969   3.732   1.846   3.430
 3002TIP3    H1 8970   3.728   1.764   3.479
 3002TIP3    H2 8971   3.801   1.832   3.365
 3003TIP3   OH2 8972   5.656   3.422   4.773
 3003TIP3    H1 8973   5.695   3.499   4.816
 3003TIP3    H2 8974   5.602   3.458   4.703
 3004TIP3   OH2 8975   2.266   3.873   3.639
 3004TIP3    H1 8976   2.215   3.934   3.585
 3004TIP3    H2 8977   2.259   3.909   3.728
 3005TIP3   OH2 8978   7.157   2.286   5.124
 3005TIP3    H1 8979   7.222   2.220   5.099
 3005TIP3    H2 8980   7.206   2.369   5.125
 3006TIP3   OH2 8981   5.903   4.793   2.746
 3006TIP3    H1 8982   5.837   4.756   2.688
 3006TIP3    H2 8983   5.928   4.719   2.803
 3007TIP3   OH2 8984   3.662   3.179   5.754
 3007TIP3    H1 8985   3.587   3.121   5.740
 3007TIP3    H2 8986   3.704   3.145   5.833
 3008TIP3   OH2 8987   1.040   1.892   1.848
 3008TIP3    H1 8988   1.071   1.954   1.914
 3008TIP3    H2 8989   0.978   1.836   1.896
 3009TIP3   OH2 8990   3.298   0.060   0.522
 3009TIP3    H1 8991   3.279   0.135   0.466
 3009TIP3    H2 8992   3.217   0.044   0.570
 3010TIP3   OH2 8993   6.549   5.644   5.851
 3010TIP3    H1 8994   6.555   5.657   5.757
 3010TIP3    H2 8995   6.548   5.549   5.863
 3011TIP3   OH2 8996   4.534   6.388   1.831
 3011TIP3    H1 8997   4.564   6.479   1.821
 3011TIP3    H2 8998   4.439   6.394   1.825
 3012TIP3   OH2 8999   6.762   2.436   1.563
 3012TIP3    H1 9000   6.742   2.358   1.614
 3012TIP3    H2 9001   6.844   2.469   1.601
 3013TIP3   OH2 9002   3.408   0.834   5.848
 3013TIP3    H1 9003   3.414   0.773   5.921
 3013TIP3    H2 9004   3.464   0.907   5.873
 3014TIP3   OH2 9005   5.974   2.378   4.680
 3014TIP3    H1 9006   5.938   2.466   4.681
 3014TIP3    H2 9007   6.053   2.384   4.732
 3015TIP3   OH2 9008   0.825   6.542   5.178
 3015TIP3    H1 9009   0.776   6.497   5.109
 3015TIP3    H2 9010   0.773   6.529   5.257
 3016TIP3   OH2 9011   0.644   6.199   0.800
 3016TIP3    H1 9012   0.706   6.249   0.747
 3016TIP3    H2 9013   0.558   6.227   0.769
 3017TIP3   OH2 9014   5.941   2.836   5.136
 3017TIP3    H1 9015   6.021   2.861   5.092
 3017TIP3    H2 9016   5.949   2.873   5.224
 3018TIP3   OH2 9017   3.979   5.283   5.648
 3018TIP3    H1 9018   4.057   5.312   5.695
 3018TIP3    H2 9019   3.919   5.254   5.717
 3019TIP3   OH2 9020   6.177   5.296   4.435
 3019TIP3    H1 9021   6.110   5.364   4.428
 3019TIP3    H2 9022   6.145   5.238   4.504
 3020TIP3   OH2 9023  -0.074   6.499   3.086
 3020TIP3    H1 9024  -0.083   6.570   3.151
 3020TIP3    H2 9025  -0.006   6.443   3.123
 3021TIP3   OH2 9026   3.190   0.112   5.090
 3021TIP3    H1 9027   3.147   0.030   5.113
 3021TIP3    H2 9028   3.284   0.091   5.092
 3022TIP3   OH2 9029   4.983   4.750   4.495
 3022TIP3    H1 9030   5.051   4.768   4.430
 3022TIP3    H2 9031   4.994   4.817   4.561
 3023TIP3   OH2 9032   6.969   6.299   4.296
 3023TIP3    H1 9033   6.930   6.386   4.305
 3023TIP3    H2 9034   6.982   6.288   4.202
 3024TIP3   OH2 9035   1.098   2.929   4.738
 3024TIP3    H1 9036   1.013   2.962   4.767
 3024TIP3    H2 9037   1.160   2.958   4.805
 3025TIP3   OH2 9038   6.207   1.903   3.943
 3025TIP3    H1 9039   6.142   1.964   3.907
 3025TIP3    H2 9040   6.158   1.823   3.959
 3026TIP3   OH2 9041   2.339   5.624   1.493
 3026TIP3    H1 9042   2.281   5.559   1.533
 3026TIP3    H2 9043   2.286   5.703   1.489
 3027TIP3   OH2 9044   6.899   0.912   0.782
 3027TIP3    H1 9045   6.843   0.985   0.808
 3027TIP3    H2 9046   6.988   0.943   0.800
 3028TIP3   OH2 9047   4.660   4.830   2.246
 3028TIP3    H1 9048   4.653   4.736   2.229
 3028TIP3    H2 9049   4.714   4.836   2.324
 3029TIP3   OH2 9050   5.033   3.081   2.646
 3029TIP3    H1 9051   5.115   3.060   2.601
 3029TIP3    H2 9052   5.060   3.127   2.725
 3030TIP3   OH2 9053   1.689   1.723   4.970
 3030TIP3    H1 9054   1.699   1.651   4.907
 3030TIP3    H2 9055   1.660   1.797   4.917
 3031TIP3   OH2 9056   2.635   1.103   3.724
 3031TIP3    H1 9057   2.626   1.146   3.639
 3031TIP3    H2 9058   2.700   1.156   3.770
 3032TIP3   OH2 9059   6.360   0.001   4.191
 3032TIP3    H1 9060   6.406   0.084   4.207
 3032TIP3    H2 9061   6.406  -0.038   4.117
 3033TIP3   OH2 9062   1.699   6.211   2.363
 3033TIP3    H1 9063   1.644   6.177   2.292
 3033TIP3    H2 9064   1.720   6.133   2.415
 3034TIP3   OH2 9065   5.137   1.126   1.166
 3034TIP3    H1 9066   5.196   1.111   1.240
 3034TIP3    H2 9067   5.178   1.197   1.117
 3035TIP3   OH2 9068   4.238   6.183   4.000
 3035TIP3    H1 9069   4.222   6.155   3.910
 3035TIP3    H2 9070   4.268   6.104   4.045
 3036TIP3   OH2 9071   6.590   0.915   0.680
 3036TIP3    H1 9072   6.660   0.898   0.616
 3036TIP3    H2 9073   6.513   0.935   0.626
 3037TIP3   OH2 9074   3.611   6.285   3.142
 3037TIP3    H1 9075   3.553   6.296   3.217
 3037TIP3    H2 9076   3.563   6.326   3.069
 3038TIP3   OH2 9077   4.074   5.662   1.528
 3038TIP3    H1 9078   4.157   5.634   1.490
 3038TIP3    H2 9079   4.052   5.593   1.591
 3039TIP3   OH2 9080   4.527   6.429   0.196
 3039TIP3    H1 9081   4.477   6.444   0.116
 3039TIP3    H2 9082   4.496   6.496   0.257
 3040TIP3   OH2 9083   2.674   1.202   4.653
 3040TIP3    H1 9084   2.709   1.140   4.717
 3040TIP3    H2 9085   2.675   1.286   4.699
 3041TIP3   OH2 9086   2.187   0.668   4.551
 3041TIP3    H1 9087   2.188   0.579   4.515
 3041TIP3    H2 9088   2.099   0.678   4.587
 3042TIP3   OH2 9089   0.555   3.490   5.451
 3042TIP3    H1 9090   0.461   3.504   5.441
 3042TIP3    H2 9091   0.565   3.458   5.541
 3043TIP3   OH2 9092   7.045   6.332   3.367
 3043TIP3    H1 9093   7.024   6.412   3.319
 3043TIP3    H2 9094   7.095   6.361   3.442
 3044TIP3   OH2 9095   2.802   5.154   0.159
 3044TIP3    H1 9096   2.838   5.065   0.160
 3044TIP3    H2 9097   2.788   5.173   0.066
 3045TIP3   OH2 9098   6.359   2.912   3.298
 3045TIP3    H1 9099   6.384   2.908   3.205
 3045TIP3    H2 9100   6.386   2.827   3.333
 3046TIP3   OH2 9101   1.469   3.026   1.672
 3046TIP3    H1 9102   1.455   2.934   1.649
 3046TIP3    H2 9103   1.404   3.043   1.740
 3047TIP3   OH2 9104   0.951   4.648   0.975
 3047TIP3    H1 9105   0.986   4.576   1.028
 3047TIP3    H2 9106   0.892   4.694   1.034
 3048TIP3   OH2 9107   2.271   3.460   0.995
 3048TIP3    H1 9108   2.312   3.375   0.977
 3048TIP3    H2 9109   2.269   3.466   1.091
 3049TIP3   OH2 9110   2.008   4.301   2.116
 3049TIP3    H1 9111   1.923   4.286   2.075
 3049TIP3    H2 9112   1.987   4.338   2.202
 3050TIP3   OH2 9113   0.310   4.390   1.554
 3050TIP3    H1 9114   0.276   4.378   1.465
 3050TIP3    H2 9115   0.387   4.333   1.557
 3051TIP3   OH2 9116   2.879   3.598   2.087
 3051TIP3    H1 9117   2.968   3.586   2.054
 3051TIP3    H2 9118   2.885   3.673   2.146
 3052TIP3   OH2 9119   5.654   4.985   1.220
 3052TIP3    H1 9120   5.612   4.912   1.174
 3052TIP3    H2 9121   5.738   4.996   1.176
 3053TIP3   OH2 9122   4.687   4.661   0.605
 3053TIP3    H1 9123   4.607   4.654   0.656
 3053TIP3    H2 9124   4.756   4.672   0.669
 3054TIP3   OH2 9125   2.629   4.140   3.198
 3054TIP3    H1 9126   2.583   4.224   3.201
 3054TIP3    H2 9127   2.571   4.082   3.148
 3055TIP3   OH2 9128   4.770   5.981   1.597
 3055TIP3    H1 9129   4.674   5.977   1.605
 3055TIP3    H2 9130   4.799   6.023   1.677
 3056TIP3   OH2 9131   5.181   6.793   2.379
 3056TIP3    H1 9132   5.102   6.746   2.352
 3056TIP3    H2 9133   5.246   6.724   2.392
 3057TIP3   OH2 9134   2.068   4.054   0.069
 3057TIP3    H1 9135   2.136   4.103   0.115
 3057TIP3    H2 9136   1.999   4.118   0.052
 3058TIP3   OH2 9137   5.232   3.353   0.380
 3058TIP3    H1 9138   5.229   3.399   0.464
 3058TIP3    H2 9139   5.314   3.303   0.383
 3059TIP3   OH2 9140   5.009   0.872   5.760
 3059TIP3    H1 9141   5.077   0.806   5.772
 3059TIP3    H2 9142   4.927   0.825   5.770
 3060TIP3   OH2 9143   2.044   6.483   3.031
 3060TIP3    H1 9144   2.124   6.436   3.054
 3060TIP3    H2 9145   1.991   6.481   3.110
 3061TIP3   OH2 9146   5.964   3.998   1.610
 3061TIP3    H1 9147   5.969   3.993   1.705
 3061TIP3    H2 9148   5.893   3.938   1.586
 3062TIP3   OH2 9149   3.523   4.658   2.108
 3062TIP3    H1 9150   3.439   4.617   2.086
 3062TIP3    H2 9151   3.536   4.637   2.200
 3063TIP3   OH2 9152   3.961   0.513   4.642
 3063TIP3    H1 9153   3.986   0.555   4.560
 3063TIP3    H2 9154   3.921   0.430   4.614
 3064TIP3   OH2 9155   5.796   4.610   4.059
 3064TIP3    H1 9156   5.812   4.696   4.020
 3064TIP3    H2 9157   5.777   4.629   4.151
 3065TIP3   OH2 9158   1.155   2.703   4.603
 3065TIP3    H1 9159   1.247   2.680   4.613
 3065TIP3    H2 9160   1.146   2.786   4.649
 3066TIP3   OH2 9161   0.941   1.042   5.368
 3066TIP3    H1 9162   0.924   1.084   5.284
 3066TIP3    H2 9163   1.001   1.101   5.413
 3067TIP3   OH2 9164   0.341   3.289   5.349
 3067TIP3    H1 9165   0.419   3.295   5.404
 3067TIP3    H2 9166   0.268   3.289   5.411
 3068TIP3   OH2 9167   3.618   3.381   0.694
 3068TIP3    H1 9168   3.569   3.448   0.741
 3068TIP3    H2 9169   3.552   3.316   0.670
 3069TIP3   OH2 9170   5.044   6.077   0.994
 3069TIP3    H1 9171   5.024   6.149   1.054
 3069TIP3    H2 9172   4.996   6.002   1.029
 3070TIP3   OH2 9173   4.340   4.208   0.718
 3070TIP3    H1 9174   4.358   4.188   0.627
 3070TIP3    H2 9175   4.263   4.264   0.715
 3071TIP3   OH2 9176   1.726   5.625   3.050
 3071TIP3    H1 9177   1.743   5.597   2.960
 3071TIP3    H2 9178   1.742   5.546   3.102
 3072TIP3   OH2 9179   6.316   6.624   1.088
 3072TIP3    H1 9180   6.265   6.647   1.165
 3072TIP3    H2 9181   6.399   6.591   1.122
 3073TIP3   OH2 9182   5.030   2.215   4.060
 3073TIP3    H1 9183   5.053   2.283   4.123
 3073TIP3    H2 9184   5.078   2.238   3.980
 3074TIP3   OH2 9185   0.465   4.340   0.717
 3074TIP3    H1 9186   0.389   4.388   0.685
 3074TIP3    H2 9187   0.530   4.407   0.736
 3075TIP3   OH2 9188   4.586   2.792   2.537
 3075TIP3    H1 9189   4.624   2.712   2.573
 3075TIP3    H2 9190   4.661   2.841   2.503
 3076TIP3   OH2 9191   3.926   4.490   0.187
 3076TIP3    H1 9192   3.891   4.443   0.111
 3076TIP3    H2 9193   4.020   4.473   0.183
 3077TIP3   OH2 9194   3.598   6.125   2.269
 3077TIP3    H1 9195   3.512   6.167   2.271
 3077TIP3    H2 9196   3.657   6.192   2.234
 3078TIP3   OH2 9197   3.208   5.213   1.025
 3078TIP3    H1 9198   3.182   5.243   1.113
 3078TIP3    H2 9199   3.134   5.238   0.969
 3079TIP3   OH2 9200   0.842   2.663   3.122
 3079TIP3    H1 9201   0.857   2.737   3.064
 3079TIP3    H2 9202   0.907   2.598   3.096
 3080TIP3   OH2 9203   6.239   1.138   2.155
 3080TIP3    H1 9204   6.245   1.191   2.235
 3080TIP3    H2 9205   6.169   1.076   2.174
 3081TIP3   OH2 9206   0.590   2.318   2.792
 3081TIP3    H1 9207   0.667   2.370   2.817
 3081TIP3    H2 9208   0.561   2.279   2.875
 3082TIP3   OH2 9209   3.897   4.802   3.081
 3082TIP3    H1 9210   3.853   4.871   3.132
 3082TIP3    H2 9211   3.894   4.725   3.138
 3083TIP3   OH2 9212   1.494   4.054   4.599
 3083TIP3    H1 9213   1.502   3.961   4.618
 3083TIP3    H2 9214   1.418   4.060   4.542
 3084TIP3   OH2 9215   6.535   5.414   2.921
 3084TIP3    H1 9216   6.500   5.498   2.891
 3084TIP3    H2 9217   6.601   5.392   2.855
 3085TIP3   OH2 9218   2.920   6.421   0.791
 3085TIP3    H1 9219   2.978   6.437   0.866
 3085TIP3    H2 9220   2.954   6.342   0.750
 3086TIP3   OH2 9221   3.140   5.465   3.752
 3086TIP3    H1 9222   3.065   5.514   3.786
 3086TIP3    H2 9223   3.199   5.532   3.718
 3087TIP3   OH2 9224   1.445   4.241   0.115
 3087TIP3    H1 9225   1.415   4.330   0.133
 3087TIP3    H2 9226   1.530   4.236   0.159
 3088TIP3   OH2 9227   5.873   0.193   4.709
 3088TIP3    H1 9228   5.836   0.278   4.688
 3088TIP3    H2 9229   5.887   0.195   4.804
 3089TIP3   OH2 9230   3.125   1.706   4.650
 3089TIP3    H1 9231   3.129   1.630   4.592
 3089TIP3    H2 9232   3.129   1.670   4.738
 3090TIP3   OH2 9233   2.342   1.070   1.460
 3090TIP3    H1 9234   2.414   1.124   1.495
 3090TIP3    H2 9235   2.284   1.056   1.535
 3091TIP3   OH2 9236   5.136   0.361   2.313
 3091TIP3    H1 9237   5.043   0.382   2.323
 3091TIP3    H2 9238   5.140   0.309   2.233
 3092TIP3   OH2 9239   6.943   3.994   0.407
 3092TIP3    H1 9240   6.970   3.917   0.357
 3092TIP3    H2 9241   7.017   4.013   0.465
 3093TIP3   OH2 9242   2.187   6.683   2.806
 3093TIP3    H1 9243   2.160   6.765   2.847
 3093TIP3    H2 9244   2.184   6.618   2.877
 3094TIP3   OH2 9245   5.646   6.265   5.178
 3094TIP3    H1 9246   5.605   6.337   5.129
 3094TIP3    H2 9247   5.573   6.211   5.207
 3095TIP3   OH2 9248   4.302   5.592   2.437
 3095TIP3    H1 9249   4.385   5.637   2.423
 3095TIP3    H2 9250   4.259   5.642   2.507
 3096TIP3   OH2 9251   1.277   5.358   4.892
 3096TIP3    H1 9252   1.336   5.320   4.826
 3096TIP3    H2 9253   1.275   5.293   4.962
 3097TIP3   OH2 9254   4.189   6.051   5.561
 3097TIP3    H1 9255   4.110   6.003   5.583
 3097TIP3    H2 9256   4.171   6.141   5.588
 3098TIP3   OH2 9257   0.774   2.108   4.777
 3098TIP3    H1 9258   0.835   2.036   4.789
 3098TIP3    H2 9259   0.770   2.151   4.863
 3099TIP3   OH2 9260   2.281   0.812   2.961
 3099TIP3    H1 9261   2.272   0.898   3.004
 3099TIP3    H2 9262   2.267   0.749   3.032
 3100TIP3   OH2 9263   3.035   6.713   0.228
 3100TIP3    H1 9264   3.129   6.706   0.212
 3100TIP3    H2 9265   3.011   6.631   0.270
 3101TIP3   OH2 9266   2.057   5.375   4.033
 3101TIP3    H1 9267   2.153   5.380   4.039
 3101TIP3    H2 9268   2.028   5.365   4.123
 3102TIP3   OH2 9269   2.103   1.335   2.536
 3102TIP3    H1 9270   2.077   1.427   2.539
 3102TIP3    H2 9271   2.049   1.296   2.467
 3103TIP3   OH2 9272   2.324   2.945   0.679
 3103TIP3    H1 9273   2.386   2.886   0.636
 3103TIP3    H2 9274   2.305   2.903   0.763
 3104TIP3   OH2 9275   0.250   1.566   4.255
 3104TIP3    H1 9276   0.303   1.617   4.317
 3104TIP3    H2 9277   0.178   1.532   4.308
 3105TIP3   OH2 9278   0.517   5.054   4.343
 3105TIP3    H1 9279   0.538   5.140   4.307
 3105TIP3    H2 9280   0.445   5.022   4.289
 3106TIP3   OH2 9281   2.083   2.635   3.615
 3106TIP3    H1 9282   2.117   2.673   3.533
 3106TIP3    H2 9283   2.101   2.541   3.607
 3107TIP3   OH2 9284   1.110   6.241   1.158
 3107TIP3    H1 9285   1.033   6.284   1.120
 3107TIP3    H2 9286   1.177   6.247   1.090
 3108TIP3   OH2 9287   3.557   4.570   1.425
 3108TIP3    H1 9288   3.519   4.520   1.498
 3108TIP3    H2 9289   3.564   4.659   1.459
 3109TIP3   OH2 9290   6.547   6.245   0.093
 3109TIP3    H1 9291   6.470   6.279   0.139
 3109TIP3    H2 9292   6.621   6.290   0.133
 3110TIP3   OH2 9293   4.075   5.280   3.841
 3110TIP3    H1 9294   4.082   5.360   3.894
 3110TIP3    H2 9295   3.989   5.287   3.799
 3111TIP3   OH2 9296   4.850   4.584   5.758
 3111TIP3    H1 9297   4.782   4.637   5.800
 3111TIP3    H2 9298   4.879   4.638   5.684
 3112TIP3   OH2 9299   0.572   3.587   1.154
 3112TIP3    H1 9300   0.603   3.522   1.217
 3112TIP3    H2 9301   0.623   3.570   1.075
 3113TIP3   OH2 9302   0.081   0.685   0.731
 3113TIP3    H1 9303   0.031   0.662   0.653
 3113TIP3    H2 9304   0.050   0.623   0.798
 3114TIP3   OH2 9305   5.608   2.438   4.617
 3114TIP3    H1 9306   5.536   2.486   4.657
 3114TIP3    H2 9307   5.657   2.403   4.691
 3115TIP3   OH2 9308   3.311   4.658   4.772
 3115TIP3    H1 9309   3.248   4.589   4.750
 3115TIP3    H2 9310   3.346   4.687   4.688
 3116TIP3   OH2 9311   6.693   3.004   2.000
 3116TIP3    H1 9312   6.650   3.040   2.077
 3116TIP3    H2 9313   6.733   2.923   2.030
 3117TIP3   OH2 9314   6.141   1.138   0.514
 3117TIP3    H1 9315   6.228   1.099   0.509
 3117TIP3    H2 9316   6.124   1.170   0.425
 3118TIP3   OH2 9317   7.151   3.467   4.542
 3118TIP3    H1 9318   7.214   3.436   4.607
 3118TIP3    H2 9319   7.201   3.470   4.460
 3119TIP3   OH2 9320   6.077   1.647   3.984
 3119TIP3    H1 9321   5.984   1.627   3.996
 3119TIP3    H2 9322   6.119   1.561   3.976
 3120TIP3   OH2 9323   3.612   5.284   2.190
 3120TIP3    H1 9324   3.526   5.247   2.210
 3120TIP3    H2 9325   3.610   5.371   2.231
 3121TIP3   OH2 9326   5.525   3.643   5.643
 3121TIP3    H1 9327   5.605   3.693   5.623
 3121TIP3    H2 9328   5.524   3.573   5.578
 3122TIP3   OH2 9329   3.687   4.173   2.237
 3122TIP3    H1 9330   3.759   4.233   2.256
 3122TIP3    H2 9331   3.620   4.228   2.195
 3123TIP3   OH2 9332   6.707   2.119   4.406
 3123TIP3    H1 9333   6.740   2.134   4.495
 3123TIP3    H2 9334   6.714   2.025   4.394
 3124TIP3   OH2 9335   0.444   1.148   3.412
 3124TIP3    H1 9336   0.492   1.153   3.329
 3124TIP3    H2 9337   0.352   1.142   3.386
 3125TIP3   OH2 9338   4.653   0.886   0.303
 3125TIP3    H1 9339   4.653   0.791   0.318
 3125TIP3    H2 9340   4.745   0.910   0.300
 3126TIP3   OH2 9341   5.174   0.922   3.667
 3126TIP3    H1 9342   5.207   0.837   3.638
 3126TIP3    H2 9343   5.082   0.906   3.688
 3127TIP3   OH2 9344   6.979   0.460   1.221
 3127TIP3    H1 9345   6.922   0.528   1.184
 3127TIP3    H2 9346   6.922   0.383   1.226
 3128TIP3   OH2 9347   1.004   3.543   4.661
 3128TIP3    H1 9348   1.095   3.560   4.634
 3128TIP3    H2 9349   0.981   3.462   4.615
 3129TIP3   OH2 9350   3.184   5.045   0.363
 3129TIP3    H1 9351   3.209   4.954   0.379
 3129TIP3    H2 9352   3.120   5.065   0.431
 3130TIP3   OH2 9353   2.776   3.019   3.940
 3130TIP3    H1 9354   2.872   3.029   3.938
 3130TIP3    H2 9355   2.747   3.080   4.008
 3131TIP3   OH2 9356   3.569   5.675   3.179
 3131TIP3    H1 9357   3.588   5.714   3.094
 3131TIP3    H2 9358   3.520   5.596   3.159
 3132TIP3   OH2 9359   3.344   2.104   2.575
 3132TIP3    H1 9360   3.430   2.088   2.614
 3132TIP3    H2 9361   3.346   2.195   2.546
 3133TIP3   OH2 9362   0.094   2.112   4.977
 3133TIP3    H1 9363   0.084   2.040   4.915
 3133TIP3    H2 9364   0.084   2.191   4.925
 3134TIP3   OH2 9365   0.218   0.358   4.125
 3134TIP3    H1 9366   0.199   0.424   4.191
 3134TIP3    H2 9367   0.145   0.297   4.130
 3135TIP3   OH2 9368   2.821   3.388   0.667
 3135TIP3    H1 9369   2.855   3.433   0.745
 3135TIP3    H2 9370   2.860   3.434   0.594
 3136TIP3   OH2 9371   3.146   1.474   4.492
 3136TIP3    H1 9372   3.068   1.425   4.517
 3136TIP3    H2 9373   3.118   1.527   4.418
 3137TIP3   OH2 9374   1.165   5.926   1.829
 3137TIP3    H1 9375   1.133   5.914   1.740
 3137TIP3    H2 9376   1.104   5.989   1.868
 3138TIP3   OH2 9377   0.305   5.544   2.573
 3138TIP3    H1 9378   0.295   5.449   2.582
 3138TIP3    H2 9379   0.349   5.571   2.654
 3139TIP3   OH2 9380   0.195   4.098   4.265
 3139TIP3    H1 9381   0.277   4.146   4.257
 3139TIP3    H2 9382   0.221   4.007   4.280
 3140TIP3   OH2 9383   4.978   5.461   3.369
 3140TIP3    H1 9384   4.902   5.446   3.426
 3140TIP3    H2 9385   4.964   5.401   3.295
 3141TIP3   OH2 9386   6.955   1.487   2.101
 3141TIP3    H1 9387   6.976   1.535   2.182
 3141TIP3    H2 9388   6.860   1.475   2.105
 3142TIP3   OH2 9389   2.406   4.915   4.637
 3142TIP3    H1 9390   2.489   4.913   4.686
 3142TIP3    H2 9391   2.358   4.989   4.676
 3143TIP3   OH2 9392   7.184   0.654   3.610
 3143TIP3    H1 9393   7.124   0.711   3.658
 3143TIP3    H2 9394   7.201   0.700   3.529
 3144TIP3   OH2 9395   1.411   1.096   3.764
 3144TIP3    H1 9396   1.397   1.163   3.830
 3144TIP3    H2 9397   1.338   1.036   3.774
 3145TIP3   OH2 9398   0.306   0.661   2.504
 3145TIP3    H1 9399   0.367   0.658   2.577
 3145TIP3    H2 9400   0.284   0.570   2.486
 3146TIP3   OH2 9401   4.817   1.653   0.726
 3146TIP3    H1 9402   4.727   1.680   0.711
 3146TIP3    H2 9403   4.810   1.562   0.756
 3147TIP3   OH2 9404   0.316   2.597   2.035
 3147TIP3    H1 9405   0.358   2.631   2.114
 3147TIP3    H2 9406   0.371   2.629   1.963
 3148TIP3   OH2 9407   0.942   5.098   4.579
 3148TIP3    H1 9408   0.956   5.175   4.634
 3148TIP3    H2 9409   0.942   5.133   4.489
 3149TIP3   OH2 9410   3.441   4.224   0.652
 3149TIP3    H1 9411   3.487   4.259   0.576
 3149TIP3    H2 9412   3.505   4.170   0.697
 3150TIP3   OH2 9413   5.612   1.357   1.643
 3150TIP3    H1 9414   5.558   1.289   1.682
 3150TIP3    H2 9415   5.694   1.353   1.692
 3151TIP3   OH2 9416   5.573   6.117   5.926
 3151TIP3    H1 9417   5.518   6.138   5.850
 3151TIP3    H2 9418   5.602   6.203   5.958
 3152TIP3   OH2 9419   5.002   4.251   3.107
 3152TIP3    H1 9420   4.915   4.228   3.138
 3152TIP3    H2 9421   4.993   4.254   3.011
 3153TIP3   OH2 9422   0.388   6.677   1.067
 3153TIP3    H1 9423   0.418   6.739   1.000
 3153TIP3    H2 9424   0.444   6.600   1.056
 3154TIP3   OH2 9425   6.549   3.897   2.176
 3154TIP3    H1 9426   6.603   3.977   2.172
 3154TIP3    H2 9427   6.494   3.901   2.099
 3155TIP3   OH2 9428   2.448   6.123   5.825
 3155TIP3    H1 9429   2.541   6.100   5.816
 3155TIP3    H2 9430   2.430   6.180   5.750
 3156TIP3   OH2 9431   6.381   4.866   2.265
 3156TIP3    H1 9432   6.401   4.891   2.355
 3156TIP3    H2 9433   6.294   4.829   2.269
 3157TIP3   OH2 9434   1.849   0.344   0.600
 3157TIP3    H1 9435   1.798   0.374   0.525
 3157TIP3    H2 9436   1.814   0.257   0.619
 3158TIP3   OH2 9437   6.475   5.871   2.963
 3158TIP3    H1 9438   6.384   5.843   2.964
 3158TIP3    H2 9439   6.476   5.952   3.015
 3159TIP3   OH2 9440   2.058   5.443   3.153
 3159TIP3    H1 9441   2.070   5.530   3.114
 3159TIP3    H2 9442   2.074   5.456   3.247
 3160TIP3   OH2 9443   0.936   4.665   1.684
 3160TIP3    H1 9444   0.997   4.733   1.713
 3160TIP3    H2 9445   0.979   4.583   1.707
 3161TIP3   OH2 9446   6.056   2.158   2.498
 3161TIP3    H1 9447   5.983   2.137   2.557
 3161TIP3    H2 9448   6.083   2.074   2.462
 3162TIP3   OH2 9449   2.318   5.540   5.338
 3162TIP3    H1 9450   2.255   5.495   5.282
 3162TIP3    H2 9451   2.338   5.476   5.407
 3163TIP3   OH2 9452   0.892   1.579   3.967
 3163TIP3    H1 9453   0.797   1.585   3.974
 3163TIP3    H2 9454   0.907   1.499   3.916
 3164TIP3   OH2 9455   0.220   2.914   3.871
 3164TIP3    H1 9456   0.130   2.889   3.852
 3164TIP3    H2 9457   0.216   2.957   3.956
 3165TIP3   OH2 9458   1.660   5.449   2.619
 3165TIP3    H1 9459   1.673   5.484   2.531
 3165TIP3    H2 9460   1.622   5.362   2.604
 3166TIP3   OH2 9461   3.234   1.528   2.318
 3166TIP3    H1 9462   3.208   1.485   2.236
 3166TIP3    H2 9463   3.267   1.613   2.291
 3167TIP3   OH2 9464   3.898   3.634   1.203
 3167TIP3    H1 9465   3.827   3.669   1.150
 3167TIP3    H2 9466   3.924   3.553   1.159
 3168TIP3   OH2 9467   6.657   0.549   3.494
 3168TIP3    H1 9468   6.565   0.573   3.501
 3168TIP3    H2 9469   6.699   0.626   3.454
 3169TIP3   OH2 9470   6.457   5.633   4.622
 3169TIP3    H1 9471   6.491   5.636   4.533
 3169TIP3    H2 9472   6.426   5.543   4.632
 3170TIP3   OH2 9473   6.823   5.984   0.507
 3170TIP3    H1 9474   6.896   5.964   0.564
 3170TIP3    H2 9475   6.790   5.899   0.478
 3171TIP3   OH2 9476   6.393   3.143   1.939
 3171TIP3    H1 9477   6.336   3.161   2.013
 3171TIP3    H2 9478   6.417   3.050   1.949
 3172TIP3   OH2 9479   4.561   3.800   5.729
 3172TIP3    H1 9480   4.493   3.866   5.743
 3172TIP3    H2 9481   4.624   3.842   5.671
 3173TIP3   OH2 9482   2.925   4.799   0.106
 3173TIP3    H1 9483   2.837   4.765   0.123
 3173TIP3    H2 9484   2.945   4.770   0.016
 3174TIP3   OH2 9485   6.879   4.110   4.285
 3174TIP3    H1 9486   6.968   4.077   4.268
 3174TIP3    H2 9487   6.828   4.080   4.211
 3175TIP3   OH2 9488   3.663   1.297   5.693
 3175TIP3    H1 9489   3.750   1.326   5.720
 3175TIP3    H2 9490   3.634   1.363   5.630
 3176TIP3   OH2 9491   6.577   3.387   1.629
 3176TIP3    H1 9492   6.511   3.449   1.598
 3176TIP3    H2 9493   6.533   3.339   1.699
 3177TIP3   OH2 9494   2.118   0.144   4.091
 3177TIP3    H1 9495   2.046   0.128   4.152
 3177TIP3    H2 9496   2.158   0.058   4.078
 3178TIP3   OH2 9497   2.689   0.545   0.101
 3178TIP3    H1 9498   2.708   0.460   0.063
 3178TIP3    H2 9499   2.599   0.537   0.133
 3179TIP3   OH2 9500   1.008   0.245   4.448
 3179TIP3    H1 9501   0.991   0.191   4.371
 3179TIP3    H2 9502   0.961   0.201   4.519
 3180TIP3   OH2 9503   3.840   6.521   1.044
 3180TIP3    H1 9504   3.934   6.534   1.060
 3180TIP3    H2 9505   3.836   6.446   0.985
 3181TIP3   OH2 9506   1.411   6.458   2.557
 3181TIP3    H1 9507   1.342   6.441   2.621
 3181TIP3    H2 9508   1.399   6.550   2.534
 3182TIP3   OH2 9509   2.332   1.444   3.606
 3182TIP3    H1 9510   2.329   1.501   3.529
 3182TIP3    H2 9511   2.245   1.406   3.611
 3183TIP3   OH2 9512   0.473   0.141   4.315
 3183TIP3    H1 9513   0.379   0.122   4.320
 3183TIP3    H2 9514   0.491   0.151   4.222
 3184TIP3   OH2 9515   0.669   0.646   3.131
 3184TIP3    H1 9516   0.704   0.683   3.212
 3184TIP3    H2 9517   0.576   0.668   3.133
 3185TIP3   OH2 9518   4.469   2.564   1.149
 3185TIP3    H1 9519   4.535   2.606   1.093
 3185TIP3    H2 9520   4.453   2.627   1.219
 3186TIP3   OH2 9521   6.039   1.883   2.857
 3186TIP3    H1 9522   5.946   1.863   2.860
 3186TIP3    H2 9523   6.051   1.952   2.922
 3187TIP3   OH2 9524   3.001   4.786   2.782
 3187TIP3    H1 9525   2.972   4.695   2.791
 3187TIP3    H2 9526   3.097   4.780   2.779
 3188TIP3   OH2 9527   0.315   5.862   5.594
 3188TIP3    H1 9528   0.261   5.930   5.554
 3188TIP3    H2 9529   0.273   5.845   5.678
 3189TIP3   OH2 9530   3.276   6.018   4.838
 3189TIP3    H1 9531   3.314   5.939   4.876
 3189TIP3    H2 9532   3.351   6.074   4.817
 3190TIP3   OH2 9533   5.422   5.985   3.520
 3190TIP3    H1 9534   5.471   5.907   3.545
 3190TIP3    H2 9535   5.375   6.010   3.600
 3191TIP3   OH2 9536   6.511   5.998   0.739
 3191TIP3    H1 9537   6.449   6.021   0.809
 3191TIP3    H2 9538   6.589   5.969   0.786
 3192TIP3   OH2 9539   3.193   0.092   2.922
 3192TIP3    H1 9540   3.238   0.110   3.004
 3192TIP3    H2 9541   3.156   0.004   2.933
 3193TIP3   OH2 9542   4.780   4.184   5.060
 3193TIP3    H1 9543   4.691   4.158   5.085
 3193TIP3    H2 9544   4.835   4.154   5.132
 3194TIP3   OH2 9545   4.966   3.681   3.937
 3194TIP3    H1 9546   4.942   3.591   3.914
 3194TIP3    H2 9547   5.022   3.672   4.014
 3195TIP3   OH2 9548   5.284   3.243   1.077
 3195TIP3    H1 9549   5.239   3.288   1.148
 3195TIP3    H2 9550   5.289   3.151   1.106
 3196TIP3   OH2 9551   5.920   3.834   4.433
 3196TIP3    H1 9552   5.978   3.865   4.364
 3196TIP3    H2 9553   5.902   3.743   4.410
 3197TIP3   OH2 9554   5.567   3.876   0.367
 3197TIP3    H1 9555   5.576   3.860   0.273
 3197TIP3    H2 9556   5.647   3.924   0.391
 3198TIP3   OH2 9557   2.286   5.738   0.241
 3198TIP3    H1 9558   2.289   5.780   0.327
 3198TIP3    H2 9559   2.377   5.721   0.219
 3199TIP3   OH2 9560   0.279   3.377   0.946
 3199TIP3    H1 9561   0.209   3.372   1.010
 3199TIP3    H2 9562   0.316   3.465   0.957
 3200TIP3   OH2 9563   0.133   1.071   4.633
 3200TIP3    H1 9564   0.085   1.129   4.692
 3200TIP3    H2 9565   0.068   1.043   4.569
 3201TIP3   OH2 9566   0.565   2.617   5.141
 3201TIP3    H1 9567   0.517   2.600   5.060
 3201TIP3    H2 9568   0.514   2.685   5.185
 3202TIP3   OH2 9569   6.033   4.192   4.600
 3202TIP3    H1 9570   5.963   4.175   4.538
 3202TIP3    H2 9571   6.059   4.105   4.631
 3203TIP3   OH2 9572   5.979   2.921   5.393
 3203TIP3    H1 9573   5.947   2.928   5.483
 3203TIP3    H2 9574   5.992   3.012   5.365
 3204TIP3   OH2 9575   5.706   0.954   1.759
 3204TIP3    H1 9576   5.624   1.003   1.768
 3204TIP3    H2 9577   5.680   0.862   1.755
 3205TIP3   OH2 9578   2.783   3.838   5.349
 3205TIP3    H1 9579   2.822   3.769   5.295
 3205TIP3    H2 9580   2.830   3.833   5.432
 3206TIP3   OH2 9581   5.778   1.160   3.815
 3206TIP3    H1 9582   5.742   1.221   3.750
 3206TIP3    H2 9583   5.733   1.077   3.798
 3207TIP3   OH2 9584   4.152   4.551   0.013
 3207TIP3    H1 9585   4.233   4.590   0.047
 3207TIP3    H2 9586   4.101   4.625  -0.018
 3208TIP3   OH2 9587   4.095   2.115   2.091
 3208TIP3    H1 9588   4.184   2.146   2.072
 3208TIP3    H2 9589   4.076   2.148   2.178
 3209TIP3   OH2 9590   2.327   3.115   0.351
 3209TIP3    H1 9591   2.413   3.085   0.325
 3209TIP3    H2 9592   2.291   3.043   0.403
 3210TIP3   OH2 9593   2.269   2.234   1.461
 3210TIP3    H1 9594   2.331   2.162   1.471
 3210TIP3    H2 9595   2.221   2.214   1.380
 3211TIP3   OH2 9596   1.212   3.472   0.743
 3211TIP3    H1 9597   1.228   3.556   0.787
 3211TIP3    H2 9598   1.204   3.494   0.651
 3212TIP3   OH2 9599   1.634   4.894   1.963
 3212TIP3    H1 9600   1.690   4.829   1.921
 3212TIP3    H2 9601   1.613   4.956   1.892
 3213TIP3   OH2 9602   6.937   2.805   3.902
 3213TIP3    H1 9603   6.895   2.722   3.926
 3213TIP3    H2 9604   7.026   2.780   3.878
 3214TIP3   OH2 9605   0.633   2.112   5.401
 3214TIP3    H1 9606   0.617   2.199   5.439
 3214TIP3    H2 9607   0.640   2.128   5.307
 3215TIP3   OH2 9608   6.388   2.520   5.479
 3215TIP3    H1 9609   6.391   2.442   5.423
 3215TIP3    H2 9610   6.418   2.591   5.422
 3216TIP3   OH2 9611   6.357   2.648   0.100
 3216TIP3    H1 9612   6.358   2.605   0.185
 3216TIP3    H2 9613   6.329   2.738   0.118
 3217TIP3   OH2 9614   3.043   3.838   1.251
 3217TIP3    H1 9615   2.987   3.831   1.328
 3217TIP3    H2 9616   3.099   3.760   1.255
 3218TIP3   OH2 9617   2.238   5.990   3.461
 3218TIP3    H1 9618   2.166   6.053   3.465
 3218TIP3    H2 9619   2.311   6.033   3.506
 3219TIP3   OH2 9620   1.434   5.936   3.359
 3219TIP3    H1 9621   1.435   6.031   3.347
 3219TIP3    H2 9622   1.455   5.924   3.452
 3220TIP3   OH2 9623   0.871   5.177   4.909
 3220TIP3    H1 9624   0.932   5.211   4.844
 3220TIP3    H2 9625   0.825   5.106   4.865
 3221TIP3   OH2 9626   3.261   0.719   3.643
 3221TIP3    H1 9627   3.331   0.654   3.648
 3221TIP3    H2 9628   3.302   0.801   3.672
 3222TIP3   OH2 9629   5.137   4.650   5.102
 3222TIP3    H1 9630   5.227   4.651   5.133
 3222TIP3    H2 9631   5.087   4.690   5.173
 3223TIP3   OH2 9632   2.101   6.616   4.215
 3223TIP3    H1 9633   2.049   6.696   4.204
 3223TIP3    H2 9634   2.100   6.601   4.310
 3224TIP3   OH2 9635   2.215   1.868   0.281
 3224TIP3    H1 9636   2.246   1.858   0.371
 3224TIP3    H2 9637   2.294   1.890   0.231
 3225TIP3   OH2 9638   0.431   2.981   2.592
 3225TIP3    H1 9639   0.343   2.973   2.553
 3225TIP3    H2 9640   0.477   3.041   2.534
 3226TIP3   OH2 9641   2.360   3.495   1.996
 3226TIP3    H1 9642   2.420   3.499   2.071
 3226TIP3    H2 9643   2.414   3.521   1.921
 3227TIP3   OH2 9644   5.925   6.602   2.890
 3227TIP3    H1 9645   5.986   6.582   2.960
 3227TIP3    H2 9646   5.844   6.628   2.934
 3228TIP3   OH2 9647   3.878   1.348   3.894
 3228TIP3    H1 9648   3.840   1.274   3.941
 3228TIP3    H2 9649   3.925   1.308   3.820
 3229TIP3   OH2 9650   0.877   3.025   4.840
 3229TIP3    H1 9651   0.790   2.987   4.827
 3229TIP3    H2 9652   0.867   3.086   4.913
 3230TIP3   OH2 9653   4.444   3.228   0.580
 3230TIP3    H1 9654   4.374   3.292   0.567
 3230TIP3    H2 9655   4.525   3.278   0.576
 3231TIP3   OH2 9656   2.214   3.939   4.160
 3231TIP3    H1 9657   2.145   3.903   4.215
 3231TIP3    H2 9658   2.243   4.018   4.205
 3232TIP3   OH2 9659   6.068   0.877   5.592
 3232TIP3    H1 9660   6.074   0.872   5.497
 3232TIP3    H2 9661   5.975   0.871   5.611
 3233TIP3   OH2 9662   4.161   6.558   3.043
 3233TIP3    H1 9663   4.068   6.536   3.032
 3233TIP3    H2 9664   4.162   6.622   3.114
 3234TIP3   OH2 9665   6.153   5.279   2.766
 3234TIP3    H1 9666   6.108   5.195   2.764
 3234TIP3    H2 9667   6.128   5.319   2.849
 3235TIP3   OH2 9668   2.558   4.490   2.691
 3235TIP3    H1 9669   2.617   4.448   2.753
 3235TIP3    H2 9670   2.605   4.567   2.662
 3236TIP3   OH2 9671   0.808   3.542   2.560
 3236TIP3    H1 9672   0.901   3.543   2.538
 3236TIP3    H2 9673   0.804   3.500   2.646
 3237TIP3   OH2 9674   6.521   4.568   3.804
 3237TIP3    H1 9675   6.573   4.621   3.864
 3237TIP3    H2 9676   6.502   4.488   3.853
 3238TIP3   OH2 9677   1.122   5.503   0.568
 3238TIP3    H1 9678   1.046   5.451   0.541
 3238TIP3    H2 9679   1.152   5.545   0.488
 3239TIP3   OH2 9680   2.069   5.755   1.429
 3239TIP3    H1 9681   2.001   5.815   1.459
 3239TIP3    H2 9682   2.144   5.812   1.409
 3240TIP3   OH2 9683   1.169   1.539   4.128
 3240TIP3    H1 9684   1.156   1.567   4.037
 3240TIP3    H2 9685   1.086   1.499   4.153
 3241TIP3   OH2 9686   0.112   2.575   5.226
 3241TIP3    H1 9687   0.136   2.613   5.142
 3241TIP3    H2 9688   0.021   2.600   5.239
 3242TIP3   OH2 9689   5.573   6.732   1.267
 3242TIP3    H1 9690   5.489   6.758   1.230
 3242TIP3    H2 9691   5.635   6.737   1.194
 3243TIP3   OH2 9692   7.067   3.705   4.743
 3243TIP3    H1 9693   6.976   3.684   4.764
 3243TIP3    H2 9694   7.118   3.642   4.794
 3244TIP3   OH2 9695   1.667   4.249   0.277
 3244TIP3    H1 9696   1.760   4.274   0.267
 3244TIP3    H2 9697   1.664   4.202   0.360
 3245TIP3   OH2 9698   3.911   1.295   4.560
 3245TIP3    H1 9699   3.823   1.301   4.595
 3245TIP3    H2 9700   3.965   1.266   4.633
 3246TIP3   OH2 9701   4.528   4.137   5.171
 3246TIP3    H1 9702   4.461   4.078   5.137
 3246TIP3    H2 9703   4.498   4.160   5.258
 3247TIP3   OH2 9704   1.974   4.901   4.795
 3247TIP3    H1 9705   1.949   4.809   4.786
 3247TIP3    H2 9706   2.046   4.912   4.732
 3248TIP3   OH2 9707   3.494   0.274   2.981
 3248TIP3    H1 9708   3.522   0.289   2.891
 3248TIP3    H2 9709   3.502   0.180   2.994
 3249TIP3   OH2 9710   5.203   4.989   1.728
 3249TIP3    H1 9711   5.156   4.911   1.759
 3249TIP3    H2 9712   5.148   5.062   1.754
 3250TIP3   OH2 9713   1.296   3.446   1.665
 3250TIP3    H1 9714   1.344   3.527   1.649
 3250TIP3    H2 9715   1.291   3.403   1.580
 3251TIP3   OH2 9716   5.320   0.423   4.379
 3251TIP3    H1 9717   5.340   0.475   4.457
 3251TIP3    H2 9718   5.329   0.484   4.306
 3252TIP3   OH2 9719   2.343   4.552   1.049
 3252TIP3    H1 9720   2.360   4.604   0.971
 3252TIP3    H2 9721   2.386   4.600   1.120
 3253TIP3   OH2 9722   3.478   0.835   0.043
 3253TIP3    H1 9723   3.466   0.912   0.099
 3253TIP3    H2 9724   3.501   0.764   0.103
 3254TIP3   OH2 9725   2.452   3.388   5.377
 3254TIP3    H1 9726   2.496   3.468   5.406
 3254TIP3    H2 9727   2.385   3.371   5.443
 3255TIP3   OH2 9728   6.991   3.360   3.848
 3255TIP3    H1 9729   6.996   3.281   3.795
 3255TIP3    H2 9730   6.915   3.347   3.905
 3256TIP3   OH2 9731   1.942   0.902   3.944
 3256TIP3    H1 9732   1.848   0.906   3.964
 3256TIP3    H2 9733   1.960   0.985   3.900
 3257TIP3   OH2 9734   3.367   4.848   5.188
 3257TIP3    H1 9735   3.421   4.823   5.113
 3257TIP3    H2 9736   3.287   4.883   5.150
 3258TIP3   OH2 9737   4.903   5.281   4.868
 3258TIP3    H1 9738   4.842   5.269   4.796
 3258TIP3    H2 9739   4.885   5.209   4.928
 3259TIP3   OH2 9740   6.393   5.380   0.363
 3259TIP3    H1 9741   6.305   5.366   0.398
 3259TIP3    H2 9742   6.451   5.346   0.432
 3260TIP3   OH2 9743   0.785   0.864   1.939
 3260TIP3    H1 9744   0.791   0.940   1.880
 3260TIP3    H2 9745   0.848   0.802   1.904
 3261TIP3   OH2 9746   5.317   4.454   5.887
 3261TIP3    H1 9747   5.361   4.454   5.803
 3261TIP3    H2 9748   5.345   4.373   5.929
 3262TIP3   OH2 9749   6.978   6.213   0.929
 3262TIP3    H1 9750   7.009   6.239   1.015
 3262TIP3    H2 9751   7.026   6.270   0.868
 3263TIP3   OH2 9752   4.544   6.217   5.047
 3263TIP3    H1 9753   4.496   6.297   5.065
 3263TIP3    H2 9754   4.615   6.216   5.110
 3264TIP3   OH2 9755   3.149   5.459   4.562
 3264TIP3    H1 9756   3.182   5.536   4.515
 3264TIP3    H2 9757   3.055   5.471   4.567
 3265TIP3   OH2 9758   4.541   2.857   2.815
 3265TIP3    H1 9759   4.584   2.942   2.819
 3265TIP3    H2 9760   4.528   2.841   2.721
 3266TIP3   OH2 9761   3.815   5.732   3.844
 3266TIP3    H1 9762   3.769   5.815   3.845
 3266TIP3    H2 9763   3.800   5.695   3.931
 3267TIP3   OH2 9764   5.635   1.413   0.426
 3267TIP3    H1 9765   5.543   1.386   0.424
 3267TIP3    H2 9766   5.638   1.487   0.364
 3268TIP3   OH2 9767   6.377   1.827   3.742
 3268TIP3    H1 9768   6.445   1.815   3.808
 3268TIP3    H2 9769   6.296   1.837   3.791
 3269TIP3   OH2 9770   0.874   0.723   5.241
 3269TIP3    H1 9771   0.941   0.710   5.308
 3269TIP3    H2 9772   0.791   0.716   5.289
 3270TIP3   OH2 9773   3.529   6.567   4.637
 3270TIP3    H1 9774   3.562   6.521   4.561
 3270TIP3    H2 9775   3.572   6.652   4.635
 3271TIP3   OH2 9776   5.384   1.663   3.450
 3271TIP3    H1 9777   5.432   1.589   3.411
 3271TIP3    H2 9778   5.295   1.653   3.418
 3272TIP3   OH2 9779   3.639   2.321   3.893
 3272TIP3    H1 9780   3.599   2.314   3.979
 3272TIP3    H2 9781   3.687   2.239   3.882
 3273TIP3   OH2 9782   1.990   3.562   0.673
 3273TIP3    H1 9783   1.949   3.552   0.587
 3273TIP3    H2 9784   2.032   3.477   0.689
 3274TIP3   OH2 9785   0.341   6.205   1.941
 3274TIP3    H1 9786   0.430   6.188   1.970
 3274TIP3    H2 9787   0.337   6.167   1.853
 3275TIP3   OH2 9788   0.327   6.765   4.046
 3275TIP3    H1 9789   0.236   6.754   4.075
 3275TIP3    H2 9790   0.320   6.804   3.959
 3276TIP3   OH2 9791   5.027   5.560   0.500
 3276TIP3    H1 9792   5.031   5.474   0.460
 3276TIP3    H2 9793   4.966   5.550   0.573
 3277TIP3   OH2 9794   6.547   3.263   5.623
 3277TIP3    H1 9795   6.496   3.210   5.562
 3277TIP3    H2 9796   6.614   3.305   5.570
 3278TIP3   OH2 9797   3.314   6.689   1.625
 3278TIP3    H1 9798   3.398   6.649   1.650
 3278TIP3    H2 9799   3.324   6.781   1.649
 3279TIP3   OH2 9800   4.931   0.744   0.346
 3279TIP3    H1 9801   4.926   0.825   0.296
 3279TIP3    H2 9802   4.947   0.676   0.280
 3280TIP3   OH2 9803   4.749   4.282   2.282
 3280TIP3    H1 9804   4.665   4.242   2.304
 3280TIP3    H2 9805   4.809   4.251   2.350
 3281TIP3   OH2 9806   6.021   6.392   5.325
 3281TIP3    H1 9807   5.963   6.401   5.401
 3281TIP3    H2 9808   6.005   6.302   5.295
 3282TIP3   OH2 9809   4.860   3.156   2.047
 3282TIP3    H1 9810   4.817   3.218   2.106
 3282TIP3    H2 9811   4.922   3.209   1.997
 3283TIP3   OH2 9812   0.719   6.002   2.600
 3283TIP3    H1 9813   0.809   6.024   2.574
 3283TIP3    H2 9814   0.708   6.043   2.685
 3284TIP3   OH2 9815   3.889   6.427   3.022
 3284TIP3    H1 9816   3.850   6.343   3.000
 3284TIP3    H2 9817   3.908   6.421   3.116
 3285TIP3   OH2 9818   6.974   0.590   5.536
 3285TIP3    H1 9819   6.989   0.572   5.629
 3285TIP3    H2 9820   6.878   0.596   5.528
 3286TIP3   OH2 9821   1.310   3.748   0.278
 3286TIP3    H1 9822   1.345   3.832   0.247
 3286TIP3    H2 9823   1.329   3.746   0.371
 3287TIP3   OH2 9824   3.081   3.419   2.780
 3287TIP3    H1 9825   2.998   3.464   2.763
 3287TIP3    H2 9826   3.073   3.336   2.733
 3288TIP3   OH2 9827   0.994   3.574   3.179
 3288TIP3    H1 9828   0.975   3.592   3.271
 3288TIP3    H2 9829   1.062   3.637   3.156
 3289TIP3   OH2 9830   4.403   4.195   0.452
 3289TIP3    H1 9831   4.416   4.256   0.379
 3289TIP3    H2 9832   4.369   4.115   0.410
 3290TIP3   OH2 9833   2.566   5.317   3.725
 3290TIP3    H1 9834   2.583   5.330   3.818
 3290TIP3    H2 9835   2.552   5.406   3.691
 3291TIP3   OH2 9836   1.639   1.809   3.178
 3291TIP3    H1 9837   1.554   1.776   3.205
 3291TIP3    H2 9838   1.625   1.902   3.161
 3292TIP3   OH2 9839   2.346   4.530   1.608
 3292TIP3    H1 9840   2.255   4.545   1.632
 3292TIP3    H2 9841   2.344   4.509   1.515
 3293TIP3   OH2 9842   2.325   5.087   0.622
 3293TIP3    H1 9843   2.400   5.036   0.592
 3293TIP3    H2 9844   2.321   5.162   0.562
 3294TIP3   OH2 9845   4.046   2.782   2.121
 3294TIP3    H1 9846   4.091   2.861   2.090
 3294TIP3    H2 9847   4.075   2.713   2.062
 3295TIP3   OH2 9848   5.695   5.353   4.650
 3295TIP3    H1 9849   5.764   5.418   4.635
 3295TIP3    H2 9850   5.641   5.357   4.571
 3296TIP3   OH2 9851   1.140   4.650   2.076
 3296TIP3    H1 9852   1.183   4.660   1.991
 3296TIP3    H2 9853   1.047   4.642   2.055
 3297TIP3   OH2 9854   0.626   3.148   3.910
 3297TIP3    H1 9855   0.646   3.153   3.816
 3297TIP3    H2 9856   0.542   3.193   3.919
 3298TIP3   OH2 9857   5.345   3.412   5.420
 3298TIP3    H1 9858   5.408   3.370   5.478
 3298TIP3    H2 9859   5.398   3.453   5.351
 3299TIP3   OH2 9860   0.483   2.126   3.576
 3299TIP3    H1 9861   0.405   2.075   3.598
 3299TIP3    H2 9862   0.557   2.068   3.596
 3300TIP3   OH2 9863   1.366   0.110   2.958
 3300TIP3    H1 9864   1.381   0.034   2.901
 3300TIP3    H2 9865   1.272   0.108   2.977
 3301TIP3   OH2 9866   0.599   5.137   1.966
 3301TIP3    H1 9867   0.532   5.187   2.012
 3301TIP3    H2 9868   0.569   5.134   1.875
 3302TIP3   OH2 9869   3.195   2.520   2.986
 3302TIP3    H1 9870   3.160   2.439   2.949
 3302TIP3    H2 9871   3.129   2.546   3.051
 3303TIP3   OH2 9872   0.276   2.400   5.332
 3303TIP3    H1 9873   0.227   2.468   5.285
 3303TIP3    H2 9874   0.286   2.329   5.268
 3304TIP3   OH2 9875   7.114   1.730   1.393
 3304TIP3    H1 9876   7.058   1.662   1.355
 3304TIP3    H2 9877   7.180   1.746   1.326
 3305TIP3   OH2 9878   3.709   2.018   0.938
 3305TIP3    H1 9879   3.623   2.056   0.918
 3305TIP3    H2 9880   3.733   1.971   0.859
 3306TIP3   OH2 9881   6.909   5.694   3.800
 3306TIP3    H1 9882   6.828   5.657   3.835
 3306TIP3    H2 9883   6.887   5.720   3.710
 3307TIP3   OH2 9884   3.093   2.279   1.928
 3307TIP3    H1 9885   3.042   2.347   1.972
 3307TIP3    H2 9886   3.182   2.313   1.925
 3308TIP3   OH2 9887   4.690   4.917   4.278
 3308TIP3    H1 9888   4.754   4.936   4.209
 3308TIP3    H2 9889   4.698   4.823   4.293
 3309TIP3   OH2 9890   1.461   6.811   1.662
 3309TIP3    H1 9891   1.490   6.787   1.750
 3309TIP3    H2 9892   1.460   6.729   1.614
 3310TIP3   OH2 9893   2.176   5.889   2.840
 3310TIP3    H1 9894   2.131   5.833   2.903
 3310TIP3    H2 9895   2.114   5.959   2.820
 3311TIP3   OH2 9896   5.090   3.987   4.099
 3311TIP3    H1 9897   5.113   3.938   4.020
 3311TIP3    H2 9898   5.058   3.921   4.160
 3312TIP3   OH2 9899   3.841   0.687   0.644
 3312TIP3    H1 9900   3.872   0.611   0.693
 3312TIP3    H2 9901   3.896   0.759   0.675
 3313TIP3   OH2 9902   0.067   4.150   5.356
 3313TIP3    H1 9903   0.045   4.149   5.263
 3313TIP3    H2 9904   0.032   4.067   5.390
 3314TIP3   OH2 9905   3.968   3.405   1.094
 3314TIP3    H1 9906   3.903   3.374   1.032
 3314TIP3    H2 9907   4.030   3.332   1.103
 3315TIP3   OH2 9908   4.458   2.007   2.612
 3315TIP3    H1 9909   4.531   2.063   2.588
 3315TIP3    H2 9910   4.390   2.028   2.547
 3316TIP3   OH2 9911   3.527   3.764   2.494
 3316TIP3    H1 9912   3.567   3.823   2.430
 3316TIP3    H2 9913   3.452   3.813   2.528
 3317TIP3   OH2 9914   6.655   6.054   5.130
 3317TIP3    H1 9915   6.604   6.122   5.086
 3317TIP3    H2 9916   6.622   5.972   5.093
 3318TIP3   OH2 9917   3.180   4.787   3.265
 3318TIP3    H1 9918   3.251   4.815   3.207
 3318TIP3    H2 9919   3.217   4.797   3.353
 3319TIP3   OH2 9920   2.166   6.314   3.258
 3319TIP3    H1 9921   2.125   6.265   3.329
 3319TIP3    H2 9922   2.233   6.255   3.223
 3320TIP3   OH2 9923   5.515   3.554   3.515
 3320TIP3    H1 9924   5.483   3.636   3.552
 3320TIP3    H2 9925   5.435   3.506   3.492
 3321TIP3   OH2 9926   4.774   4.570   3.482
 3321TIP3    H1 9927   4.728   4.643   3.523
 3321TIP3    H2 9928   4.862   4.601   3.466
 3322TIP3   OH2 9929   1.810   0.787   2.245
 3322TIP3    H1 9930   1.764   0.708   2.216
 3322TIP3    H2 9931   1.885   0.754   2.293
 3323TIP3   OH2 9932   0.395   2.458   2.982
 3323TIP3    H1 9933   0.328   2.524   3.003
 3323TIP3    H2 9934   0.379   2.436   2.890
 3324TIP3   OH2 9935   5.632   1.702   2.687
 3324TIP3    H1 9936   5.633   1.662   2.601
 3324TIP3    H2 9937   5.593   1.788   2.673
 3325TIP3   OH2 9938   1.731   2.501   5.397
 3325TIP3    H1 9939   1.669   2.496   5.470
 3325TIP3    H2 9940   1.770   2.414   5.393
 3326TIP3   OH2 9941   6.004   5.213   0.295
 3326TIP3    H1 9942   5.940   5.169   0.350
 3326TIP3    H2 9943   6.058   5.264   0.356
 3327TIP3   OH2 9944   2.477   0.824   2.093
 3327TIP3    H1 9945   2.443   0.895   2.037
 3327TIP3    H2 9946   2.540   0.778   2.037
 3328TIP3   OH2 9947   2.157   4.957   1.134
 3328TIP3    H1 9948   2.173   4.962   1.040
 3328TIP3    H2 9949   2.061   4.958   1.142
 3329TIP3   OH2 9950   4.920   2.940   1.121
 3329TIP3    H1 9951   4.929   3.020   1.174
 3329TIP3    H2 9952   4.957   2.871   1.176
 3330TIP3   OH2 9953   0.935   4.074   1.710
 3330TIP3    H1 9954   0.878   4.151   1.709
 3330TIP3    H2 9955   0.905   4.021   1.636
 3331TIP3   OH2 9956   0.424   3.521   2.130
 3331TIP3    H1 9957   0.519   3.520   2.137
 3331TIP3    H2 9958   0.399   3.611   2.151
 3332TIP3   OH2 9959   5.875   0.141   2.301
 3332TIP3    H1 9960   5.880   0.178   2.389
 3332TIP3    H2 9961   5.792   0.094   2.300
 3333TIP3   OH2 9962   6.483   2.662   3.070
 3333TIP3    H1 9963   6.470   2.692   3.160
 3333TIP3    H2 9964   6.528   2.735   3.027
 3334TIP3   OH2 9965   5.921   4.372   4.768
 3334TIP3    H1 9966   5.928   4.450   4.713
 3334TIP3    H2 9967   5.976   4.307   4.724
 3335TIP3   OH2 9968   4.569   5.423   1.959
 3335TIP3    H1 9969   4.539   5.404   1.870
 3335TIP3    H2 9970   4.572   5.519   1.963
 3336TIP3   OH2 9971   0.348   4.437   2.311
 3336TIP3    H1 9972   0.392   4.414   2.392
 3336TIP3    H2 9973   0.394   4.515   2.279
 3337TIP3   OH2 9974   5.557   0.291   0.050
 3337TIP3    H1 9975   5.536   0.255   0.137
 3337TIP3    H2 9976   5.634   0.346   0.065
 3338TIP3   OH2 9977   4.400   1.780   4.030
 3338TIP3    H1 9978   4.388   1.735   3.946
 3338TIP3    H2 9979   4.480   1.832   4.018
 3339TIP3   OH2 9980   5.411   6.553   4.769
 3339TIP3    H1 9981   5.413   6.582   4.678
 3339TIP3    H2 9982   5.319   6.556   4.793
 3340TIP3   OH2 9983  -0.024   6.744   2.443
 3340TIP3    H1 9984   0.010   6.833   2.439
 3340TIP3    H2 9985   0.010   6.709   2.526
 3341TIP3   OH2 9986   5.999   4.149   5.469
 3341TIP3    H1 9987   5.937   4.114   5.405
 3341TIP3    H2 9988   5.990   4.244   5.460
 3342TIP3   OH2 9989   5.910   5.977   2.128
 3342TIP3    H1 9990   5.998   6.008   2.109
 3342TIP3    H2 9991   5.863   5.983   2.045
 3343TIP3   OH2 9992   3.701   2.182   0.359
 3343TIP3    H1 9993   3.684   2.117   0.427
 3343TIP3    H2 9994   3.791   2.211   0.376
 3344TIP3   OH2 9995   0.665   1.596  -0.012
 3344TIP3    H1 9996   0.641   1.679  -0.054
 3344TIP3    H2 9997   0.702   1.544  -0.082
 3345TIP3   OH2 9998   2.039   1.263   1.551
 3345TIP3    H1 9999   2.019   1.190   1.609
 3345TIP3    H210000   2.029   1.228   1.463
 3346TIP3   OH210001   0.558   4.216   1.561
 3346TIP3    H110002   0.627   4.171   1.610
 3346TIP3    H210003   0.513   4.146   1.514
 3347TIP3   OH210004   2.021   6.076   3.724
 3347TIP3    H110005   2.023   5.986   3.755
 3347TIP3    H210006   2.016   6.129   3.804
 3348TIP3   OH210007   6.783   2.897   4.108
 3348TIP3    H110008   6.795   2.831   4.176
 3348TIP3    H210009   6.828   2.861   4.031
 3349TIP3   OH210010   4.813   0.422   3.964
 3349TIP3    H110011   4.893   0.414   4.017
 3349TIP3    H210012   4.743   0.431   4.028
 3350TIP3   OH210013   7.018   6.745   4.886
 3350TIP3    H110014   7.077   6.693   4.941
 3350TIP3    H210015   7.013   6.829   4.930
 3351TIP3   OH210016   1.364   0.648   5.116
 3351TIP3    H110017   1.309   0.640   5.194
 3351TIP3    H210018   1.431   0.581   5.128
 3352TIP3   OH210019   5.457   0.982   3.715
 3352TIP3    H110020   5.374   0.934   3.714
 3352TIP3    H210021   5.430   1.074   3.721
 3353TIP3   OH210022   5.510   4.434   2.135
 3353TIP3    H110023   5.468   4.348   2.130
 3353TIP3    H210024   5.450   4.492   2.087
 3354TIP3   OH210025   1.937   5.141   0.167
 3354TIP3    H110026   1.860   5.146   0.111
 3354TIP3    H210027   1.936   5.224   0.216
 3355TIP3   OH210028   2.074   3.317   3.576
 3355TIP3    H110029   1.995   3.307   3.524
 3355TIP3    H210030   2.068   3.405   3.613
 3356TIP3   OH210031   7.180   3.681   5.663
 3356TIP3    H110032   7.090   3.692   5.694
 3356TIP3    H210033   7.193   3.586   5.659
 3357TIP3   OH210034   0.162   1.909   4.275
 3357TIP3    H110035   0.251   1.907   4.308
 3357TIP3    H210036   0.155   1.832   4.218
 3358TIP3   OH210037   4.606   2.690   0.953
 3358TIP3    H110038   4.539   2.705   0.886
 3358TIP3    H210039   4.684   2.666   0.904
 3359TIP3   OH210040   4.446   4.502   5.256
 3359TIP3    H110041   4.431   4.573   5.194
 3359TIP3    H210042   4.371   4.443   5.244
 3360TIP3   OH210043   2.764   6.515   5.413
 3360TIP3    H110044   2.801   6.482   5.331
 3360TIP3    H210045   2.837   6.510   5.475
 3361TIP3   OH210046   4.085   3.831   2.267
 3361TIP3    H110047   4.000   3.791   2.249
 3361TIP3    H210048   4.074   3.923   2.243
 3362TIP3   OH210049   5.801   2.780   1.434
 3362TIP3    H110050   5.735   2.807   1.371
 3362TIP3    H210051   5.852   2.714   1.388
 3363TIP3   OH210052   5.478   1.060   0.705
 3363TIP3    H110053   5.430   1.003   0.764
 3363TIP3    H210054   5.559   1.013   0.686
 3364TIP3   OH210055   1.473   4.766   1.607
 3364TIP3    H110056   1.560   4.772   1.568
 3364TIP3    H210057   1.460   4.852   1.648
 3365TIP3   OH210058   1.941   1.737   0.288
 3365TIP3    H110059   2.033   1.712   0.289
 3365TIP3    H210060   1.895   1.658   0.317
 3366TIP3   OH210061   2.621   3.262   0.131
 3366TIP3    H110062   2.641   3.229   0.218
 3366TIP3    H210063   2.580   3.347   0.146
 3367TIP3   OH210064   1.633   6.340   4.137
 3367TIP3    H110065   1.719   6.380   4.153
 3367TIP3    H210066   1.598   6.388   4.063
 3368TIP3   OH210067   2.134   3.396   2.280
 3368TIP3    H110068   2.088   3.377   2.198
 3368TIP3    H210069   2.190   3.470   2.259
 3369TIP3   OH210070   0.728   1.379   1.132
 3369TIP3    H110071   0.753   1.287   1.143
 3369TIP3    H210072   0.679   1.400   1.211
 3370TIP3   OH210073   5.966   4.065   0.717
 3370TIP3    H110074   6.007   4.146   0.686
 3370TIP3    H210075   6.012   3.996   0.669
 3371TIP3   OH210076   4.470   5.332   0.838
 3371TIP3    H110077   4.536   5.306   0.902
 3371TIP3    H210078   4.392   5.352   0.890
 3372TIP3   OH210079   3.047   0.010   0.607
 3372TIP3    H110080   3.024  -0.073   0.648
 3372TIP3    H210081   2.982   0.022   0.537
 3373TIP3   OH210082   6.969   0.231   4.266
 3373TIP3    H110083   6.949   0.171   4.194
 3373TIP3    H210084   6.911   0.203   4.337
 3374TIP3   OH210085   5.537   0.235   0.823
 3374TIP3    H110086   5.623   0.263   0.855
 3374TIP3    H210087   5.557   0.174   0.751
 3375TIP3   OH210088   3.836   1.600   3.260
 3375TIP3    H110089   3.872   1.683   3.227
 3375TIP3    H210090   3.749   1.623   3.292
 3376TIP3   OH210091   7.226   1.531   3.683
 3376TIP3    H110092   7.201   1.600   3.744
 3376TIP3    H210093   7.315   1.553   3.657
 3377TIP3   OH210094   1.917   5.087   2.695
 3377TIP3    H110095   2.002   5.094   2.738
 3377TIP3    H210096   1.864   5.157   2.735
 3378TIP3   OH210097   6.244   5.201  -0.002
 3378TIP3    H110098   6.327   5.249  -0.009
 3378TIP3    H210099   6.176   5.268  -0.003
 3379TIP3   OH210100   3.983   3.073   5.810
 3379TIP3    H110101   3.919   3.002   5.814
 3379TIP3    H210102   4.010   3.085   5.901
 3380TIP3   OH210103   4.544   0.481   3.711
 3380TIP3    H110104   4.479   0.515   3.771
 3380TIP3    H210105   4.586   0.559   3.674
 3381TIP3   OH210106   5.641   4.747   0.832
 3381TIP3    H110107   5.596   4.740   0.747
 3381TIP3    H210108   5.721   4.695   0.822
 3382TIP3   OH210109   0.192   0.913   3.099
 3382TIP3    H110110   0.194   0.887   3.006
 3382TIP3    H210111   0.241   0.845   3.144
 3383TIP3   OH210112   3.259   4.308   1.227
 3383TIP3    H110113   3.166   4.327   1.215
 3383TIP3    H210114   3.295   4.307   1.138
 3384TIP3   OH210115   0.125   3.477   2.414
 3384TIP3    H110116   0.212   3.504   2.386
 3384TIP3    H210117   0.080   3.560   2.435
 3385TIP3   OH210118   7.057   2.151   1.025
 3385TIP3    H110119   7.031   2.065   1.058
 3385TIP3    H210120   7.151   2.157   1.045
 3386TIP3   OH210121   4.182   6.460   0.413
 3386TIP3    H110122   4.245   6.517   0.457
 3386TIP3    H210123   4.097   6.486   0.448
 3387TIP3   OH210124   5.181   5.175   3.250
 3387TIP3    H110125   5.180   5.205   3.160
 3387TIP3    H210126   5.252   5.110   3.253
 3388TIP3   OH210127   3.705   5.860   1.037
 3388TIP3    H110128   3.686   5.852   1.131
 3388TIP3    H210129   3.798   5.842   1.030
 3389TIP3   OH210130   3.494   6.316   5.608
 3389TIP3    H110131   3.554   6.384   5.639
 3389TIP3    H210132   3.487   6.255   5.682
 3390TIP3   OH210133   5.623   3.709   4.879
 3390TIP3    H110134   5.700   3.700   4.823
 3390TIP3    H210135   5.577   3.785   4.843
 3391TIP3   OH210136   6.304   4.104   4.438
 3391TIP3    H110137   6.290   4.091   4.532
 3391TIP3    H210138   6.390   4.145   4.432
 3392TIP3   OH210139   1.184   2.111   1.945
 3392TIP3    H110140   1.227   2.145   1.866
 3392TIP3    H210141   1.237   2.146   2.017
 3393TIP3   OH210142   7.123   3.251   0.900
 3393TIP3    H110143   7.152   3.286   0.984
 3393TIP3    H210144   7.052   3.191   0.922
 3394TIP3   OH210145   0.579   1.587   1.994
 3394TIP3    H110146   0.596   1.524   2.065
 3394TIP3    H210147   0.575   1.672   2.038
 3395TIP3   OH210148   0.406   1.662   0.384
 3395TIP3    H110149   0.386   1.569   0.373
 3395TIP3    H210150   0.422   1.694   0.296
 3396TIP3   OH210151   0.367   6.174   2.871
 3396TIP3    H110152   0.360   6.122   2.791
 3396TIP3    H210153   0.406   6.115   2.935
 3397TIP3   OH210154   0.172   1.246   3.447
 3397TIP3    H110155   0.239   1.313   3.460
 3397TIP3    H210156   0.157   1.245   3.352
 3398TIP3   OH210157   2.916   0.796   2.673
 3398TIP3    H110158   2.881   0.874   2.716
 3398TIP3    H210159   2.886   0.802   2.583
 3399TIP3   OH210160   5.040   1.876   4.700
 3399TIP3    H110161   5.130   1.902   4.722
 3399TIP3    H210162   5.009   1.943   4.640
 3400TIP3   OH210163   4.169   2.022   4.426
 3400TIP3    H110164   4.211   2.027   4.340
 3400TIP3    H210165   4.077   2.045   4.410
 3401TIP3   OH210166   1.774   2.925   0.224
 3401TIP3    H110167   1.729   2.851   0.263
 3401TIP3    H210168   1.816   2.970   0.297
 3402TIP3   OH210169   2.015   5.680   3.001
 3402TIP3    H110170   1.988   5.755   3.054
 3402TIP3    H210171   1.941   5.664   2.943
 3403TIP3   OH210172   2.193   4.928   5.873
 3403TIP3    H110173   2.128   4.885   5.818
 3403TIP3    H210174   2.166   5.020   5.875
 3404TIP3   OH210175   3.611   5.768   2.360
 3404TIP3    H110176   3.616   5.675   2.336
 3404TIP3    H210177   3.547   5.805   2.299
 3405TIP3   OH210178   3.230   6.149   2.411
 3405TIP3    H110179   3.154   6.150   2.470
 3405TIP3    H210180   3.199   6.192   2.332
 3406TIP3   OH210181   0.257   2.435   1.037
 3406TIP3    H110182   0.350   2.454   1.037
 3406TIP3    H210183   0.220   2.490   1.106
 3407TIP3   OH210184   1.641   5.413   1.856
 3407TIP3    H110185   1.671   5.462   1.933
 3407TIP3    H210186   1.693   5.448   1.784
 3408TIP3   OH210187   3.284   4.514   2.119
 3408TIP3    H110188   3.231   4.555   2.051
 3408TIP3    H210189   3.237   4.533   2.200
 3409TIP3   OH210190   4.521   3.689   1.092
 3409TIP3    H110191   4.494   3.649   1.010
 3409TIP3    H210192   4.504   3.622   1.158
 3410TIP3   OH210193   5.373   4.293   2.447
 3410TIP3    H110194   5.429   4.251   2.382
 3410TIP3    H210195   5.293   4.314   2.398
 3411TIP3   OH210196   6.699   4.474   2.262
 3411TIP3    H110197   6.702   4.532   2.186
 3411TIP3    H210198   6.776   4.497   2.313
 3412TIP3   OH210199   4.261   1.986   2.816
 3412TIP3    H110200   4.262   1.980   2.720
 3412TIP3    H210201   4.332   2.045   2.837
 3413TIP3   OH210202   6.845   2.435   0.274
 3413TIP3    H110203   6.795   2.386   0.340
 3413TIP3    H210204   6.927   2.458   0.319
 3414TIP3   OH210205   7.125   4.638   1.549
 3414TIP3    H110206   7.143   4.731   1.540
 3414TIP3    H210207   7.208   4.600   1.578
 3415TIP3   OH210208   6.785   5.099   0.009
 3415TIP3    H110209   6.691   5.087  -0.005
 3415TIP3    H210210   6.820   5.010   0.015
 3416TIP3   OH210211   4.363   1.973   5.304
 3416TIP3    H110212   4.326   1.960   5.217
 3416TIP3    H210213   4.442   1.918   5.304
 3417TIP3   OH210214   2.829   2.002   4.646
 3417TIP3    H110215   2.768   1.954   4.589
 3417TIP3    H210216   2.808   1.972   4.734
 3418TIP3   OH210217   0.688   2.964   2.073
 3418TIP3    H110218   0.600   2.968   2.036
 3418TIP3    H210219   0.675   2.970   2.167
 3419TIP3   OH210220   4.926   1.000   1.022
 3419TIP3    H110221   5.002   1.038   1.065
 3419TIP3    H210222   4.869   1.074   1.003
 3420TIP3   OH210223   1.325   6.482   1.599
 3420TIP3    H110224   1.358   6.531   1.523
 3420TIP3    H210225   1.261   6.421   1.561
 3421TIP3   OH210226   3.500   5.846   4.437
 3421TIP3    H110227   3.524   5.791   4.512
 3421TIP3    H210228   3.488   5.933   4.475
 3422TIP3   OH210229   6.789   5.283   4.099
 3422TIP3    H110230   6.799   5.197   4.141
 3422TIP3    H210231   6.724   5.328   4.151
 3423TIP3   OH210232   7.074   6.666   2.205
 3423TIP3    H110233   7.005   6.622   2.254
 3423TIP3    H210234   7.150   6.664   2.263
 3424TIP3   OH210235   6.594   5.324   2.659
 3424TIP3    H110236   6.512   5.347   2.614
 3424TIP3    H210237   6.641   5.270   2.597
 3425TIP3   OH210238   1.270   0.703   3.358
 3425TIP3    H110239   1.177   0.680   3.351
 3425TIP3    H210240   1.279   0.780   3.303
 3426TIP3   OH210241   3.843   1.019   2.359
 3426TIP3    H110242   3.930   0.981   2.368
 3426TIP3    H210243   3.845   1.096   2.416
 3427TIP3   OH210244   4.378   6.217   0.385
 3427TIP3    H110245   4.473   6.228   0.386
 3427TIP3    H210246   4.347   6.286   0.327
 3428TIP3   OH210247   5.052   2.726   2.315
 3428TIP3    H110248   5.138   2.762   2.293
 3428TIP3    H210249   5.035   2.759   2.404
 3429TIP3   OH210250   5.468   5.548   0.238
 3429TIP3    H110251   5.436   5.497   0.312
 3429TIP3    H210252   5.479   5.484   0.168
 3430TIP3   OH210253   4.215   6.181   0.657
 3430TIP3    H110254   4.152   6.127   0.704
 3430TIP3    H210255   4.173   6.201   0.573
 3431TIP3   OH210256   6.099   0.598   5.180
 3431TIP3    H110257   6.168   0.658   5.152
 3431TIP3    H210258   6.055   0.572   5.098
 3432TIP3   OH210259   5.262   2.791   3.833
 3432TIP3    H110260   5.329   2.842   3.878
 3432TIP3    H210261   5.179   2.824   3.868
 3433TIP3   OH210262   1.894   2.568   5.156
 3433TIP3    H110263   1.812   2.572   5.205
 3433TIP3    H210264   1.873   2.601   5.069
 3434TIP3   OH210265   6.149   2.568   3.875
 3434TIP3    H110266   6.111   2.592   3.959
 3434TIP3    H210267   6.230   2.620   3.869
 3435TIP3   OH210268   0.842   6.182   0.332
 3435TIP3    H110269   0.846   6.251   0.398
 3435TIP3    H210270   0.831   6.228   0.249
 3436TIP3   OH210271   0.124   4.826   1.786
 3436TIP3    H110272   0.210   4.842   1.826
 3436TIP3    H210273   0.133   4.740   1.745
 3437TIP3   OH210274   1.346   3.238   0.380
 3437TIP3    H110275   1.417   3.281   0.332
 3437TIP3    H210276   1.376   3.235   0.471
 3438TIP3   OH210277   5.606   6.645   1.818
 3438TIP3    H110278   5.700   6.636   1.802
 3438TIP3    H210279   5.585   6.734   1.788
 3439TIP3   OH210280   0.222   6.307   3.631
 3439TIP3    H110281   0.150   6.350   3.676
 3439TIP3    H210282   0.200   6.314   3.538
 3440TIP3   OH210283   3.460   1.683   3.942
 3440TIP3    H110284   3.398   1.661   3.873
 3440TIP3    H210285   3.485   1.774   3.925
 3441TIP3   OH210286   4.904   0.172   4.663
 3441TIP3    H110287   4.883   0.174   4.757
 3441TIP3    H210288   4.967   0.242   4.651
 3442TIP3   OH210289   4.597   5.118   1.326
 3442TIP3    H110290   4.532   5.052   1.350
 3442TIP3    H210291   4.674   5.068   1.300
 3443TIP3   OH210292   6.399   2.335   4.929
 3443TIP3    H110293   6.388   2.249   4.969
 3443TIP3    H210294   6.493   2.343   4.913
 3444TIP3   OH210295   4.421   1.468   3.655
 3444TIP3    H110296   4.509   1.498   3.676
 3444TIP3    H210297   4.435   1.386   3.607
 3445TIP3   OH210298   2.715   4.698   1.650
 3445TIP3    H110299   2.770   4.765   1.611
 3445TIP3    H210300   2.628   4.737   1.655
 3446TIP3   OH210301   5.254   5.051   2.721
 3446TIP3    H110302   5.294   4.975   2.763
 3446TIP3    H210303   5.316   5.122   2.737
 3447TIP3   OH210304   1.483   0.135   0.740
 3447TIP3    H110305   1.571   0.112   0.768
 3447TIP3    H210306   1.488   0.135   0.644
 3448TIP3   OH210307   2.574   5.728   4.509
 3448TIP3    H110308   2.611   5.666   4.446
 3448TIP3    H210309   2.518   5.674   4.565
 3449TIP3   OH210310   6.825   3.499   0.581
 3449TIP3    H110311   6.895   3.552   0.544
 3449TIP3    H210312   6.865   3.454   0.656
 3450TIP3   OH210313   4.885   1.890   1.742
 3450TIP3    H110314   4.807   1.901   1.688
 3450TIP3    H210315   4.856   1.910   1.831
 3451TIP3   OH210316   3.951   5.360   0.666
 3451TIP3    H110317   3.954   5.455   0.664
 3451TIP3    H210318   4.017   5.332   0.602
 3452TIP3   OH210319   0.118   6.391   4.732
 3452TIP3    H110320   0.110   6.486   4.745
 3452TIP3    H210321   0.061   6.371   4.659
 3453TIP3   OH210322   0.434   1.464  -0.027
 3453TIP3    H110323   0.455   1.450  -0.120
 3453TIP3    H210324   0.505   1.521   0.005
 3454TIP3   OH210325   0.857   0.088   2.789
 3454TIP3    H110326   0.875   0.010   2.842
 3454TIP3    H210327   0.762   0.093   2.785
 3455TIP3   OH210328   6.585   2.415   2.969
 3455TIP3    H110329   6.545   2.485   3.021
 3455TIP3    H210330   6.541   2.421   2.884
 3456TIP3   OH210331   1.868   4.483   3.982
 3456TIP3    H110332   1.934   4.528   3.929
 3456TIP3    H210333   1.885   4.390   3.970
 3457TIP3   OH210334   4.846   0.559   3.724
 3457TIP3    H110335   4.808   0.506   3.794
 3457TIP3    H210336   4.867   0.497   3.654
 3458TIP3   OH210337   0.275   3.343   3.340
 3458TIP3    H110338   0.295   3.290   3.263
 3458TIP3    H210339   0.198   3.302   3.378
 3459TIP3   OH210340   1.728   1.991   0.514
 3459TIP3    H110341   1.779   2.072   0.515
 3459TIP3    H210342   1.757   1.943   0.591
 3460TIP3   OH210343   5.640   6.115   0.740
 3460TIP3    H110344   5.550   6.114   0.707
 3460TIP3    H210345   5.679   6.191   0.697
 3461TIP3   OH210346   3.395   4.320   2.441
 3461TIP3    H110347   3.411   4.370   2.521
 3461TIP3    H210348   3.373   4.232   2.471
 3462TIP3   OH210349   5.279   4.498   4.218
 3462TIP3    H110350   5.213   4.523   4.154
 3462TIP3    H210351   5.271   4.402   4.224
 3463TIP3   OH210352   5.730   6.169   5.665
 3463TIP3    H110353   5.636   6.181   5.671
 3463TIP3    H210354   5.766   6.258   5.666
 3464TIP3   OH210355   6.130   3.413   2.987
 3464TIP3    H110356   6.156   3.365   3.066
 3464TIP3    H210357   6.045   3.452   3.010
 3465TIP3   OH210358   2.601   4.739   2.894
 3465TIP3    H110359   2.608   4.752   2.800
 3465TIP3    H210360   2.648   4.813   2.933
 3466TIP3   OH210361   3.826   3.167   1.409
 3466TIP3    H110362   3.814   3.120   1.326
 3466TIP3    H210363   3.915   3.202   1.405
 3467TIP3   OH210364   6.828   3.267   3.022
 3467TIP3    H110365   6.802   3.319   3.098
 3467TIP3    H210366   6.823   3.176   3.052
 3468TIP3   OH210367   5.697   6.038   3.758
 3468TIP3    H110368   5.677   5.980   3.684
 3468TIP3    H210369   5.691   5.982   3.835
 3469TIP3   OH210370   7.022   0.611   0.231
 3469TIP3    H110371   7.092   0.575   0.177
 3469TIP3    H210372   6.964   0.537   0.248
 3470TIP3   OH210373   4.180   3.445   0.312
 3470TIP3    H110374   4.244   3.375   0.303
 3470TIP3    H210375   4.221   3.521   0.270
 3471TIP3   OH210376   2.901   3.504   0.341
 3471TIP3    H110377   2.965   3.575   0.343
 3471TIP3    H210378   2.834   3.533   0.279
 3472TIP3   OH210379   0.541   1.472   5.202
 3472TIP3    H110380   0.573   1.385   5.180
 3472TIP3    H210381   0.572   1.528   5.130
 3473TIP3   OH210382   1.543   2.568   5.201
 3473TIP3    H110383   1.505   2.645   5.243
 3473TIP3    H210384   1.598   2.528   5.268
 3474TIP3   OH210385   1.920   5.409   4.297
 3474TIP3    H110386   1.929   5.474   4.366
 3474TIP3    H210387   1.844   5.356   4.324
 3475TIP3   OH210388   1.955   5.927   5.557
 3475TIP3    H110389   1.999   6.005   5.523
 3475TIP3    H210390   1.959   5.937   5.652
 3476TIP3   OH210391   2.752   3.244   2.404
 3476TIP3    H110392   2.688   3.263   2.336
 3476TIP3    H210393   2.738   3.312   2.470
 3477TIP3   OH210394   1.807   0.062   1.615
 3477TIP3    H110395   1.781   0.103   1.532
 3477TIP3    H210396   1.751  -0.016   1.620
 3478TIP3   OH210397   2.993   1.284   1.916
 3478TIP3    H110398   2.920   1.312   1.970
 3478TIP3    H210399   3.027   1.206   1.960
 3479TIP3   OH210400   3.403   5.825   1.784
 3479TIP3    H110401   3.367   5.786   1.864
 3479TIP3    H210402   3.493   5.847   1.806
 3480TIP3   OH210403   1.720   1.883   3.576
 3480TIP3    H110404   1.677   1.889   3.661
 3480TIP3    H210405   1.693   1.798   3.542
 3481TIP3   OH210406   2.590   0.027   1.958
 3481TIP3    H110407   2.678  -0.006   1.940
 3481TIP3    H210408   2.589   0.114   1.918
 3482TIP3   OH210409   4.123   4.623   4.410
 3482TIP3    H110410   4.086   4.588   4.329
 3482TIP3    H210411   4.217   4.608   4.402
 3483TIP3   OH210412   6.256   1.436   0.182
 3483TIP3    H110413   6.327   1.499   0.198
 3483TIP3    H210414   6.181   1.490   0.158
 3484TIP3   OH210415   3.575   4.305   4.084
 3484TIP3    H110416   3.659   4.275   4.047
 3484TIP3    H210417   3.514   4.235   4.062
 3485TIP3   OH210418   6.978   4.143   5.615
 3485TIP3    H110419   6.955   4.127   5.523
 3485TIP3    H210420   7.036   4.219   5.613
 3486TIP3   OH210421   7.073   3.905   1.021
 3486TIP3    H110422   7.103   3.974   0.962
 3486TIP3    H210423   7.022   3.950   1.089
 3487TIP3   OH210424   6.111   6.717   0.537
 3487TIP3    H110425   6.098   6.652   0.606
 3487TIP3    H210426   6.027   6.722   0.491
 3488TIP3   OH210427   0.652   5.526   2.298
 3488TIP3    H110428   0.688   5.520   2.209
 3488TIP3    H210429   0.574   5.580   2.288
 3489TIP3   OH210430   2.610   2.837   0.878
 3489TIP3    H110431   2.532   2.781   0.883
 3489TIP3    H210432   2.633   2.856   0.969
 3490TIP3   OH210433   5.808   5.119   4.061
 3490TIP3    H110434   5.777   5.200   4.102
 3490TIP3    H210435   5.869   5.148   3.994
 3491TIP3   OH210436   5.344   5.575   2.264
 3491TIP3    H110437   5.301   5.516   2.325
 3491TIP3    H210438   5.351   5.658   2.312
 3492TIP3   OH210439   6.915   0.159   0.591
 3492TIP3    H110440   6.926   0.075   0.635
 3492TIP3    H210441   6.897   0.222   0.661
 3493TIP3   OH210442   6.705   0.246   4.972
 3493TIP3    H110443   6.771   0.309   4.943
 3493TIP3    H210444   6.627   0.268   4.922
 3494TIP3   OH210445   6.421   3.397   5.381
 3494TIP3    H110446   6.397   3.325   5.322
 3494TIP3    H210447   6.383   3.372   5.465
 3495TIP3   OH210448   5.009   2.741   1.849
 3495TIP3    H110449   5.081   2.681   1.831
 3495TIP3    H210450   4.941   2.686   1.889
 3496TIP3   OH210451   4.969   0.336   2.959
 3496TIP3    H110452   5.064   0.345   2.964
 3496TIP3    H210453   4.954   0.253   2.914
 3497TIP3   OH210454   6.861   5.654   0.192
 3497TIP3    H110455   6.810   5.649   0.111
 3497TIP3    H210456   6.945   5.690   0.166
 3498TIP3   OH210457   1.934   6.808   4.138
 3498TIP3    H110458   1.953   6.898   4.113
 3498TIP3    H210459   1.849   6.789   4.099
 3499TIP3   OH210460   7.062   4.555   0.902
 3499TIP3    H110461   6.972   4.523   0.890
 3499TIP3    H210462   7.055   4.650   0.901
 3500TIP3   OH210463   3.527   6.000   5.416
 3500TIP3    H110464   3.459   5.984   5.481
 3500TIP3    H210465   3.577   5.918   5.413
 3501TIP3   OH210466   4.830   2.914   2.534
 3501TIP3    H110467   4.867   2.937   2.449
 3501TIP3    H210468   4.902   2.873   2.582
 3502TIP3   OH210469   7.145   6.749   5.186
 3502TIP3    H110470   7.155   6.654   5.177
 3502TIP3    H210471   7.143   6.764   5.280
 3503TIP3   OH210472   3.903   3.231   3.734
 3503TIP3    H110473   3.815   3.250   3.703
 3503TIP3    H210474   3.894   3.151   3.786
 3504TIP3   OH210475   2.006   0.516   1.164
 3504TIP3    H110476   2.000   0.558   1.079
 3504TIP3    H210477   2.094   0.536   1.196
 3505TIP3   OH210478   4.396   1.524   0.996
 3505TIP3    H110479   4.335   1.523   1.069
 3505TIP3    H210480   4.476   1.484   1.031
 3506TIP3   OH210481   1.190   5.975   2.271
 3506TIP3    H110482   1.172   5.911   2.202
 3506TIP3    H210483   1.211   5.923   2.348
 3507TIP3   OH210484   2.785   4.351   0.582
 3507TIP3    H110485   2.784   4.261   0.551
 3507TIP3    H210486   2.711   4.393   0.540
 3508TIP3   OH210487   2.383   4.713   0.832
 3508TIP3    H110488   2.467   4.758   0.840
 3508TIP3    H210489   2.396   4.649   0.761
 3509TIP3   OH210490  -0.004   1.595   4.929
 3509TIP3    H110491   0.085   1.630   4.931
 3509TIP3    H210492  -0.006   1.538   4.852
 3510TIP3   OH210493   6.920   2.167   0.541
 3510TIP3    H110494   6.935   2.261   0.540
 3510TIP3    H210495   6.838   2.155   0.493
 3511TIP3   OH210496   3.960   2.325   4.561
 3511TIP3    H110497   3.994   2.300   4.647
 3511TIP3    H210498   4.038   2.347   4.509
 3512TIP3   OH210499   1.010   6.004   2.577
 3512TIP3    H110500   1.033   6.096   2.586
 3512TIP3    H210501   1.044   5.979   2.491
 3513TIP3   OH210502   7.213   0.225   4.125
 3513TIP3    H110503   7.154   0.179   4.065
 3513TIP3    H210504   7.198   0.183   4.210
 3514TIP3   OH210505   1.431   4.511   3.148
 3514TIP3    H110506   1.340   4.529   3.123
 3514TIP3    H210507   1.437   4.416   3.148
 3515TIP3   OH210508   5.620   0.702   4.223
 3515TIP3    H110509   5.660   0.643   4.287
 3515TIP3    H210510   5.627   0.788   4.264
 3516TIP3   OH210511   6.902   5.310   0.124
 3516TIP3    H110512   6.879   5.306   0.217
 3516TIP3    H210513   6.850   5.242   0.083
 3517TIP3   OH210514   6.270   1.495   1.003
 3517TIP3    H110515   6.260   1.589   0.989
 3517TIP3    H210516   6.186   1.457   0.978
 3518TIP3   OH210517   2.003   2.371   1.838
 3518TIP3    H110518   2.027   2.450   1.789
 3518TIP3    H210519   2.041   2.385   1.925
 3519TIP3   OH210520   5.721   1.017   0.817
 3519TIP3    H110521   5.692   0.960   0.888
 3519TIP3    H210522   5.796   1.064   0.853
 3520TIP3   OH210523   2.969   5.212   3.373
 3520TIP3    H110524   2.933   5.188   3.458
 3520TIP3    H210525   2.983   5.128   3.329
 3521TIP3   OH210526   2.335   3.898   5.396
 3521TIP3    H110527   2.261   3.937   5.442
 3521TIP3    H210528   2.325   3.803   5.409
 3522TIP3   OH210529   3.299   4.433   3.462
 3522TIP3    H110530   3.223   4.464   3.511
 3522TIP3    H210531   3.262   4.392   3.384
 3523TIP3   OH210532   4.596   3.316   0.050
 3523TIP3    H110533   4.561   3.390   0.100
 3523TIP3    H210534   4.624   3.253   0.117
 3524TIP3   OH210535   6.087   3.239   1.605
 3524TIP3    H110536   6.165   3.279   1.643
 3524TIP3    H210537   6.068   3.163   1.660
 3525TIP3   OH210538   1.563   1.335   5.026
 3525TIP3    H110539   1.579   1.429   5.012
 3525TIP3    H210540   1.617   1.312   5.101
 3526TIP3   OH210541   7.097   2.532   3.912
 3526TIP3    H110542   7.156   2.458   3.927
 3526TIP3    H210543   7.036   2.500   3.845
 3527TIP3   OH210544   1.969   1.371   3.114
 3527TIP3    H110545   2.063   1.366   3.095
 3527TIP3    H210546   1.941   1.280   3.123
 3528TIP3   OH210547   0.500   2.730   3.475
 3528TIP3    H110548   0.455   2.661   3.426
 3528TIP3    H210549   0.467   2.811   3.438
 3529TIP3   OH210550   5.301   0.707   3.555
 3529TIP3    H110551   5.250   0.635   3.591
 3529TIP3    H210552   5.390   0.692   3.586
 3530TIP3   OH210553   1.433   2.989   0.159
 3530TIP3    H110554   1.418   2.903   0.120
 3530TIP3    H210555   1.436   2.971   0.253
 3531TIP3   OH210556   4.515   4.430   2.034
 3531TIP3    H110557   4.494   4.346   2.076
 3531TIP3    H210558   4.533   4.408   1.943
 3532TIP3   OH210559   0.103   4.657   1.005
 3532TIP3    H110560   0.026   4.600   1.010
 3532TIP3    H210561   0.071   4.737   0.965
 3533TIP3   OH210562   3.840   2.253   0.808
 3533TIP3    H110563   3.754   2.214   0.821
 3533TIP3    H210564   3.901   2.180   0.818
 3534TIP3   OH210565   5.850   6.707   0.125
 3534TIP3    H110566   5.911   6.755   0.070
 3534TIP3    H210567   5.765   6.745   0.106
 3535TIP3   OH210568   5.549   0.180   2.964
 3535TIP3    H110569   5.509   0.225   2.889
 3535TIP3    H210570   5.607   0.246   3.003
 3536TIP3   OH210571   4.607   6.714   0.713
 3536TIP3    H110572   4.683   6.703   0.771
 3536TIP3    H210573   4.636   6.677   0.630
 3537TIP3   OH210574   6.167   0.189   2.238
 3537TIP3    H110575   6.083   0.157   2.272
 3537TIP3    H210576   6.194   0.256   2.300
 3538TIP3   OH210577   5.534   5.608   4.343
 3538TIP3    H110578   5.519   5.521   4.381
 3538TIP3    H210579   5.451   5.628   4.299
 3539TIP3   OH210580   1.335   4.139   0.379
 3539TIP3    H110581   1.401   4.087   0.423
 3539TIP3    H210582   1.304   4.201   0.446
 3540TIP3   OH210583   3.934   2.766   0.927
 3540TIP3    H110584   3.901   2.797   1.011
 3540TIP3    H210585   4.030   2.771   0.935
 3541TIP3   OH210586   5.258   5.404   5.701
 3541TIP3    H110587   5.340   5.355   5.699
 3541TIP3    H210588   5.283   5.492   5.730
 3542TIP3   OH210589   7.179   3.946   4.032
 3542TIP3    H110590   7.188   3.858   3.995
 3542TIP3    H210591   7.188   3.933   4.126
 3543TIP3   OH210592   1.252   1.163   5.287
 3543TIP3    H110593   1.239   1.173   5.193
 3543TIP3    H210594   1.275   1.071   5.299
 3544TIP3   OH210595   5.834   3.035   3.338
 3544TIP3    H110596   5.739   3.042   3.347
 3544TIP3    H210597   5.869   3.065   3.422
 3545TIP3   OH210598   2.987   4.976   3.204
 3545TIP3    H110599   3.044   4.907   3.239
 3545TIP3    H210600   3.035   5.011   3.129
 3546TIP3   OH210601   5.406   1.246   0.500
 3546TIP3    H110602   5.432   1.181   0.565
 3546TIP3    H210603   5.314   1.228   0.482
 3547TIP3   OH210604   4.975   5.738   0.822
 3547TIP3    H110605   5.052   5.769   0.774
 3547TIP3    H210606   4.974   5.643   0.807
 3548TIP3   OH210607   0.510   1.059   4.552
 3548TIP3    H110608   0.516   1.133   4.612
 3548TIP3    H210609   0.561   0.990   4.594
 3549TIP3   OH210610   5.057   2.415   5.005
 3549TIP3    H110611   5.127   2.351   5.006
 3549TIP3    H210612   5.047   2.438   4.912
 3550TIP3   OH210613   0.248   5.233   5.693
 3550TIP3    H110614   0.209   5.306   5.742
 3550TIP3    H210615   0.177   5.169   5.686
 3551TIP3   OH210616   2.289   0.907   4.664
 3551TIP3    H110617   2.242   0.825   4.650
 3551TIP3    H210618   2.255   0.966   4.596
 3552TIP3   OH210619   3.095   1.122   2.761
 3552TIP3    H110620   3.029   1.128   2.691
 3552TIP3    H210621   3.116   1.213   2.782
 3553TIP3   OH210622   0.868   0.131   1.685
 3553TIP3    H110623   0.797   0.186   1.653
 3553TIP3    H210624   0.921   0.189   1.740
 3554TIP3   OH210625   1.434   5.908   0.730
 3554TIP3    H110626   1.430   5.861   0.647
 3554TIP3    H210627   1.462   5.996   0.707
 3555TIP3   OH210628   2.138   2.383   5.071
 3555TIP3    H110629   2.123   2.462   5.124
 3555TIP3    H210630   2.051   2.345   5.060
 3556TIP3   OH210631   4.257   1.705   4.434
 3556TIP3    H110632   4.226   1.755   4.358
 3556TIP3    H210633   4.349   1.689   4.416
 3557TIP3   OH210634   1.784   2.055   1.398
 3557TIP3    H110635   1.851   1.991   1.423
 3557TIP3    H210636   1.781   2.117   1.471
 3558TIP3   OH210637   0.099   3.116  -0.008
 3558TIP3    H110638   0.038   3.188  -0.024
 3558TIP3    H210639   0.060   3.068   0.065
 3559TIP3   OH210640   3.895   2.436   0.604
 3559TIP3    H110641   3.882   2.362   0.663
 3559TIP3    H210642   3.811   2.445   0.558
 3560TIP3   OH210643   0.751   4.261   4.495
 3560TIP3    H110644   0.711   4.316   4.428
 3560TIP3    H210645   0.678   4.229   4.547
 3561TIP3   OH210646   3.182   2.569   2.608
 3561TIP3    H110647   3.104   2.623   2.590
 3561TIP3    H210648   3.211   2.597   2.695
 3562TIP3   OH210649   6.502   0.629   1.674
 3562TIP3    H110650   6.532   0.550   1.718
 3562TIP3    H210651   6.547   0.701   1.719
 3563TIP3   OH210652   6.990   3.168   0.484
 3563TIP3    H110653   7.053   3.109   0.527
 3563TIP3    H210654   7.031   3.254   0.490
 3564TIP3   OH210655   3.967   1.533   2.005
 3564TIP3    H110656   4.050   1.489   2.023
 3564TIP3    H210657   3.992   1.621   1.979
 3565TIP3   OH210658   5.101   5.166   4.145
 3565TIP3    H110659   5.158   5.115   4.202
 3565TIP3    H210660   5.044   5.214   4.205
 3566TIP3   OH210661   2.778   6.368   1.137
 3566TIP3    H110662   2.763   6.274   1.140
 3566TIP3    H210663   2.693   6.407   1.158
 3567TIP3   OH210664   2.710   6.305   2.180
 3567TIP3    H110665   2.725   6.219   2.220
 3567TIP3    H210666   2.750   6.298   2.093
 3568TIP3   OH210667   2.817   4.926   3.872
 3568TIP3    H110668   2.819   4.909   3.778
 3568TIP3    H210669   2.805   5.020   3.879
 3569TIP3   OH210670   4.190   3.964   4.231
 3569TIP3    H110671   4.158   3.946   4.320
 3569TIP3    H210672   4.258   4.030   4.243
 3570TIP3   OH210673   6.086   2.530   4.146
 3570TIP3    H110674   6.102   2.539   4.240
 3570TIP3    H210675   6.136   2.452   4.121
 3571TIP3   OH210676   2.502   6.538   4.189
 3571TIP3    H110677   2.595   6.559   4.179
 3571TIP3    H210678   2.482   6.563   4.279
 3572TIP3   OH210679   3.703   5.539   1.437
 3572TIP3    H110680   3.706   5.577   1.349
 3572TIP3    H210681   3.727   5.611   1.495
 3573TIP3   OH210682   4.824   4.100   1.192
 3573TIP3    H110683   4.837   4.126   1.101
 3573TIP3    H210684   4.769   4.022   1.187
 3574TIP3   OH210685   0.545   1.991   1.510
 3574TIP3    H110686   0.490   1.944   1.448
 3574TIP3    H210687   0.484   2.030   1.573
 3575TIP3   OH210688   6.558   6.317   4.273
 3575TIP3    H110689   6.572   6.263   4.195
 3575TIP3    H210690   6.628   6.382   4.270
 3576TIP3   OH210691   2.515   6.374   3.955
 3576TIP3    H110692   2.561   6.430   3.892
 3576TIP3    H210693   2.510   6.428   4.035
 3577TIP3   OH210694   1.963   2.673   1.682
 3577TIP3    H110695   1.965   2.716   1.596
 3577TIP3    H210696   1.873   2.644   1.692
 3578TIP3   OH210697   4.782   1.365   1.212
 3578TIP3    H110698   4.806   1.329   1.127
 3578TIP3    H210699   4.802   1.459   1.204
 3579TIP3   OH210700   4.642   1.180   3.703
 3579TIP3    H110701   4.576   1.115   3.679
 3579TIP3    H210702   4.608   1.220   3.783
 3580TIP3   OH210703   1.401   1.787   2.109
 3580TIP3    H110704   1.438   1.812   2.194
 3580TIP3    H210705   1.434   1.699   2.094
 3581TIP3   OH210706   5.112   1.716   4.320
 3581TIP3    H110707   5.196   1.756   4.296
 3581TIP3    H210708   5.131   1.623   4.325
 3582TIP3   OH210709   0.339   0.833   4.020
 3582TIP3    H110710   0.275   0.892   4.059
 3582TIP3    H210711   0.288   0.778   3.960
 3583TIP3   OH210712   1.295   0.269   3.278
 3583TIP3    H110713   1.251   0.329   3.217
 3583TIP3    H210714   1.225   0.240   3.337
 3584TIP3   OH210715   0.674   4.169   5.517
 3584TIP3    H110716   0.724   4.101   5.473
 3584TIP3    H210717   0.720   4.250   5.497
 3585TIP3   OH210718   3.564   1.591   5.169
 3585TIP3    H110719   3.551   1.681   5.198
 3585TIP3    H210720   3.510   1.582   5.091
 3586TIP3   OH210721   6.697   1.673   1.177
 3586TIP3    H110722   6.730   1.679   1.267
 3586TIP3    H210723   6.614   1.627   1.185
 3587TIP3   OH210724   2.607   0.411   2.729
 3587TIP3    H110725   2.568   0.472   2.791
 3587TIP3    H210726   2.691   0.451   2.706
 3588TIP3   OH210727   2.448   6.675   1.889
 3588TIP3    H110728   2.462   6.587   1.853
 3588TIP3    H210729   2.490   6.672   1.975
 3589TIP3   OH210730   1.703   4.171   0.543
 3589TIP3    H110731   1.666   4.145   0.628
 3589TIP3    H210732   1.759   4.246   0.564
 3590TIP3   OH210733   7.047   5.449   3.853
 3590TIP3    H110734   7.115   5.447   3.785
 3590TIP3    H210735   7.012   5.538   3.849
 3591TIP3   OH210736   6.728   4.210   1.361
 3591TIP3    H110737   6.674   4.162   1.298
 3591TIP3    H210738   6.798   4.248   1.308
 3592TIP3   OH210739   5.643   3.688   3.853
 3592TIP3    H110740   5.635   3.716   3.762
 3592TIP3    H210741   5.692   3.758   3.896
 3593TIP3   OH210742   1.850   6.452   4.430
 3593TIP3    H110743   1.929   6.502   4.446
 3593TIP3    H210744   1.790   6.514   4.388
 3594TIP3   OH210745   3.319   0.577   0.751
 3594TIP3    H110746   3.409   0.586   0.783
 3594TIP3    H210747   3.307   0.650   0.691
 3595TIP3   OH210748   2.995   5.736   0.675
 3595TIP3    H110749   2.980   5.794   0.750
 3595TIP3    H210750   2.920   5.678   0.673
 3596TIP3   OH210751   7.025   6.562   4.556
 3596TIP3    H110752   7.102   6.509   4.537
 3596TIP3    H210753   6.960   6.500   4.588
 3597TIP3   OH210754   4.871   2.653   4.982
 3597TIP3    H110755   4.812   2.590   5.023
 3597TIP3    H210756   4.867   2.634   4.889
 3598TIP3   OH210757   6.445   3.482   0.126
 3598TIP3    H110758   6.490   3.565   0.118
 3598TIP3    H210759   6.359   3.497   0.086
 3599TIP3   OH210760   1.866   0.250   4.921
 3599TIP3    H110761   1.930   0.321   4.935
 3599TIP3    H210762   1.790   0.276   4.973
 3600TIP3   OH210763   3.288   0.112   4.510
 3600TIP3    H110764   3.237   0.177   4.559
 3600TIP3    H210765   3.249   0.112   4.423
 3601TIP3   OH210766   4.612   4.481   1.433
 3601TIP3    H110767   4.526   4.449   1.406
 3601TIP3    H210768   4.669   4.404   1.429
 3602TIP3   OH210769   5.897   6.424   1.098
 3602TIP3    H110770   5.987   6.390   1.097
 3602TIP3    H210771   5.892   6.478   1.177
 3603TIP3   OH210772   3.621   0.588   3.086
 3603TIP3    H110773   3.675   0.586   3.007
 3603TIP3    H210774   3.623   0.499   3.119
 3604TIP3   OH210775   5.100   1.583   5.800
 3604TIP3    H110776   5.083   1.660   5.855
 3604TIP3    H210777   5.023   1.575   5.744
 3605TIP3   OH210778   1.748   1.509   2.281
 3605TIP3    H110779   1.843   1.515   2.272
 3605TIP3    H210780   1.714   1.581   2.228
 3606TIP3   OH210781   5.359   0.689   3.920
 3606TIP3    H110782   5.313   0.642   3.850
 3606TIP3    H210783   5.451   0.686   3.894
 3607TIP3   OH210784   3.505   6.456   5.344
 3607TIP3    H110785   3.466   6.405   5.272
 3607TIP3    H210786   3.495   6.400   5.421
 3608TIP3   OH210787   1.979   4.621   2.193
 3608TIP3    H110788   2.053   4.591   2.141
 3608TIP3    H210789   2.016   4.641   2.279
 3609TIP3   OH210790   3.676   2.804   5.264
 3609TIP3    H110791   3.770   2.823   5.263
 3609TIP3    H210792   3.668   2.723   5.315
 3610TIP3   OH210793   2.251   1.727   3.922
 3610TIP3    H110794   2.287   1.782   3.992
 3610TIP3    H210795   2.308   1.742   3.847
 3611TIP3   OH210796   4.850   0.823   2.520
 3611TIP3    H110797   4.937   0.799   2.489
 3611TIP3    H210798   4.832   0.760   2.590
 3612TIP3   OH210799   0.461   2.986   5.243
 3612TIP3    H110800   0.442   2.928   5.169
 3612TIP3    H210801   0.375   3.014   5.274
 3613TIP3   OH210802   0.877   2.789   5.687
 3613TIP3    H110803   0.806   2.737   5.725
 3613TIP3    H210804   0.897   2.744   5.605
 3614TIP3   OH210805   4.142   4.782   1.186
 3614TIP3    H110806   4.058   4.823   1.167
 3614TIP3    H210807   4.131   4.746   1.274
 3615TIP3   OH210808   4.478   2.352   1.349
 3615TIP3    H110809   4.420   2.365   1.423
 3615TIP3    H210810   4.467   2.430   1.295
 3616TIP3   OH210811   2.464   2.079   4.011
 3616TIP3    H110812   2.421   2.114   3.933
 3616TIP3    H210813   2.397   2.083   4.079
 3617TIP3   OH210814   6.588   1.720   4.373
 3617TIP3    H110815   6.548   1.653   4.317
 3617TIP3    H210816   6.541   1.800   4.352
 3618TIP3   OH210817   5.219   0.104   2.918
 3618TIP3    H110818   5.155   0.062   2.861
 3618TIP3    H210819   5.276   0.153   2.859
 3619TIP3   OH210820   1.912   3.993   1.053
 3619TIP3    H110821   1.953   4.010   1.137
 3619TIP3    H210822   1.908   3.897   1.047
 3620TIP3   OH210823   2.864   1.990   5.256
 3620TIP3    H110824   2.821   2.069   5.226
 3620TIP3    H210825   2.937   1.977   5.195
 3621TIP3   OH210826   3.421   4.518   3.114
 3621TIP3    H110827   3.372   4.441   3.143
 3621TIP3    H210828   3.486   4.532   3.182
 3622TIP3   OH210829   0.146   0.396   1.103
 3622TIP3    H110830   0.118   0.479   1.066
 3622TIP3    H210831   0.228   0.376   1.059
 3623TIP3   OH210832   6.972   3.810   5.125
 3623TIP3    H110833   6.954   3.739   5.064
 3623TIP3    H210834   7.062   3.836   5.107
 3624TIP3   OH210835   7.176   5.952   0.168
 3624TIP3    H110836   7.152   5.863   0.195
 3624TIP3    H210837   7.106   6.007   0.202
 3625TIP3   OH210838   4.967   4.955   4.803
 3625TIP3    H110839   4.920   4.953   4.886
 3625TIP3    H210840   4.898   4.953   4.737
 3626TIP3   OH210841   6.342   5.439   5.187
 3626TIP3    H110842   6.332   5.528   5.222
 3626TIP3    H210843   6.408   5.447   5.118
 3627TIP3   OH210844   0.262   0.976   4.995
 3627TIP3    H110845   0.310   0.902   4.958
 3627TIP3    H210846   0.171   0.961   4.970
 3628TIP3   OH210847   0.590   4.764   0.062
 3628TIP3    H110848   0.561   4.839   0.113
 3628TIP3    H210849   0.657   4.723   0.116
 3629TIP3   OH210850   1.424   5.952   4.703
 3629TIP3    H110851   1.360   5.883   4.715
 3629TIP3    H210852   1.375   6.034   4.714
 3630TIP3   OH210853   2.648   4.611   0.963
 3630TIP3    H110854   2.715   4.555   0.925
 3630TIP3    H210855   2.638   4.578   1.053
 3631TIP3   OH210856   0.884   5.891   3.857
 3631TIP3    H110857   0.799   5.858   3.830
 3631TIP3    H210858   0.939   5.880   3.780
 3632TIP3   OH210859   4.827   6.287   4.419
 3632TIP3    H110860   4.918   6.267   4.399
 3632TIP3    H210861   4.777   6.217   4.377
 3633TIP3   OH210862   0.589   5.093   3.630
 3633TIP3    H110863   0.632   5.151   3.693
 3633TIP3    H210864   0.633   5.111   3.547
 3634TIP3   OH210865   6.575   3.748   0.133
 3634TIP3    H110866   6.553   3.812   0.201
 3634TIP3    H210867   6.655   3.782   0.094
 3635TIP3   OH210868   6.922   2.054   2.173
 3635TIP3    H110869   6.979   2.126   2.146
 3635TIP3    H210870   6.840   2.097   2.198
 3636TIP3   OH210871   0.829   6.493   2.776
 3636TIP3    H110872   0.764   6.448   2.723
 3636TIP3    H210873   0.866   6.559   2.717
 3637TIP3   OH210874   3.562   5.067   5.136
 3637TIP3    H110875   3.633   5.003   5.143
 3637TIP3    H210876   3.487   5.023   5.176
 3638TIP3   OH210877   6.676   0.193   2.778
 3638TIP3    H110878   6.748   0.200   2.841
 3638TIP3    H210879   6.626   0.116   2.806
 3639TIP3   OH210880   4.718   3.361   2.241
 3639TIP3    H110881   4.661   3.436   2.261
 3639TIP3    H210882   4.709   3.303   2.317
 3640TIP3   OH210883   4.182   1.497   2.754
 3640TIP3    H110884   4.219   1.540   2.677
 3640TIP3    H210885   4.164   1.569   2.815
 3641TIP3   OH210886   6.649   2.595   5.345
 3641TIP3    H110887   6.711   2.642   5.290
 3641TIP3    H210888   6.662   2.503   5.323
 3642TIP3   OH210889   3.390   0.152   2.181
 3642TIP3    H110890   3.326   0.102   2.132
 3642TIP3    H210891   3.349   0.167   2.267
 3643TIP3   OH210892   1.676   6.557   5.205
 3643TIP3    H110893   1.729   6.493   5.157
 3643TIP3    H210894   1.621   6.504   5.263
 3644TIP3   OH210895   0.928   3.503   5.051
 3644TIP3    H110896   0.932   3.592   5.017
 3644TIP3    H210897   0.905   3.513   5.144
 3645TIP3   OH210898   3.149   4.637   1.884
 3645TIP3    H110899   3.056   4.655   1.876
 3645TIP3    H210900   3.185   4.653   1.797
 3646TIP3   OH210901   2.419   3.097   0.053
 3646TIP3    H110902   2.475   3.122  -0.021
 3646TIP3    H210903   2.374   3.178   0.078
 3647TIP3   OH210904   2.269   5.407   2.647
 3647TIP3    H110905   2.274   5.459   2.727
 3647TIP3    H210906   2.349   5.428   2.599
 3648TIP3   OH210907   5.938   3.324   3.561
 3648TIP3    H110908   5.950   3.307   3.655
 3648TIP3    H210909   5.861   3.380   3.557
 3649TIP3   OH210910   4.981   6.576   4.156
 3649TIP3    H110911   4.936   6.573   4.241
 3649TIP3    H210912   5.007   6.485   4.141
 3650TIP3   OH210913   5.718   0.210   4.189
 3650TIP3    H110914   5.767   0.290   4.207
 3650TIP3    H210915   5.634   0.222   4.234
 3651TIP3   OH210916   4.428   3.114   2.201
 3651TIP3    H110917   4.396   3.079   2.117
 3651TIP3    H210918   4.508   3.162   2.177
 3652TIP3   OH210919   3.455   2.469   0.258
 3652TIP3    H110920   3.385   2.424   0.211
 3652TIP3    H210921   3.410   2.522   0.324
 3653TIP3   OH210922   0.518   4.707   0.562
 3653TIP3    H110923   0.427   4.679   0.551
 3653TIP3    H210924   0.512   4.801   0.581
 3654TIP3   OH210925   4.817   2.913   5.441
 3654TIP3    H110926   4.778   3.000   5.451
 3654TIP3    H210927   4.744   2.852   5.449
 3655TIP3   OH210928   4.070   5.837   3.970
 3655TIP3    H110929   3.994   5.815   3.916
 3655TIP3    H210930   4.141   5.851   3.907
 3656TIP3   OH210931   5.548   6.319   2.495
 3656TIP3    H110932   5.504   6.343   2.413
 3656TIP3    H210933   5.619   6.261   2.468
 3657TIP3   OH210934   7.142   0.472   5.308
 3657TIP3    H110935   7.064   0.481   5.253
 3657TIP3    H210936   7.114   0.501   5.395
 3658TIP3   OH210937   5.996   2.136   5.864
 3658TIP3    H110938   5.984   2.153   5.770
 3658TIP3    H210939   5.908   2.125   5.898
 3659TIP3   OH210940   2.468   2.523   1.662
 3659TIP3    H110941   2.555   2.487   1.645
 3659TIP3    H210942   2.484   2.603   1.713
 3660TIP3   OH210943   0.984   0.921   0.673
 3660TIP3    H110944   1.067   0.966   0.682
 3660TIP3    H210945   0.940   0.966   0.600
 3661TIP3   OH210946   5.696   2.787   5.377
 3661TIP3    H110947   5.785   2.822   5.381
 3661TIP3    H210948   5.706   2.697   5.348
 3662TIP3   OH210949   1.803   4.985   1.359
 3662TIP3    H110950   1.859   4.970   1.283
 3662TIP3    H210951   1.803   5.080   1.371
 3663TIP3   OH210952   1.363   6.552   4.272
 3663TIP3    H110953   1.353   6.471   4.222
 3663TIP3    H210954   1.357   6.524   4.364
 3664TIP3   OH210955   1.950   1.189   5.011
 3664TIP3    H110956   1.912   1.271   4.979
 3664TIP3    H210957   1.985   1.212   5.097
 3665TIP3   OH210958   1.749   1.252   1.000
 3665TIP3    H110959   1.711   1.173   1.040
 3665TIP3    H210960   1.786   1.300   1.074
 3666TIP3   OH210961   7.130   4.515   0.597
 3666TIP3    H110962   7.139   4.600   0.553
 3666TIP3    H210963   7.123   4.536   0.690
 3667TIP3   OH210964   6.080   2.000   0.441
 3667TIP3    H110965   6.111   2.069   0.500
 3667TIP3    H210966   6.011   2.041   0.390
 3668TIP3   OH210967   1.843   1.909   5.620
 3668TIP3    H110968   1.891   1.844   5.569
 3668TIP3    H210969   1.908   1.944   5.682
 3669TIP3   OH210970   3.722   0.565   2.800
 3669TIP3    H110971   3.712   0.481   2.755
 3669TIP3    H210972   3.635   0.605   2.796
 3670TIP3   OH210973   2.859   2.344   3.213
 3670TIP3    H110974   2.765   2.331   3.227
 3670TIP3    H210975   2.899   2.314   3.295
 3671TIP3   OH210976   1.978   4.741   2.843
 3671TIP3    H110977   2.006   4.830   2.865
 3671TIP3    H210978   1.943   4.706   2.924
 3672TIP3   OH210979   1.062   0.190   4.860
 3672TIP3    H110980   1.085   0.281   4.882
 3672TIP3    H210981   0.967   0.186   4.869
 3673TIP3   OH210982   6.302   0.585   1.464
 3673TIP3    H110983   6.289   0.679   1.475
 3673TIP3    H210984   6.397   0.573   1.472
 3674TIP3   OH210985   6.323   2.042   4.984
 3674TIP3    H110986   6.251   2.029   5.046
 3674TIP3    H210987   6.293   2.001   4.903
 3675TIP3   OH210988   3.888   0.153   4.029
 3675TIP3    H110989   3.866   0.219   3.963
 3675TIP3    H210990   3.804   0.133   4.071
 3676TIP3   OH210991   6.429   2.710   2.511
 3676TIP3    H110992   6.341   2.685   2.538
 3676TIP3    H210993   6.422   2.803   2.489
 3677TIP3   OH210994   1.514   4.405   3.827
 3677TIP3    H110995   1.577   4.376   3.892
 3677TIP3    H210996   1.496   4.327   3.774
 3678TIP3   OH210997   7.104   6.053   1.570
 3678TIP3    H110998   7.055   5.972   1.552
 3678TIP3    H210999   7.152   6.070   1.489
 3679TIP3   OH211000   0.970   2.820   5.369
 3679TIP3    H111001   0.980   2.806   5.275
 3679TIP3    H211002   0.887   2.867   5.378
 3680TIP3   OH211003   4.123   0.344   2.803
 3680TIP3    H111004   4.198   0.350   2.743
 3680TIP3    H211005   4.108   0.250   2.813
 3681TIP3   OH211006   4.483   4.456   5.520
 3681TIP3    H111007   4.567   4.415   5.540
 3681TIP3    H211008   4.487   4.474   5.426
 3682TIP3   OH211009   0.397   3.117   5.736
 3682TIP3    H111010   0.359   3.131   5.650
 3682TIP3    H211011   0.377   3.025   5.756
 3683TIP3   OH211012   2.820   0.206   1.057
 3683TIP3    H111013   2.908   0.173   1.077
 3683TIP3    H211014   2.827   0.239   0.967
 3684TIP3   OH211015   4.377   3.913   5.109
 3684TIP3    H111016   4.420   3.839   5.150
 3684TIP3    H211017   4.301   3.875   5.064
 3685TIP3   OH211018   2.399   1.477   4.590
 3685TIP3    H111019   2.330   1.428   4.636
 3685TIP3    H211020   2.380   1.569   4.610
 3686TIP3   OH211021   1.777   0.663   0.412
 3686TIP3    H111022   1.784   0.682   0.505
 3686TIP3    H211023   1.818   0.738   0.369
 3687TIP3   OH211024   4.002   5.081   1.787
 3687TIP3    H111025   3.977   4.991   1.769
 3687TIP3    H211026   4.054   5.076   1.867
 3688TIP3   OH211027   2.831   1.849   1.691
 3688TIP3    H111028   2.789   1.894   1.617
 3688TIP3    H211029   2.893   1.913   1.725
 3689TIP3   OH211030   5.079   4.491   3.317
 3689TIP3    H111031   5.022   4.503   3.240
 3689TIP3    H211032   5.061   4.567   3.371
 3690TIP3   OH211033   1.377   4.992   3.782
 3690TIP3    H111034   1.297   4.948   3.754
 3690TIP3    H211035   1.391   5.061   3.717
 3691TIP3   OH211036   2.827   3.921   3.058
 3691TIP3    H111037   2.889   3.994   3.066
 3691TIP3    H211038   2.808   3.895   3.149
 3692TIP3   OH211039   5.889   3.152   0.718
 3692TIP3    H111040   5.942   3.076   0.694
 3692TIP3    H211041   5.855   3.131   0.805
 3693TIP3   OH211042   1.797   6.826  -0.007
 3693TIP3    H111043   1.836   6.742   0.017
 3693TIP3    H211044   1.726   6.803  -0.067
 3694TIP3   OH211045   4.893   2.307   0.563
 3694TIP3    H111046   4.962   2.360   0.602
 3694TIP3    H211047   4.818   2.365   0.556
 3695TIP3   OH211048   4.086   4.562   4.134
 3695TIP3    H111049   4.024   4.634   4.121
 3695TIP3    H211050   4.142   4.565   4.056
 3696TIP3   OH211051   4.308   1.784   3.740
 3696TIP3    H111052   4.283   1.718   3.675
 3696TIP3    H211053   4.363   1.845   3.691
 3697TIP3   OH211054   4.745   5.080   2.837
 3697TIP3    H111055   4.678   5.147   2.842
 3697TIP3    H211056   4.735   5.043   2.749
 3698TIP3   OH211057   5.828   1.300   4.896
 3698TIP3    H111058   5.771   1.288   4.972
 3698TIP3    H211059   5.800   1.383   4.857
 3699TIP3   OH211060   0.491   0.737   2.708
 3699TIP3    H111061   0.549   0.749   2.783
 3699TIP3    H211062   0.460   0.825   2.687
 3700TIP3   OH211063   3.304   3.021   5.347
 3700TIP3    H111064   3.321   2.928   5.365
 3700TIP3    H211065   3.390   3.057   5.328
 3701TIP3   OH211066   3.651   3.486   3.361
 3701TIP3    H111067   3.559   3.505   3.378
 3701TIP3    H211068   3.681   3.561   3.308
 3702TIP3   OH211069   0.139   6.669   4.361
 3702TIP3    H111070   0.091   6.668   4.278
 3702TIP3    H211071   0.081   6.712   4.423
 3703TIP3   OH211072   5.293   3.476   0.625
 3703TIP3    H111073   5.329   3.387   0.630
 3703TIP3    H211074   5.361   3.528   0.583
 3704TIP3   OH211075   0.868   1.720   4.920
 3704TIP3    H111076   0.926   1.774   4.974
 3704TIP3    H211077   0.898   1.737   4.830
 3705TIP3   OH211078   1.506   0.770   4.603
 3705TIP3    H111079   1.532   0.848   4.554
 3705TIP3    H211080   1.412   0.779   4.617
 3706TIP3   OH211081   1.995   6.317   2.509
 3706TIP3    H111082   2.001   6.223   2.488
 3706TIP3    H211083   2.029   6.361   2.432
 3707TIP3   OH211084   6.180   0.762   4.390
 3707TIP3    H111085   6.153   0.810   4.468
 3707TIP3    H211086   6.136   0.807   4.318
 3708TIP3   OH211087   4.165   3.810   0.485
 3708TIP3    H111088   4.200   3.742   0.542
 3708TIP3    H211089   4.119   3.870   0.544
 3709TIP3   OH211090   2.611   2.281   0.908
 3709TIP3    H111091   2.627   2.366   0.867
 3709TIP3    H211092   2.648   2.290   0.996
 3710TIP3   OH211093   5.069   1.986   0.395
 3710TIP3    H111094   5.056   2.017   0.485
 3710TIP3    H211095   5.155   1.946   0.395
 3711TIP3   OH211096   5.126   1.433   0.498
 3711TIP3    H111097   5.185   1.432   0.423
 3711TIP3    H211098   5.172   1.382   0.565
 3712TIP3   OH211099   6.779   6.507   4.267
 3712TIP3    H111100   6.784   6.571   4.339
 3712TIP3    H211101   6.840   6.541   4.201
 3713TIP3   OH211102   5.481   5.288   3.361
 3713TIP3    H111103   5.531   5.294   3.280
 3713TIP3    H211104   5.391   5.307   3.335
 3714TIP3   OH211105   2.401   4.889   1.277
 3714TIP3    H111106   2.317   4.898   1.233
 3714TIP3    H211107   2.417   4.795   1.281
 3715TIP3   OH211108   4.714   2.553   5.225
 3715TIP3    H111109   4.653   2.523   5.158
 3715TIP3    H211110   4.680   2.639   5.251
 3716TIP3   OH211111   2.506   4.552   5.403
 3716TIP3    H111112   2.524   4.508   5.486
 3716TIP3    H211113   2.484   4.480   5.343
 3717TIP3   OH211114   2.639   2.228   2.918
 3717TIP3    H111115   2.683   2.234   2.833
 3717TIP3    H211116   2.559   2.180   2.899
 3718TIP3   OH211117   5.002   1.759   3.160
 3718TIP3    H111118   5.021   1.787   3.070
 3718TIP3    H211119   4.913   1.725   3.155
 3719TIP3   OH211120   1.721   6.852   2.795
 3719TIP3    H111121   1.713   6.802   2.876
 3719TIP3    H211122   1.785   6.803   2.743
 3720TIP3   OH211123   3.784   3.011   4.850
 3720TIP3    H111124   3.784   3.048   4.939
 3720TIP3    H211125   3.716   3.059   4.804
 3721TIP3   OH211126   4.209   4.364   5.210
 3721TIP3    H111127   4.152   4.381   5.285
 3721TIP3    H211128   4.229   4.270   5.216
 3722TIP3   OH211129   1.778   4.488   1.314
 3722TIP3    H111130   1.841   4.417   1.327
 3722TIP3    H211131   1.719   4.482   1.390
 3723TIP3   OH211132   4.584   3.456   2.486
 3723TIP3    H111133   4.610   3.366   2.502
 3723TIP3    H211134   4.510   3.450   2.425
 3724TIP3   OH211135   4.344   0.877   0.847
 3724TIP3    H111136   4.311   0.963   0.875
 3724TIP3    H211137   4.396   0.896   0.768
 3725TIP3   OH211138   3.126   1.795   3.879
 3725TIP3    H111139   3.065   1.744   3.826
 3725TIP3    H211140   3.209   1.789   3.832
 3726TIP3   OH211141   4.098   5.112   0.085
 3726TIP3    H111142   4.186   5.142   0.105
 3726TIP3    H211143   4.045   5.192   0.080
 3727TIP3   OH211144   2.804   5.489   0.147
 3727TIP3    H111145   2.829   5.450   0.231
 3727TIP3    H211146   2.861   5.446   0.083
 3728TIP3   OH211147   6.952   3.226   2.714
 3728TIP3    H111148   6.976   3.222   2.807
 3728TIP3    H211149   6.929   3.136   2.692
 3729TIP3   OH211150   5.535   4.064   5.633
 3729TIP3    H111151   5.629   4.049   5.641
 3729TIP3    H211152   5.496   4.000   5.693
 3730TIP3   OH211153   4.061   3.647   4.288
 3730TIP3    H111154   4.067   3.563   4.335
 3730TIP3    H211155   4.035   3.623   4.199
 3731TIP3   OH211156   1.110   4.225   0.654
 3731TIP3    H111157   1.033   4.218   0.710
 3731TIP3    H211158   1.116   4.318   0.632
 3732TIP3   OH211159   1.381   4.197   2.774
 3732TIP3    H111160   1.423   4.170   2.692
 3732TIP3    H211161   1.454   4.219   2.832
 3733TIP3   OH211162   0.255   1.535   5.861
 3733TIP3    H111163   0.233   1.606   5.802
 3733TIP3    H211164   0.320   1.483   5.813
 3734TIP3   OH211165   2.977   2.209   4.035
 3734TIP3    H111166   2.964   2.256   4.117
 3734TIP3    H211167   3.050   2.150   4.053
 3735TIP3   OH211168   2.143   3.584   3.610
 3735TIP3    H111169   2.238   3.576   3.621
 3735TIP3    H211170   2.130   3.589   3.516
 3736TIP3   OH211171   3.769   1.998   2.930
 3736TIP3    H111172   3.818   1.933   2.880
 3736TIP3    H211173   3.833   2.067   2.949
 3737TIP3   OH211174   1.888   2.512   3.395
 3737TIP3    H111175   1.810   2.459   3.381
 3737TIP3    H211176   1.961   2.451   3.379
 3738TIP3   OH211177   4.544   1.565   5.293
 3738TIP3    H111178   4.463   1.514   5.302
 3738TIP3    H211179   4.614   1.500   5.298
 3739TIP3   OH211180   4.265   1.259   5.497
 3739TIP3    H111181   4.234   1.306   5.420
 3739TIP3    H211182   4.285   1.171   5.464
 3740TIP3   OH211183   3.780   2.192   2.528
 3740TIP3    H111184   3.781   2.131   2.602
 3740TIP3    H211185   3.846   2.258   2.551
 3741TIP3   OH211186   0.500   3.911   3.918
 3741TIP3    H111187   0.421   3.961   3.897
 3741TIP3    H211188   0.467   3.831   3.960
 3742TIP3   OH211189   1.038   2.490   1.283
 3742TIP3    H111190   1.062   2.582   1.268
 3742TIP3    H211191   1.115   2.441   1.255
 3743TIP3   OH211192   2.779   3.611   0.108
 3743TIP3    H111193   2.767   3.698   0.069
 3743TIP3    H211194   2.693   3.589   0.144
 3744TIP3   OH211195   4.079   5.341   2.005
 3744TIP3    H111196   4.097   5.435   2.011
 3744TIP3    H211197   4.051   5.328   1.915
 3745TIP3   OH211198   5.753   0.404   0.204
 3745TIP3    H111199   5.790   0.316   0.205
 3745TIP3    H211200   5.698   0.408   0.282
 3746TIP3   OH211201   1.250   0.913   4.250
 3746TIP3    H111202   1.222   0.876   4.334
 3746TIP3    H211203   1.176   0.968   4.223
 3747TIP3   OH211204   2.649   5.988   0.424
 3747TIP3    H111205   2.711   6.048   0.467
 3747TIP3    H211206   2.659   5.906   0.471
 3748TIP3   OH211207   1.694   5.867   4.824
 3748TIP3    H111208   1.611   5.881   4.779
 3748TIP3    H211209   1.755   5.927   4.780
 3749TIP3   OH211210   4.212   3.825   1.505
 3749TIP3    H111211   4.132   3.872   1.530
 3749TIP3    H211212   4.233   3.860   1.418
 3750TIP3   OH211213   4.260   5.170   1.552
 3750TIP3    H111214   4.340   5.221   1.564
 3750TIP3    H211215   4.189   5.234   1.553
 3751TIP3   OH211216   3.259   5.688   4.448
 3751TIP3    H111217   3.183   5.745   4.463
 3751TIP3    H211218   3.326   5.747   4.413
 3752TIP3   OH211219   3.961   2.334   1.463
 3752TIP3    H111220   3.981   2.427   1.465
 3752TIP3    H211221   3.917   2.317   1.546
 3753TIP3   OH211222   1.737   4.082   2.684
 3753TIP3    H111223   1.645   4.093   2.661
 3753TIP3    H211224   1.758   4.159   2.737
 3754TIP3   OH211225   1.443   2.201   2.638
 3754TIP3    H111226   1.466   2.138   2.707
 3754TIP3    H211227   1.482   2.165   2.559
 3755TIP3   OH211228   0.194   4.967   5.304
 3755TIP3    H111229   0.261   5.010   5.357
 3755TIP3    H211230   0.149   4.909   5.366
 3756TIP3   OH211231   0.332   0.116   5.707
 3756TIP3    H111232   0.358   0.080   5.622
 3756TIP3    H211233   0.404   0.094   5.766
 3757TIP3   OH211234   4.420   2.994   1.942
 3757TIP3    H111235   4.435   3.054   1.869
 3757TIP3    H211236   4.327   2.972   1.936
 3758TIP3   OH211237   6.709   0.903   4.086
 3758TIP3    H111238   6.776   0.910   4.153
 3758TIP3    H211239   6.725   0.820   4.043
 3759TIP3   OH211240   1.965   6.135   4.978
 3759TIP3    H111241   1.990   6.215   4.932
 3759TIP3    H211242   1.940   6.075   4.908
 3760TIP3   OH211243   6.614   4.935   3.045
 3760TIP3    H111244   6.598   4.937   3.140
 3760TIP3    H211245   6.702   4.970   3.035
 3761TIP3   OH211246   0.753   0.334   1.113
 3761TIP3    H111247   0.773   0.290   1.195
 3761TIP3    H211248   0.724   0.264   1.055
 3762TIP3   OH211249   2.661   1.079   4.196
 3762TIP3    H111250   2.620   1.123   4.123
 3762TIP3    H211251   2.595   1.080   4.266
 3763TIP3   OH211252   0.135   4.444   0.122
 3763TIP3    H111253   0.203   4.379   0.102
 3763TIP3    H211254   0.162   4.522   0.073
 3764TIP3   OH211255  -0.019   2.426   5.502
 3764TIP3    H111256   0.043   2.378   5.447
 3764TIP3    H211257   0.009   2.517   5.495
 3765TIP3   OH211258   0.376   0.558   3.402
 3765TIP3    H111259   0.421   0.478   3.431
 3765TIP3    H211260   0.288   0.528   3.379
 3766TIP3   OH211261   5.175   1.990   5.573
 3766TIP3    H111262   5.121   2.068   5.572
 3766TIP3    H211263   5.116   1.919   5.549
 3767TIP3   OH211264   4.137   1.468   4.388
 3767TIP3    H111265   4.180   1.461   4.303
 3767TIP3    H211266   4.156   1.557   4.417
 3768TIP3   OH211267   5.535   2.124   1.832
 3768TIP3    H111268   5.522   2.208   1.876
 3768TIP3    H211269   5.449   2.082   1.836
 3769TIP3   OH211270   6.484   0.371   1.324
 3769TIP3    H111271   6.402   0.373   1.374
 3769TIP3    H211272   6.456   0.377   1.232
 3770TIP3   OH211273   6.929   1.944   1.550
 3770TIP3    H111274   6.937   1.920   1.642
 3770TIP3    H211275   6.939   2.039   1.548
 3771TIP3   OH211276   1.134   6.000   5.890
 3771TIP3    H111277   1.155   6.091   5.866
 3771TIP3    H211278   1.054   5.980   5.842
 3772TIP3   OH211279   5.299   1.973   4.718
 3772TIP3    H111280   5.374   1.918   4.742
 3772TIP3    H211281   5.328   2.018   4.639
 3773TIP3   OH211282   1.951   0.488   3.832
 3773TIP3    H111283   1.892   0.431   3.782
 3773TIP3    H211284   1.916   0.486   3.921
 3774TIP3   OH211285   0.342   1.546   3.987
 3774TIP3    H111286   0.320   1.523   4.077
 3774TIP3    H211287   0.316   1.638   3.978
 3775TIP3   OH211288   5.234   4.009   5.763
 3775TIP3    H111289   5.301   3.942   5.776
 3775TIP3    H211290   5.197   4.024   5.850
 3776TIP3   OH211291   4.516   0.238   2.395
 3776TIP3    H111292   4.524   0.161   2.453
 3776TIP3    H211293   4.580   0.300   2.430
 3777TIP3   OH211294   0.850   4.062   1.158
 3777TIP3    H111295   0.846   4.142   1.106
 3777TIP3    H211296   0.937   4.064   1.199
 3778TIP3   OH211297   1.349   2.895   2.056
 3778TIP3    H111298   1.264   2.856   2.077
 3778TIP3    H211299   1.329   2.972   2.002
 3779TIP3   OH211300   4.882   6.345   0.424
 3779TIP3    H111301   4.949   6.414   0.427
 3779TIP3    H211302   4.925   6.268   0.460
 3780TIP3   OH211303   5.888   2.583   3.165
 3780TIP3    H111304   5.933   2.658   3.206
 3780TIP3    H211305   5.795   2.605   3.170
 3781TIP3   OH211306   5.861   6.622   0.868
 3781TIP3    H111307   5.821   6.553   0.922
 3781TIP3    H211308   5.940   6.646   0.916
 3782TIP3   OH211309   0.397   1.290   2.303
 3782TIP3    H111310   0.346   1.353   2.354
 3782TIP3    H211311   0.379   1.206   2.345
 3783TIP3   OH211312   4.778   5.832   4.630
 3783TIP3    H111313   4.705   5.872   4.584
 3783TIP3    H211314   4.743   5.808   4.716
 3784TIP3   OH211315   4.352   0.591   4.838
 3784TIP3    H111316   4.278   0.531   4.846
 3784TIP3    H211317   4.382   0.580   4.748
 3785TIP3   OH211318   5.089   5.121   3.860
 3785TIP3    H111319   5.181   5.097   3.868
 3785TIP3    H211320   5.059   5.135   3.949
 3786TIP3   OH211321   6.936   0.685   1.008
 3786TIP3    H111322   6.913   0.680   0.915
 3786TIP3    H211323   6.903   0.771   1.036
 3787TIP3   OH211324   5.378   6.473   3.189
 3787TIP3    H111325   5.387   6.420   3.268
 3787TIP3    H211326   5.422   6.555   3.209
 3788TIP3   OH211327   4.245   4.298   3.724
 3788TIP3    H111328   4.189   4.372   3.749
 3788TIP3    H211329   4.312   4.337   3.668
 3789TIP3   OH211330   4.256   2.793   4.165
 3789TIP3    H111331   4.194   2.804   4.093
 3789TIP3    H211332   4.326   2.738   4.129
 3790TIP3   OH211333   3.202   1.536   1.565
 3790TIP3    H111334   3.130   1.481   1.596
 3790TIP3    H211335   3.234   1.491   1.487
 3791TIP3   OH211336   2.665   5.694   5.724
 3791TIP3    H111337   2.712   5.665   5.802
 3791TIP3    H211338   2.733   5.714   5.660
 3792TIP3   OH211339   6.844   6.039   4.301
 3792TIP3    H111340   6.900   5.962   4.308
 3792TIP3    H211341   6.902   6.112   4.324
 3793TIP3   OH211342   5.381   2.871   0.481
 3793TIP3    H111343   5.459   2.843   0.433
 3793TIP3    H211344   5.408   2.875   0.572
 3794TIP3   OH211345   2.752   6.655   5.813
 3794TIP3    H111346   2.721   6.679   5.725
 3794TIP3    H211347   2.683   6.600   5.849
 3795TIP3   OH211348   3.470   4.975   3.903
 3795TIP3    H111349   3.558   4.947   3.928
 3795TIP3    H211350   3.422   4.894   3.886
 3796TIP3   OH211351   1.242   4.298   4.761
 3796TIP3    H111352   1.163   4.320   4.711
 3796TIP3    H211353   1.247   4.202   4.755
 3797TIP3   OH211354   7.196   3.928   4.863
 3797TIP3    H111355   7.129   3.995   4.850
 3797TIP3    H211356   7.153   3.845   4.844
 3798TIP3   OH211357   2.251   0.727   0.756
 3798TIP3    H111358   2.276   0.752   0.668
 3798TIP3    H211359   2.328   0.746   0.809
 3799TIP3   OH211360   6.582   2.697   5.598
 3799TIP3    H111361   6.591   2.633   5.669
 3799TIP3    H211362   6.611   2.651   5.520
 3800TIP3   OH211363   1.783   3.643   5.680
 3800TIP3    H111364   1.728   3.569   5.706
 3800TIP3    H211365   1.750   3.717   5.730
 3801TIP3   OH211366   3.990   4.460   0.994
 3801TIP3    H111367   4.060   4.523   0.978
 3801TIP3    H211368   4.035   4.378   1.012
 3802TIP3   OH211369   7.148   4.522   1.287
 3802TIP3    H111370   7.172   4.607   1.251
 3802TIP3    H211371   7.122   4.540   1.378
 3803TIP3   OH211372   2.325   5.937   4.912
 3803TIP3    H111373   2.400   5.885   4.885
 3803TIP3    H211374   2.358   6.027   4.914
 3804TIP3   OH211375   1.866   4.445   1.839
 3804TIP3    H111376   1.812   4.524   1.835
 3804TIP3    H211377   1.822   4.389   1.903
 3805TIP3   OH211378   2.390   5.657   1.930
 3805TIP3    H111379   2.342   5.574   1.925
 3805TIP3    H211380   2.439   5.661   1.848
 3806TIP3   OH211381   0.440   5.365   3.365
 3806TIP3    H111382   0.451   5.277   3.329
 3806TIP3    H211383   0.529   5.396   3.380
 3807TIP3   OH211384   5.407   6.070   5.226
 3807TIP3    H111385   5.409   6.003   5.158
 3807TIP3    H211386   5.329   6.123   5.206
 3808TIP3   OH211387   0.906   2.970   3.701
 3808TIP3    H111388   0.898   3.034   3.771
 3808TIP3    H211389   0.832   2.988   3.643
 3809TIP3   OH211390   1.158   4.250   0.062
 3809TIP3    H111391   1.130   4.275   0.150
 3809TIP3    H211392   1.077   4.231   0.015
 3810TIP3   OH211393   1.362   1.204   0.138
 3810TIP3    H111394   1.288   1.252   0.175
 3810TIP3    H211395   1.369   1.236   0.048
 3811TIP3   OH211396   1.049   0.450   4.981
 3811TIP3    H111397   0.963   0.492   4.990
 3811TIP3    H211398   1.076   0.471   4.891
 3812TIP3   OH211399   4.993   6.399   3.436
 3812TIP3    H111400   5.040   6.317   3.451
 3812TIP3    H211401   4.920   6.396   3.497
 3813TIP3   OH211402   5.816   6.254   4.353
 3813TIP3    H111403   5.735   6.250   4.302
 3813TIP3    H211404   5.789   6.286   4.439
 3814TIP3   OH211405   3.485   1.739   0.068
 3814TIP3    H111406   3.517   1.747   0.158
 3814TIP3    H211407   3.562   1.719   0.016
 3815TIP3   OH211408   5.787   4.898   3.628
 3815TIP3    H111409   5.864   4.884   3.682
 3815TIP3    H211410   5.798   4.840   3.553
 3816TIP3   OH211411   0.640   1.098   0.346
 3816TIP3    H111412   0.555   1.091   0.302
 3816TIP3    H211413   0.626   1.056   0.431
 3817TIP3   OH211414   0.181   4.855   0.255
 3817TIP3    H111415   0.086   4.849   0.267
 3817TIP3    H211416   0.218   4.820   0.336
 3818TIP3   OH211417   4.428   3.213   4.368
 3818TIP3    H111418   4.389   3.166   4.442
 3818TIP3    H211419   4.401   3.304   4.382
 3819TIP3   OH211420   3.835   5.932   4.219
 3819TIP3    H111421   3.776   5.861   4.193
 3819TIP3    H211422   3.843   5.923   4.314
 3820TIP3   OH211423   4.800   3.696   1.753
 3820TIP3    H111424   4.807   3.635   1.827
 3820TIP3    H211425   4.808   3.783   1.793
 3821TIP3   OH211426   1.351   1.886   3.286
 3821TIP3    H111427   1.345   1.901   3.191
 3821TIP3    H211428   1.394   1.965   3.320
 3822TIP3   OH211429   1.371   5.761   1.380
 3822TIP3    H111430   1.338   5.815   1.309
 3822TIP3    H211431   1.463   5.745   1.357
 3823TIP3   OH211432   0.536   1.182   2.035
 3823TIP3    H111433   0.523   1.125   1.958
 3823TIP3    H211434   0.448   1.194   2.071
 3824TIP3   OH211435   3.348   0.078   1.323
 3824TIP3    H111436   3.319   0.091   1.413
 3824TIP3    H211437   3.419   0.142   1.311
 3825TIP3   OH211438   3.071   0.077   1.042
 3825TIP3    H111439   3.067   0.021   1.119
 3825TIP3    H211440   3.164   0.080   1.019
 3826TIP3   OH211441   3.634   1.472   3.886
 3826TIP3    H111442   3.602   1.412   3.819
 3826TIP3    H211443   3.724   1.444   3.902
 3827TIP3   OH211444   0.341   4.258   3.132
 3827TIP3    H111445   0.429   4.285   3.161
 3827TIP3    H211446   0.339   4.164   3.149
 3828TIP3   OH211447   3.001   3.085   4.444
 3828TIP3    H111448   2.948   3.018   4.488
 3828TIP3    H211449   2.945   3.163   4.445
 3829TIP3   OH211450   3.656   0.093   5.876
 3829TIP3    H111451   3.620   0.181   5.863
 3829TIP3    H211452   3.668   0.085   5.971
 3830TIP3   OH211453   1.701   2.836   3.949
 3830TIP3    H111454   1.755   2.859   4.025
 3830TIP3    H211455   1.755   2.858   3.873
 3831TIP3   OH211456   2.246   5.386   0.724
 3831TIP3    H111457   2.331   5.375   0.767
 3831TIP3    H211458   2.191   5.317   0.760
 3832TIP3   OH211459   4.617   0.960   4.405
 3832TIP3    H111460   4.575   0.897   4.346
 3832TIP3    H211461   4.593   1.045   4.370
 3833TIP3   OH211462   3.763   0.721   4.949
 3833TIP3    H111463   3.719   0.648   4.905
 3833TIP3    H211464   3.855   0.711   4.925
 3834TIP3   OH211465   5.650   0.399   0.476
 3834TIP3    H111466   5.721   0.389   0.539
 3834TIP3    H211467   5.571   0.409   0.530
 3835TIP3   OH211468   6.181   3.711   0.178
 3835TIP3    H111469   6.248   3.770   0.213
 3835TIP3    H211470   6.154   3.753   0.096
 3836TIP3   OH211471   4.532   6.505   5.707
 3836TIP3    H111472   4.497   6.416   5.704
 3836TIP3    H211473   4.465   6.558   5.663
 3837TIP3   OH211474   5.009   4.124   5.629
 3837TIP3    H111475   5.010   4.170   5.545
 3837TIP3    H211476   5.097   4.135   5.664
 3838TIP3   OH211477   1.493   0.641   0.143
 3838TIP3    H111478   1.417   0.695   0.163
 3838TIP3    H211479   1.555   0.660   0.213
 3839TIP3   OH211480   5.986   2.790   3.306
 3839TIP3    H111481   5.962   2.876   3.341
 3839TIP3    H211482   6.002   2.736   3.383
 3840TIP3   OH211483   7.126   1.160   4.232
 3840TIP3    H111484   7.166   1.141   4.317
 3840TIP3    H211485   7.109   1.254   4.233
 3841TIP3   OH211486   0.013   5.505   5.556
 3841TIP3    H111487   0.014   5.425   5.503
 3841TIP3    H211488   0.068   5.484   5.632
 3842TIP3   OH211489   4.633   2.142   3.838
 3842TIP3    H111490   4.631   2.234   3.812
 3842TIP3    H211491   4.726   2.119   3.841
 3843TIP3   OH211492   4.469   3.501   2.037
 3843TIP3    H111493   4.474   3.444   1.961
 3843TIP3    H211494   4.531   3.572   2.018
 3844TIP3   OH211495   5.328   0.919   4.071
 3844TIP3    H111496   5.378   0.990   4.031
 3844TIP3    H211497   5.355   0.841   4.024
 3845TIP3   OH211498   0.521   3.985   0.437
 3845TIP3    H111499   0.570   4.011   0.515
 3845TIP3    H211500   0.501   3.893   0.452
 3846TIP3   OH211501   1.709   2.424   1.227
 3846TIP3    H111502   1.678   2.336   1.247
 3846TIP3    H211503   1.646   2.457   1.162
 3847TIP3   OH211504   0.246   5.175   1.142
 3847TIP3    H111505   0.207   5.260   1.122
 3847TIP3    H211506   0.187   5.137   1.207
 3848TIP3   OH211507   0.883   2.819   0.328
 3848TIP3    H111508   0.815   2.781   0.384
 3848TIP3    H211509   0.866   2.781   0.241
 3849TIP3   OH211510   5.998   3.182   4.125
 3849TIP3    H111511   5.913   3.141   4.114
 3849TIP3    H211512   6.056   3.133   4.067
 3850TIP3   OH211513   7.048   0.117   4.983
 3850TIP3    H111514   7.033   0.143   5.073
 3850TIP3    H211515   6.998   0.036   4.972
 3851TIP3   OH211516   0.399   0.447   4.373
 3851TIP3    H111517   0.415   0.354   4.357
 3851TIP3    H211518   0.486   0.486   4.378
 3852TIP3   OH211519   0.183   4.383   1.304
 3852TIP3    H111520   0.156   4.315   1.242
 3852TIP3    H211521   0.101   4.422   1.334
 3853TIP3   OH211522   0.697   3.302   1.996
 3853TIP3    H111523   0.622   3.270   2.046
 3853TIP3    H211524   0.668   3.301   1.905
 3854TIP3   OH211525   3.188   4.098   1.374
 3854TIP3    H111526   3.152   4.029   1.318
 3854TIP3    H211527   3.235   4.156   1.315
 3855TIP3   OH211528   3.604   1.957   2.595
 3855TIP3    H111529   3.647   1.876   2.622
 3855TIP3    H211530   3.596   1.948   2.500
 3856TIP3   OH211531   0.577   3.839   1.269
 3856TIP3    H111532   0.646   3.839   1.335
 3856TIP3    H211533   0.596   3.764   1.214
 3857TIP3   OH211534   6.864   2.762   3.501
 3857TIP3    H111535   6.884   2.669   3.488
 3857TIP3    H211536   6.801   2.763   3.572
 3858TIP3   OH211537   1.765   4.727   1.777
 3858TIP3    H111538   1.806   4.811   1.754
 3858TIP3    H211539   1.727   4.696   1.695
 3859TIP3   OH211540   6.166   1.441   0.546
 3859TIP3    H111541   6.225   1.403   0.480
 3859TIP3    H211542   6.160   1.373   0.614
 3860TIP3   OH211543   6.500   6.576   5.952
 3860TIP3    H111544   6.501   6.588   5.857
 3860TIP3    H211545   6.592   6.558   5.974
 3861TIP3   OH211546   3.371   5.624   5.144
 3861TIP3    H111547   3.311   5.580   5.204
 3861TIP3    H211548   3.377   5.565   5.069
 3862TIP3   OH211549   4.721   5.297   0.512
 3862TIP3    H111550   4.671   5.216   0.503
 3862TIP3    H211551   4.805   5.279   0.469
 3863TIP3   OH211552   3.537   1.633   2.928
 3863TIP3    H111553   3.594   1.701   2.965
 3863TIP3    H211554   3.591   1.588   2.864
 3864TIP3   OH211555   3.273   0.668   2.134
 3864TIP3    H111556   3.237   0.606   2.069
 3864TIP3    H211557   3.363   0.638   2.147
 3865TIP3   OH211558   2.764   4.277   1.401
 3865TIP3    H111559   2.714   4.325   1.467
 3865TIP3    H211560   2.836   4.237   1.450
 3866TIP3   OH211561   6.731   6.687   3.899
 3866TIP3    H111562   6.669   6.749   3.938
 3866TIP3    H211563   6.684   6.604   3.898
 3867TIP3   OH211564   6.948   3.581   1.025
 3867TIP3    H111565   6.962   3.675   1.031
 3867TIP3    H211566   6.991   3.545   1.102
 3868TIP3   OH211567   0.370   3.823   2.201
 3868TIP3    H111568   0.368   3.816   2.106
 3868TIP3    H211569   0.382   3.917   2.219
 3869TIP3   OH211570   3.383   2.690   5.172
 3869TIP3    H111571   3.409   2.773   5.130
 3869TIP3    H211572   3.447   2.626   5.140
 3870TIP3   OH211573   3.836   4.904   5.640
 3870TIP3    H111574   3.793   4.950   5.713
 3870TIP3    H211575   3.840   4.969   5.570
 3871TIP3   OH211576  -0.029   2.056   1.697
 3871TIP3    H111577  -0.065   2.084   1.613
 3871TIP3    H211578   0.015   1.974   1.678
 3872TIP3   OH211579   3.434   5.457   3.656
 3872TIP3    H111580   3.379   5.482   3.582
 3872TIP3    H211581   3.401   5.510   3.729
 3873TIP3   OH211582   2.235   4.500   1.317
 3873TIP3    H111583   2.180   4.476   1.243
 3873TIP3    H211584   2.209   4.589   1.338
 3874TIP3   OH211585   6.102   4.315   2.507
 3874TIP3    H111586   6.168   4.369   2.550
 3874TIP3    H211587   6.086   4.243   2.568
 3875TIP3   OH211588   0.032   6.057   4.127
 3875TIP3    H111589   0.061   6.066   4.036
 3875TIP3    H211590   0.112   6.051   4.177
 3876TIP3   OH211591   3.620   1.912   3.131
 3876TIP3    H111592   3.593   1.988   3.183
 3876TIP3    H211593   3.642   1.949   3.045
 3877TIP3   OH211594   0.409   2.090   4.774
 3877TIP3    H111595   0.348   2.152   4.813
 3877TIP3    H211596   0.488   2.141   4.756
 3878TIP3   OH211597   2.861   3.823   5.601
 3878TIP3    H111598   2.908   3.881   5.661
 3878TIP3    H211599   2.769   3.849   5.608
 3879TIP3   OH211600   4.766   3.138   1.406
 3879TIP3    H111601   4.824   3.155   1.331
 3879TIP3    H211602   4.711   3.216   1.412
 3880TIP3   OH211603   6.292   0.867   1.431
 3880TIP3    H111604   6.249   0.937   1.480
 3880TIP3    H211605   6.308   0.904   1.345
 3881TIP3   OH211606   4.418   6.602   1.574
 3881TIP3    H111607   4.456   6.682   1.610
 3881TIP3    H211608   4.340   6.586   1.627
 3882TIP3   OH211609   3.314   2.742   5.685
 3882TIP3    H111610   3.249   2.756   5.753
 3882TIP3    H211611   3.364   2.666   5.715
 3883TIP3   OH211612   6.420   5.575   3.949
 3883TIP3    H111613   6.358   5.595   3.878
 3883TIP3    H211614   6.367   5.575   4.028
 3884TIP3   OH211615   6.655   2.237   0.412
 3884TIP3    H111616   6.596   2.275   0.477
 3884TIP3    H211617   6.604   2.167   0.371
 3885TIP3   OH211618   4.589   4.683   3.957
 3885TIP3    H111619   4.599   4.767   3.912
 3885TIP3    H211620   4.613   4.618   3.890
 3886TIP3   OH211621   2.945   4.314   4.523
 3886TIP3    H111622   2.951   4.327   4.429
 3886TIP3    H211623   2.898   4.231   4.534
 3887TIP3   OH211624   3.850   3.854  -0.052
 3887TIP3    H111625   3.919   3.809  -0.003
 3887TIP3    H211626   3.831   3.932  -0.001
 3888TIP3   OH211627   6.671   1.708   3.210
 3888TIP3    H111628   6.645   1.790   3.166
 3888TIP3    H211629   6.597   1.686   3.266
 3889TIP3   OH211630   5.948   4.987   0.961
 3889TIP3    H111631   6.036   5.016   0.936
 3889TIP3    H211632   5.892   5.016   0.889
 3890TIP3   OH211633   2.968   2.238   5.013
 3890TIP3    H111634   3.008   2.153   5.028
 3890TIP3    H211635   2.985   2.256   4.920
 3891TIP3   OH211636   2.431   4.380   1.943
 3891TIP3    H111637   2.337   4.396   1.937
 3891TIP3    H211638   2.472   4.462   1.917
 3892TIP3   OH211639   6.573   2.721   4.946
 3892TIP3    H111640   6.544   2.660   5.014
 3892TIP3    H211641   6.665   2.698   4.931
 3893TIP3   OH211642   4.179   2.240   3.253
 3893TIP3    H111643   4.191   2.201   3.166
 3893TIP3    H211644   4.116   2.311   3.239
 3894TIP3   OH211645   1.438   5.213   3.318
 3894TIP3    H111646   1.465   5.203   3.409
 3894TIP3    H211647   1.485   5.145   3.271
 3895TIP3   OH211648   1.497   1.903   0.613
 3895TIP3    H111649   1.570   1.942   0.564
 3895TIP3    H211650   1.529   1.816   0.637
 3896TIP3   OH211651   4.203   1.493   5.776
 3896TIP3    H111652   4.243   1.406   5.769
 3896TIP3    H211653   4.154   1.504   5.694
 3897TIP3   OH211654   4.144   4.280   1.506
 3897TIP3    H111655   4.169   4.302   1.416
 3897TIP3    H211656   4.106   4.360   1.541
 3898TIP3   OH211657   4.616   3.290   3.311
 3898TIP3    H111658   4.701   3.309   3.271
 3898TIP3    H211659   4.572   3.375   3.315
 3899TIP3   OH211660   0.804   0.462   0.402
 3899TIP3    H111661   0.779   0.535   0.458
 3899TIP3    H211662   0.876   0.496   0.349
 3900TIP3   OH211663   0.531   3.184   1.028
 3900TIP3    H111664   0.545   3.115   0.963
 3900TIP3    H211665   0.473   3.145   1.092
 3901TIP3   OH211666   6.825   2.597   0.048
 3901TIP3    H111667   6.740   2.639   0.036
 3901TIP3    H211668   6.811   2.536   0.120
 3902TIP3   OH211669   0.068   2.352   4.019
 3902TIP3    H111670   0.118   2.314   4.091
 3902TIP3    H211671   0.072   2.286   3.949
 3903TIP3   OH211672   5.864   4.480   3.404
 3903TIP3    H111673   5.945   4.529   3.395
 3903TIP3    H211674   5.796   4.539   3.371
 3904TIP3   OH211675   6.727   2.523   2.014
 3904TIP3    H111676   6.725   2.617   1.994
 3904TIP3    H211677   6.816   2.496   1.989
 3905TIP3   OH211678   6.480   1.029   4.879
 3905TIP3    H111679   6.560   1.062   4.838
 3905TIP3    H211680   6.495   1.038   4.973
 3906TIP3   OH211681   3.361   0.197   5.682
 3906TIP3    H111682   3.454   0.202   5.706
 3906TIP3    H211683   3.337   0.288   5.661
 3907TIP3   OH211684   5.189   3.336   2.107
 3907TIP3    H111685   5.257   3.384   2.154
 3907TIP3    H211686   5.217   3.337   2.016
 3908TIP3   OH211687   6.396   3.438   0.400
 3908TIP3    H111688   6.430   3.469   0.316
 3908TIP3    H211689   6.429   3.501   0.464
 3909TIP3   OH211690   0.708   1.949   3.905
 3909TIP3    H111691   0.756   1.965   3.823
 3909TIP3    H211692   0.642   2.018   3.908
 3910TIP3   OH211693   7.078   6.063   2.691
 3910TIP3    H111694   7.136   6.054   2.767
 3910TIP3    H211695   7.131   6.107   2.625
 3911TIP3   OH211696   1.848   5.249   5.529
 3911TIP3    H111697   1.756   5.246   5.555
 3911TIP3    H211698   1.856   5.332   5.481
 3912TIP3   OH211699   0.668   6.465   4.020
 3912TIP3    H111700   0.751   6.465   4.067
 3912TIP3    H211701   0.644   6.557   4.013
 3913TIP3   OH211702   3.277   6.146   3.288
 3913TIP3    H111703   3.303   6.238   3.287
 3913TIP3    H211704   3.347   6.101   3.336
 3914TIP3   OH211705   1.550   2.468   0.206
 3914TIP3    H111706   1.484   2.485   0.139
 3914TIP3    H211707   1.604   2.397   0.170
 3915TIP3   OH211708   7.050   0.203   5.249
 3915TIP3    H111709   7.080   0.269   5.312
 3915TIP3    H211710   7.123   0.141   5.243
 3916TIP3   OH211711   3.293   2.906   1.327
 3916TIP3    H111712   3.343   2.958   1.265
 3916TIP3    H211713   3.210   2.953   1.336
 3917TIP3   OH211714   5.523   0.558   2.227
 3917TIP3    H111715   5.509   0.572   2.321
 3917TIP3    H211716   5.617   0.542   2.220
 3918TIP3   OH211717   1.292   4.250   4.455
 3918TIP3    H111718   1.222   4.313   4.444
 3918TIP3    H211719   1.249   4.171   4.488
 3919TIP3   OH211720   1.579   0.414   1.277
 3919TIP3    H111721   1.570   0.421   1.182
 3919TIP3    H211722   1.621   0.496   1.303
 3920TIP3   OH211723   2.828   0.842   4.541
 3920TIP3    H111724   2.764   0.803   4.482
 3920TIP3    H211725   2.843   0.930   4.506
 3921TIP3   OH211726   2.457   2.803   3.298
 3921TIP3    H111727   2.539   2.754   3.292
 3921TIP3    H211728   2.393   2.747   3.254
 3922TIP3   OH211729   2.636   2.625   1.074
 3922TIP3    H111730   2.626   2.663   1.161
 3922TIP3    H211731   2.724   2.589   1.072
 3923TIP3   OH211732   5.271   1.056   3.456
 3923TIP3    H111733   5.352   1.007   3.469
 3923TIP3    H211734   5.213   1.027   3.527
 3924TIP3   OH211735   1.884   6.279   1.435
 3924TIP3    H111736   1.880   6.375   1.433
 3924TIP3    H211737   1.798   6.252   1.467
 3925TIP3   OH211738   2.353   5.141   1.108
 3925TIP3    H111739   2.361   5.097   1.023
 3925TIP3    H211740   2.273   5.104   1.146
 3926TIP3   OH211741   3.496   2.787   0.016
 3926TIP3    H111742   3.528   2.697   0.023
 3926TIP3    H211743   3.437   2.785  -0.060
 3927TIP3   OH211744   2.331   4.795   3.888
 3927TIP3    H111745   2.350   4.766   3.977
 3927TIP3    H211746   2.406   4.763   3.837
 3928TIP3   OH211747   4.023   2.268   2.610
 3928TIP3    H111748   4.051   2.358   2.595
 3928TIP3    H211749   4.088   2.232   2.671
 3929TIP3   OH211750   3.911   1.896   4.708
 3929TIP3    H111751   3.859   1.910   4.629
 3929TIP3    H211752   3.854   1.848   4.767
 3930TIP3   OH211753   5.728   3.440   2.021
 3930TIP3    H111754   5.718   3.492   1.942
 3930TIP3    H211755   5.670   3.365   2.009
 3931TIP3   OH211756   4.623   6.646   1.793
 3931TIP3    H111757   4.709   6.659   1.754
 3931TIP3    H211758   4.568   6.715   1.756
 3932TIP3   OH211759   2.100   1.291   3.623
 3932TIP3    H111760   2.049   1.370   3.642
 3932TIP3    H211761   2.039   1.234   3.576
 3933TIP3   OH211762   6.061   1.475   1.328
 3933TIP3    H111763   6.066   1.493   1.422
 3933TIP3    H211764   6.059   1.562   1.288
 3934TIP3   OH211765   2.075   1.138   0.982
 3934TIP3    H111766   2.143   1.200   1.010
 3934TIP3    H211767   2.115   1.091   0.908
 3935TIP3   OH211768   1.114   4.610   5.392
 3935TIP3    H111769   1.185   4.658   5.349
 3935TIP3    H211770   1.123   4.520   5.360
 3936TIP3   OH211771   4.824   0.106   4.172
 3936TIP3    H111772   4.834   0.047   4.247
 3936TIP3    H211773   4.897   0.167   4.181
 3937TIP3   OH211774   5.982   5.603   0.526
 3937TIP3    H111775   5.889   5.580   0.532
 3937TIP3    H211776   5.988   5.689   0.566
 3938TIP3   OH211777   2.607   4.201   1.002
 3938TIP3    H111778   2.558   4.120   1.019
 3938TIP3    H211779   2.543   4.260   0.962
 3939TIP3   OH211780   4.806   2.960   1.846
 3939TIP3    H111781   4.887   2.917   1.817
 3939TIP3    H211782   4.835   3.041   1.888
 3940TIP3   OH211783   2.855   6.245   3.804
 3940TIP3    H111784   2.766   6.218   3.785
 3940TIP3    H211785   2.845   6.328   3.852
 3941TIP3   OH211786   6.696   3.952   1.016
 3941TIP3    H111787   6.618   3.959   1.071
 3941TIP3    H211788   6.683   3.871   0.966
 3942TIP3   OH211789   7.089   4.758   3.611
 3942TIP3    H111790   7.158   4.732   3.672
 3942TIP3    H211791   7.133   4.774   3.528
 3943TIP3   OH211792   6.303   1.024   2.503
 3943TIP3    H111793   6.259   1.093   2.553
 3943TIP3    H211794   6.323   0.957   2.568
 3944TIP3   OH211795   2.458   1.872   3.092
 3944TIP3    H111796   2.379   1.837   3.135
 3944TIP3    H211797   2.526   1.807   3.110
 3945TIP3   OH211798   5.169   0.677   3.287
 3945TIP3    H111799   5.101   0.621   3.325
 3945TIP3    H211800   5.221   0.706   3.362
 3946TIP3   OH211801   4.416   0.746   1.679
 3946TIP3    H111802   4.432   0.654   1.700
 3946TIP3    H211803   4.361   0.744   1.600
 3947TIP3   OH211804   2.336   0.463   3.619
 3947TIP3    H111805   2.382   0.521   3.680
 3947TIP3    H211806   2.265   0.517   3.583
 3948TIP3   OH211807   6.553   4.426   1.156
 3948TIP3    H111808   6.461   4.403   1.168
 3948TIP3    H211809   6.590   4.424   1.245
 3949TIP3   OH211810   0.263   0.497   0.835
 3949TIP3    H111811   0.333   0.521   0.896
 3949TIP3    H211812   0.237   0.579   0.794
 3950TIP3   OH211813   4.447   3.130   3.441
 3950TIP3    H111814   4.516   3.170   3.388
 3950TIP3    H211815   4.400   3.204   3.480
 3951TIP3   OH211816   0.574   5.984   3.238
 3951TIP3    H111817   0.578   5.898   3.281
 3951TIP3    H211818   0.494   6.024   3.274
 3952TIP3   OH211819   5.226   6.444   5.711
 3952TIP3    H111820   5.137   6.480   5.718
 3952TIP3    H211821   5.251   6.424   5.801
 3953TIP3   OH211822   4.582   0.259   4.945
 3953TIP3    H111823   4.669   0.220   4.953
 3953TIP3    H211824   4.524   0.196   4.988
 3954TIP3   OH211825   1.623   4.183   5.013
 3954TIP3    H111826   1.572   4.204   4.934
 3954TIP3    H211827   1.609   4.089   5.025
 3955TIP3   OH211828   2.606   2.964   1.138
 3955TIP3    H111829   2.690   3.004   1.115
 3955TIP3    H211830   2.620   2.926   1.224
 3956TIP3   OH211831   6.220   4.015   4.703
 3956TIP3    H111832   6.221   3.920   4.693
 3956TIP3    H211833   6.167   4.031   4.781
 3957TIP3   OH211834   3.609   0.581   4.473
 3957TIP3    H111835   3.514   0.589   4.471
 3957TIP3    H211836   3.627   0.495   4.434
 3958TIP3   OH211837   4.424   2.638   3.750
 3958TIP3    H111838   4.396   2.713   3.803
 3958TIP3    H211839   4.508   2.666   3.713
 3959TIP3   OH211840   0.612   3.603   1.841
 3959TIP3    H111841   0.613   3.510   1.815
 3959TIP3    H211842   0.522   3.618   1.869
 3960TIP3   OH211843   3.619   1.214   0.574
 3960TIP3    H111844   3.657   1.275   0.511
 3960TIP3    H211845   3.683   1.211   0.645
 3961TIP3   OH211846   0.425   6.701   1.894
 3961TIP3    H111847   0.442   6.610   1.916
 3961TIP3    H211848   0.435   6.705   1.799
 3962TIP3   OH211849   5.278   0.954   5.027
 3962TIP3    H111850   5.291   0.962   4.932
 3962TIP3    H211851   5.193   0.910   5.036
 3963TIP3   OH211852   7.121   1.046   0.884
 3963TIP3    H111853   7.113   1.137   0.915
 3963TIP3    H211854   7.153   1.054   0.794
 3964TIP3   OH211855   6.466   6.622   5.687
 3964TIP3    H111856   6.470   6.717   5.674
 3964TIP3    H211857   6.379   6.597   5.655
 3965TIP3   OH211858   3.094   5.142   4.765
 3965TIP3    H111859   3.004   5.133   4.734
 3965TIP3    H211860   3.088   5.200   4.840
 3966TIP3   OH211861   2.816   2.544   5.227
 3966TIP3    H111862   2.836   2.450   5.224
 3966TIP3    H211863   2.797   2.567   5.136
 3967TIP3   OH211864   3.089   2.294   0.922
 3967TIP3    H111865   3.150   2.267   0.853
 3967TIP3    H211866   3.114   2.241   0.998
 3968TIP3   OH211867   5.564   3.921   3.004
 3968TIP3    H111868   5.590   3.899   2.914
 3968TIP3    H211869   5.521   4.006   2.996
 3969TIP3   OH211870   6.085   6.826   3.596
 3969TIP3    H111871   6.045   6.744   3.567
 3969TIP3    H211872   6.177   6.805   3.608
 3970TIP3   OH211873   2.855   1.095   4.411
 3970TIP3    H111874   2.814   1.162   4.465
 3970TIP3    H211875   2.795   1.083   4.338
 3971TIP3   OH211876   3.706   6.208   5.442
 3971TIP3    H111877   3.647   6.146   5.398
 3971TIP3    H211878   3.663   6.226   5.526
 3972TIP3   OH211879   5.195   5.171   3.522
 3972TIP3    H111880   5.192   5.185   3.427
 3972TIP3    H211881   5.176   5.078   3.534
 3973TIP3   OH211882   6.827   4.649   1.298
 3973TIP3    H111883   6.873   4.724   1.336
 3973TIP3    H211884   6.757   4.629   1.360
 3974TIP3   OH211885   3.025   1.685   2.494
 3974TIP3    H111886   3.101   1.741   2.478
 3974TIP3    H211887   3.062   1.597   2.504
 3975TIP3   OH211888   5.814   0.393   1.564
 3975TIP3    H111889   5.790   0.433   1.648
 3975TIP3    H211890   5.908   0.406   1.557
 3976TIP3   OH211891   6.744   3.828   4.895
 3976TIP3    H111892   6.777   3.751   4.848
 3976TIP3    H211893   6.650   3.830   4.875
 3977TIP3   OH211894   0.952   3.756   4.960
 3977TIP3    H111895   0.891   3.780   5.029
 3977TIP3    H211896   0.898   3.713   4.894
 3978TIP3   OH211897   4.331   0.590   0.824
 3978TIP3    H111898   4.318   0.681   0.851
 3978TIP3    H211899   4.244   0.560   0.798
 3979TIP3   OH211900   4.032   0.866   2.489
 3979TIP3    H111901   4.110   0.818   2.460
 3979TIP3    H211902   3.961   0.802   2.482
 3980TIP3   OH211903   5.825   4.830   4.862
 3980TIP3    H111904   5.818   4.893   4.935
 3980TIP3    H211905   5.846   4.747   4.904
 3981TIP3   OH211906   4.503   3.803   0.684
 3981TIP3    H111907   4.458   3.852   0.752
 3981TIP3    H211908   4.595   3.808   0.706
 3982TIP3   OH211909   0.142   6.699   0.906
 3982TIP3    H111910   0.164   6.662   0.991
 3982TIP3    H211911   0.224   6.740   0.876
 3983TIP3   OH211912   2.946   5.215   5.789
 3983TIP3    H111913   2.965   5.297   5.835
 3983TIP3    H211914   2.894   5.241   5.714
 3984TIP3   OH211915   3.932   3.622   4.895
 3984TIP3    H111916   3.925   3.714   4.919
 3984TIP3    H211917   3.884   3.575   4.963
 3985TIP3   OH211918   5.423   2.406   4.405
 3985TIP3    H111919   5.426   2.482   4.347
 3985TIP3    H211920   5.505   2.410   4.454
 3986TIP3   OH211921   2.266   2.457   4.342
 3986TIP3    H111922   2.309   2.400   4.406
 3986TIP3    H211923   2.338   2.505   4.301
 3987TIP3   OH211924   6.901   2.996   2.595
 3987TIP3    H111925   6.901   2.907   2.630
 3987TIP3    H211926   6.950   2.990   2.513
 3988TIP3   OH211927   4.545   1.115   2.749
 3988TIP3    H111928   4.495   1.166   2.685
 3988TIP3    H211929   4.483   1.050   2.782
 3989TIP3   OH211930   2.163   1.622   4.334
 3989TIP3    H111931   2.101   1.550   4.348
 3989TIP3    H211932   2.222   1.590   4.265
 3990TIP3   OH211933   5.473   1.025   2.562
 3990TIP3    H111934   5.428   1.105   2.534
 3990TIP3    H211935   5.471   0.968   2.484
 3991TIP3   OH211936   6.950   5.483   2.215
 3991TIP3    H111937   6.856   5.481   2.233
 3991TIP3    H211938   6.964   5.567   2.171
 3992TIP3   OH211939   0.729   0.061   5.348
 3992TIP3    H111940   0.755   0.148   5.320
 3992TIP3    H211941   0.801   0.004   5.321
 3993TIP3   OH211942   5.134   4.725   4.828
 3993TIP3    H111943   5.104   4.698   4.915
 3993TIP3    H211944   5.068   4.787   4.798
 3994TIP3   OH211945   1.636   1.648   5.231
 3994TIP3    H111946   1.652   1.678   5.141
 3994TIP3    H211947   1.712   1.595   5.252
 3995TIP3   OH211948   6.570   1.269   1.711
 3995TIP3    H111949   6.568   1.350   1.660
 3995TIP3    H211950   6.621   1.208   1.658
 3996TIP3   OH211951   1.011   6.681   5.295
 3996TIP3    H111952   1.065   6.735   5.237
 3996TIP3    H211953   0.949   6.638   5.236
 3997TIP3   OH211954   2.767   4.548   5.304
 3997TIP3    H111955   2.808   4.632   5.326
 3997TIP3    H211956   2.678   4.555   5.340
 3998TIP3   OH211957   4.845   2.173   1.607
 3998TIP3    H111958   4.825   2.224   1.529
 3998TIP3    H211959   4.803   2.088   1.592
 3999TIP3   OH211960   5.670   4.406   0.761
 3999TIP3    H111961   5.654   4.348   0.687
 3999TIP3    H211962   5.593   4.463   0.764
 4000TIP3   OH211963   4.416   2.219   0.152
 4000TIP3    H111964   4.355   2.242   0.082
 4000TIP3    H211965   4.360   2.200   0.228
 4001TIP3   OH211966   2.610   1.065   0.603
 4001TIP3    H111967   2.639   0.975   0.590
 4001TIP3    H211968   2.691   1.117   0.600
 4002TIP3   OH211969   3.727   6.663   4.038
 4002TIP3    H111970   3.767   6.590   4.084
 4002TIP3    H211971   3.740   6.739   4.095
 4003TIP3   OH211972   3.296   5.814   4.028
 4003TIP3    H111973   3.306   5.720   4.020
 4003TIP3    H211974   3.377   5.844   4.070
 4004TIP3   OH211975   7.184   4.451   4.465
 4004TIP3    H111976   7.117   4.398   4.508
 4004TIP3    H211977   7.267   4.413   4.493
 4005TIP3   OH211978   4.500   1.625   1.274
 4005TIP3    H111979   4.421   1.579   1.301
 4005TIP3    H211980   4.472   1.717   1.267
 4006TIP3   OH211981   1.822   0.532   0.817
 4006TIP3    H111982   1.906   0.548   0.859
 4006TIP3    H211983   1.835   0.452   0.766
 4007TIP3   OH211984   4.203   3.664   0.107
 4007TIP3    H111985   4.153   3.628   0.033
 4007TIP3    H211986   4.232   3.750   0.076
 4008TIP3   OH211987   0.962   5.142   0.292
 4008TIP3    H111988   0.979   5.050   0.311
 4008TIP3    H211989   0.887   5.142   0.233
 4009TIP3   OH211990   5.881   5.794   0.173
 4009TIP3    H111991   5.850   5.763   0.088
 4009TIP3    H211992   5.932   5.721   0.208
 4010TIP3   OH211993   4.450   4.402   3.557
 4010TIP3    H111994   4.450   4.336   3.487
 4010TIP3    H211995   4.450   4.486   3.510
 4011TIP3   OH211996   1.481   5.510   0.227
 4011TIP3    H111997   1.433   5.480   0.150
 4011TIP3    H211998   1.450   5.600   0.242
 4012TIP3   OH211999   0.130   2.728   2.907
 4012TIP3    H112000   0.094   2.640   2.921
 4012TIP3    H212001   0.095   2.780   2.980
 4013TIP3   OH212002   5.849   0.488   4.925
 4013TIP3    H112003   5.757   0.479   4.950
 4013TIP3    H212004   5.852   0.572   4.877
 4014TIP3   OH212005   4.861   5.595   2.239
 4014TIP3    H112006   4.895   5.515   2.198
 4014TIP3    H212007   4.813   5.564   2.315
 4015TIP3   OH212008   3.069   5.389   0.606
 4015TIP3    H112009   2.989   5.389   0.658
 4015TIP3    H212010   3.090   5.296   0.596
 4016TIP3   OH212011   5.773   4.564   4.379
 4016TIP3    H112012   5.698   4.504   4.371
 4016TIP3    H212013   5.848   4.512   4.352
 4017TIP3   OH212014   1.508   2.536   1.566
 4017TIP3    H112015   1.543   2.585   1.492
 4017TIP3    H212016   1.542   2.581   1.644
 4018TIP3   OH212017   2.232   0.817   2.218
 4018TIP3    H112018   2.234   0.913   2.217
 4018TIP3    H212019   2.309   0.790   2.168
 4019TIP3   OH212020   4.426   4.608   5.742
 4019TIP3    H112021   4.475   4.549   5.685
 4019TIP3    H212022   4.365   4.654   5.684
 4020TIP3   OH212023   4.473   3.496   0.897
 4020TIP3    H112024   4.518   3.438   0.959
 4020TIP3    H212025   4.384   3.461   0.892
 4021TIP3   OH212026   1.514   2.086   3.092
 4021TIP3    H112027   1.547   2.167   3.054
 4021TIP3    H212028   1.446   2.056   3.031
 4022TIP3   OH212029   0.653   6.099   2.851
 4022TIP3    H112030   0.585   6.036   2.872
 4022TIP3    H212031   0.628   6.179   2.898
 4023TIP3   OH212032   1.978   6.489   5.889
 4023TIP3    H112033   1.957   6.430   5.816
 4023TIP3    H212034   1.892   6.515   5.923
 4024TIP3   OH212035   6.416   0.243   3.579
 4024TIP3    H112036   6.400   0.316   3.640
 4024TIP3    H212037   6.347   0.180   3.598
 4025TIP3   OH212038   4.569   2.411   0.307
 4025TIP3    H112039   4.508   2.351   0.265
 4025TIP3    H212040   4.628   2.439   0.237
 4026TIP3   OH212041   7.149   2.720   4.750
 4026TIP3    H112042   7.190   2.762   4.675
 4026TIP3    H212043   7.066   2.686   4.716
 4027TIP3   OH212044   7.215   3.672   2.107
 4027TIP3    H112045   7.233   3.691   2.015
 4027TIP3    H212046   7.125   3.640   2.108
 4028TIP3   OH212047   3.349   6.497   5.926
 4028TIP3    H112048   3.265   6.500   5.973
 4028TIP3    H212049   3.343   6.567   5.861
 4029TIP3   OH212050   2.969   1.119   3.234
 4029TIP3    H112051   2.953   1.212   3.219
 4029TIP3    H212052   3.034   1.095   3.167
 4030TIP3   OH212053   7.182   1.363   1.569
 4030TIP3    H112054   7.109   1.370   1.629
 4030TIP3    H212055   7.260   1.381   1.622
 4031TIP3   OH212056   0.293   2.329   4.804
 4031TIP3    H112057   0.199   2.346   4.799
 4031TIP3    H212058   0.333   2.416   4.807
 4032TIP3   OH212059   3.111   4.069   3.129
 4032TIP3    H112060   3.027   4.116   3.134
 4032TIP3    H212061   3.119   4.044   3.037
 4033TIP3   OH212062   0.727   2.288   3.452
 4033TIP3    H112063   0.699   2.223   3.388
 4033TIP3    H212064   0.656   2.290   3.516
 4034TIP3   OH212065   3.818   3.239   2.429
 4034TIP3    H112066   3.728   3.236   2.460
 4034TIP3    H212067   3.839   3.332   2.427
 4035TIP3   OH212068   1.919   6.445   4.102
 4035TIP3    H112069   1.985   6.504   4.138
 4035TIP3    H212070   1.940   6.439   4.009
 4036TIP3   OH212071   1.386   5.626   4.920
 4036TIP3    H112072   1.380   5.531   4.906
 4036TIP3    H212073   1.323   5.663   4.858
 4037TIP3   OH212074   0.281   2.185   1.615
 4037TIP3    H112075   0.212   2.132   1.655
 4037TIP3    H212076   0.350   2.189   1.681
 4038TIP3   OH212077   4.569   1.838   0.557
 4038TIP3    H112078   4.661   1.865   0.546
 4038TIP3    H212079   4.561   1.818   0.650
 4039TIP3   OH212080   5.091   0.542   0.151
 4039TIP3    H112081   5.151   0.498   0.211
 4039TIP3    H212082   5.086   0.484   0.075
 4040TIP3   OH212083   0.623   4.064   1.828
 4040TIP3    H112084   0.665   4.124   1.889
 4040TIP3    H212085   0.690   3.998   1.809
 4041TIP3   OH212086   7.001   4.650   1.978
 4041TIP3    H112087   6.924   4.675   2.029
 4041TIP3    H212088   6.975   4.568   1.936
 4042TIP3   OH212089   5.739   5.859   2.669
 4042TIP3    H112090   5.681   5.872   2.594
 4042TIP3    H212091   5.783   5.943   2.680
 4043TIP3   OH212092   1.573   2.375   3.087
 4043TIP3    H112093   1.625   2.375   3.167
 4043TIP3    H212094   1.509   2.445   3.100
 4044TIP3   OH212095   0.626   3.264   3.064
 4044TIP3    H112096   0.628   3.220   2.979
 4044TIP3    H212097   0.684   3.340   3.052
 4045TIP3   OH212098   3.528   0.623   0.220
 4045TIP3    H112099   3.496   0.576   0.296
 4045TIP3    H212100   3.605   0.572   0.191
 4046TIP3   OH212101   4.240   3.238   3.917
 4046TIP3    H112102   4.320   3.198   3.951
 4046TIP3    H212103   4.169   3.195   3.965
 4047TIP3   OH212104   0.206   1.474   0.699
 4047TIP3    H112105   0.110   1.470   0.708
 4047TIP3    H212106   0.232   1.382   0.688
 4048TIP3   OH212107   1.464   3.637   3.715
 4048TIP3    H112108   1.511   3.698   3.772
 4048TIP3    H212109   1.505   3.552   3.732
 4049TIP3   OH212110   5.598   3.332   5.535
 4049TIP3    H112111   5.622   3.264   5.472
 4049TIP3    H212112   5.678   3.383   5.547
 4050TIP3   OH212113   1.112   2.903   1.872
 4050TIP3    H112114   1.126   2.979   1.815
 4050TIP3    H212115   1.044   2.931   1.933
 4051TIP3   OH212116   2.644   5.524   5.379
 4051TIP3    H112117   2.584   5.579   5.430
 4051TIP3    H212118   2.588   5.463   5.332
 4052TIP3   OH212119   0.331   4.025   2.544
 4052TIP3    H112120   0.259   3.986   2.593
 4052TIP3    H212121   0.384   3.951   2.515
 4053TIP3   OH212122   1.646   5.424   4.826
 4053TIP3    H112123   1.639   5.377   4.909
 4053TIP3    H212124   1.733   5.464   4.828
 4054TIP3   OH212125   5.900   2.243   1.217
 4054TIP3    H112126   5.843   2.167   1.211
 4054TIP3    H212127   5.937   2.252   1.128
 4055TIP3   OH212128   0.309   5.320   4.347
 4055TIP3    H112129   0.246   5.302   4.277
 4055TIP3    H212130   0.287   5.257   4.416
 4056TIP3   OH212131   4.342   1.269   0.289
 4056TIP3    H112132   4.314   1.360   0.297
 4056TIP3    H212133   4.270   1.225   0.244
 4057TIP3   OH212134   1.522   5.696   3.323
 4057TIP3    H112135   1.476   5.777   3.302
 4057TIP3    H212136   1.613   5.722   3.333
 4058TIP3   OH212137   3.266   6.522   3.566
 4058TIP3    H112138   3.194   6.468   3.535
 4058TIP3    H212139   3.225   6.607   3.583
 4059TIP3   OH212140   3.445   4.922   5.546
 4059TIP3    H112141   3.500   4.925   5.625
 4059TIP3    H212142   3.443   5.013   5.515
 4060TIP3   OH212143   4.414   6.075   1.238
 4060TIP3    H112144   4.482   6.062   1.172
 4060TIP3    H212145   4.333   6.048   1.195
 4061TIP3   OH212146   0.809   1.965   4.169
 4061TIP3    H112147   0.753   1.993   4.096
 4061TIP3    H212148   0.752   1.911   4.223
 4062TIP3   OH212149   1.657   5.695   4.351
 4062TIP3    H112150   1.731   5.678   4.410
 4062TIP3    H212151   1.619   5.777   4.383
 4063TIP3   OH212152   5.640   5.043   0.232
 4063TIP3    H112153   5.699   5.074   0.163
 4063TIP3    H212154   5.601   4.964   0.195
 4064TIP3   OH212155   5.977   5.733   2.741
 4064TIP3    H112156   6.013   5.685   2.816
 4064TIP3    H212157   5.892   5.764   2.771
 4065TIP3   OH212158   3.882   1.682   3.640
 4065TIP3    H112159   3.862   1.741   3.714
 4065TIP3    H212160   3.798   1.639   3.621
 4066TIP3   OH212161   4.348   4.354   2.768
 4066TIP3    H112162   4.411   4.403   2.821
 4066TIP3    H212163   4.301   4.300   2.831
 4067TIP3   OH212164   3.999   1.639   1.734
 4067TIP3    H112165   4.034   1.726   1.754
 4067TIP3    H212166   3.905   1.647   1.753
 4068TIP3   OH212167   5.736   0.888   3.742
 4068TIP3    H112168   5.645   0.909   3.724
 4068TIP3    H212169   5.739   0.871   3.836
 4069TIP3   OH212170   1.678   4.592   4.432
 4069TIP3    H112171   1.764   4.552   4.447
 4069TIP3    H212172   1.657   4.572   4.341
 4070TIP3   OH212173   6.885   6.656   5.683
 4070TIP3    H112174   6.905   6.669   5.775
 4070TIP3    H212175   6.970   6.654   5.639
 4071TIP3   OH212176   2.896   4.968   2.539
 4071TIP3    H112177   2.959   4.928   2.599
 4071TIP3    H212178   2.835   5.016   2.596
 4072TIP3   OH212179   6.377   5.234   1.036
 4072TIP3    H112180   6.326   5.168   1.083
 4072TIP3    H212181   6.326   5.314   1.043
 4073TIP3   OH212182   0.804   0.943   0.872
 4073TIP3    H112183   0.867   0.915   0.806
 4073TIP3    H212184   0.857   0.989   0.937
 4074TIP3   OH212185   6.762   2.914   5.288
 4074TIP3    H112186   6.717   2.889   5.368
 4074TIP3    H212187   6.694   2.914   5.221
 4075TIP3   OH212188   4.070   0.364   4.186
 4075TIP3    H112189   4.154   0.331   4.155
 4075TIP3    H212190   4.020   0.286   4.210
 4076TIP3   OH212191   4.010   3.939   0.692
 4076TIP3    H112192   4.076   3.938   0.761
 4076TIP3    H212193   3.949   3.869   0.715
 4077TIP3   OH212194   0.967   0.966   4.017
 4077TIP3    H112195   0.977   0.981   4.111
 4077TIP3    H212196   0.876   0.989   3.998
 4078TIP3   OH212197   3.013   6.226   1.400
 4078TIP3    H112198   3.097   6.198   1.437
 4078TIP3    H212199   3.036   6.267   1.317
 4079TIP3   OH212200   0.420   6.064   5.397
 4079TIP3    H112201   0.405   5.991   5.457
 4079TIP3    H212202   0.334   6.085   5.362
 4080TIP3   OH212203   6.218   3.240  -0.053
 4080TIP3    H112204   6.168   3.209   0.023
 4080TIP3    H212205   6.179   3.325  -0.074
 4081TIP3   OH212206   5.452   6.353   5.454
 4081TIP3    H112207   5.494   6.269   5.471
 4081TIP3    H212208   5.520   6.405   5.411
 4082TIP3   OH212209   3.337   1.647   5.431
 4082TIP3    H112210   3.302   1.656   5.342
 4082TIP3    H212211   3.280   1.581   5.472
 4083TIP3   OH212212   7.150   5.813   1.172
 4083TIP3    H112213   7.091   5.880   1.206
 4083TIP3    H212214   7.200   5.857   1.103
 4084TIP3   OH212215   1.642   0.496   5.623
 4084TIP3    H112216   1.601   0.493   5.710
 4084TIP3    H212217   1.591   0.434   5.571
 4085TIP3   OH212218   2.302   1.599   5.458
 4085TIP3    H112219   2.393   1.606   5.430
 4085TIP3    H212220   2.280   1.507   5.446
 4086TIP3   OH212221   3.904   5.610   0.073
 4086TIP3    H112222   3.895   5.526   0.118
 4086TIP3    H212223   3.839   5.666   0.115
 4087TIP3   OH212224   6.527   1.841   5.286
 4087TIP3    H112225   6.501   1.813   5.374
 4087TIP3    H212226   6.618   1.813   5.278
 4088TIP3   OH212227   0.046   1.440   4.438
 4088TIP3    H112228  -0.034   1.387   4.435
 4088TIP3    H212229   0.116   1.378   4.454
 4089TIP3   OH212230   1.348   4.802   4.804
 4089TIP3    H112231   1.274   4.811   4.744
 4089TIP3    H212232   1.354   4.707   4.820
 4090TIP3   OH212233   4.766   5.111   0.214
 4090TIP3    H112234   4.851   5.077   0.241
 4090TIP3    H212235   4.723   5.037   0.171
 4091TIP3   OH212236   3.957   1.366   5.344
 4091TIP3    H112237   4.019   1.335   5.278
 4091TIP3    H212238   3.872   1.331   5.316
 4092TIP3   OH212239   3.548   4.562   3.402
 4092TIP3    H112240   3.458   4.552   3.431
 4092TIP3    H212241   3.587   4.475   3.414
 4093TIP3   OH212242   4.712   0.380   2.547
 4093TIP3    H112243   4.720   0.474   2.564
 4093TIP3    H212244   4.802   0.348   2.547
 4094TIP3   OH212245   7.143   3.032   1.768
 4094TIP3    H112246   7.063   3.039   1.716
 4094TIP3    H212247   7.177   3.121   1.772
 4095TIP3   OH212248   1.746   4.299   2.035
 4095TIP3    H112249   1.702   4.376   2.072
 4095TIP3    H212250   1.698   4.224   2.070
 4096TIP3   OH212251   6.382   1.105   4.475
 4096TIP3    H112252   6.334   1.023   4.467
 4096TIP3    H212253   6.466   1.088   4.434
 4097TIP3   OH212254   5.083   3.491   5.392
 4097TIP3    H112255   5.169   3.448   5.399
 4097TIP3    H212256   5.099   3.568   5.338
 4098TIP3   OH212257   0.595   6.340   2.622
 4098TIP3    H112258   0.650   6.390   2.562
 4098TIP3    H212259   0.536   6.291   2.566
 4099TIP3   OH212260   5.827   3.419   0.655
 4099TIP3    H112261   5.819   3.440   0.748
 4099TIP3    H212262   5.868   3.333   0.653
 4100TIP3   OH212263   0.551   1.287   4.700
 4100TIP3    H112264   0.490   1.309   4.771
 4100TIP3    H212265   0.537   1.355   4.634
 4101TIP3   OH212266   6.271   6.508   2.824
 4101TIP3    H112267   6.260   6.438   2.760
 4101TIP3    H212268   6.358   6.493   2.862
 4102TIP3   OH212269   6.705   4.287   3.694
 4102TIP3    H112270   6.720   4.357   3.758
 4102TIP3    H212271   6.792   4.266   3.660
 4103TIP3   OH212272   0.870   5.931   4.517
 4103TIP3    H112273   0.846   5.839   4.523
 4103TIP3    H212274   0.816   5.975   4.583
 4104TIP3   OH212275   1.586   6.088   0.459
 4104TIP3    H112276   1.510   6.059   0.408
 4104TIP3    H212277   1.634   6.146   0.401
 4105TIP3   OH212278   6.896   1.108   2.906
 4105TIP3    H112279   6.810   1.150   2.914
 4105TIP3    H212280   6.877   1.015   2.906
 4106TIP3   OH212281   0.682   0.840   4.644
 4106TIP3    H112282   0.758   0.794   4.679
 4106TIP3    H212283   0.621   0.846   4.717
 4107TIP3   OH212284   0.327   2.673   4.610
 4107TIP3    H112285   0.345   2.687   4.703
 4107TIP3    H212286   0.323   2.578   4.600
 4108TIP3   OH212287   0.686   5.960   4.226
 4108TIP3    H112288   0.643   5.920   4.150
 4108TIP3    H212289   0.768   5.911   4.235
 4109TIP3   OH212290   2.582   2.353   0.309
 4109TIP3    H112291   2.633   2.420   0.355
 4109TIP3    H212292   2.648   2.293   0.274
 4110TIP3   OH212293   2.641   4.623   4.429
 4110TIP3    H112294   2.661   4.529   4.427
 4110TIP3    H212295   2.702   4.662   4.367
 4111TIP3   OH212296   4.273   1.577   1.634
 4111TIP3    H112297   4.199   1.525   1.603
 4111TIP3    H212298   4.238   1.625   1.710
 4112TIP3   OH212299   4.858   1.035   3.364
 4112TIP3    H112300   4.902   1.028   3.280
 4112TIP3    H212301   4.866   0.948   3.403
 4113TIP3   OH212302   4.998   2.818   5.631
 4113TIP3    H112303   4.957   2.796   5.715
 4113TIP3    H212304   4.926   2.841   5.574
 4114TIP3   OH212305   6.665   5.604   3.837
 4114TIP3    H112306   6.573   5.607   3.863
 4114TIP3    H212307   6.667   5.648   3.751
 4115TIP3   OH212308   4.537   1.959   0.971
 4115TIP3    H112309   4.584   1.987   0.893
 4115TIP3    H212310   4.568   2.017   1.040
 4116TIP3   OH212311   2.553   4.646   1.946
 4116TIP3    H112312   2.567   4.715   2.010
 4116TIP3    H212313   2.501   4.688   1.877
 4117TIP3   OH212314   0.939   5.184   0.748
 4117TIP3    H112315   0.898   5.103   0.718
 4117TIP3    H212316   0.950   5.236   0.668
 4118TIP3   OH212317   4.076   1.759   1.131
 4118TIP3    H112318   4.048   1.670   1.110
 4118TIP3    H212319   4.161   1.769   1.088
 4119TIP3   OH212320  -0.044   6.661   0.710
 4119TIP3    H112321   0.025   6.664   0.644
 4119TIP3    H212322   0.002   6.662   0.794
 4120TIP3   OH212323   0.818   0.134   3.420
 4120TIP3    H112324   0.755   0.203   3.398
 4120TIP3    H212325   0.838   0.149   3.512
 4121TIP3   OH212326   3.430   0.695   3.890
 4121TIP3    H112327   3.414   0.789   3.883
 4121TIP3    H212328   3.526   0.687   3.890
 4122TIP3   OH212329   3.696   0.011   4.137
 4122TIP3    H112330   3.723  -0.060   4.197
 4122TIP3    H212331   3.613   0.041   4.173
 4123TIP3   OH212332   0.427   2.973   1.175
 4123TIP3    H112333   0.357   2.976   1.110
 4123TIP3    H212334   0.381   2.971   1.259
 4124TIP3   OH212335   1.600   5.784   0.944
 4124TIP3    H112336   1.556   5.795   1.028
 4124TIP3    H212337   1.535   5.807   0.879
 4125TIP3   OH212338   5.250   0.604   2.163
 4125TIP3    H112339   5.211   0.528   2.205
 4125TIP3    H212340   5.343   0.600   2.187
 4126TIP3   OH212341   7.009   3.933   1.555
 4126TIP3    H112342   7.069   3.890   1.616
 4126TIP3    H212343   7.007   4.025   1.584
 4127TIP3   OH212344   3.312   6.183   5.296
 4127TIP3    H112345   3.384   6.126   5.321
 4127TIP3    H212346   3.350   6.241   5.229
 4128TIP3   OH212347   6.592   5.085   0.967
 4128TIP3    H112348   6.642   5.072   1.048
 4128TIP3    H212349   6.512   5.128   0.995
 4129TIP3   OH212350   3.135   1.820   4.324
 4129TIP3    H112351   3.060   1.762   4.318
 4129TIP3    H212352   3.120   1.871   4.404
 4130TIP3   OH212353   6.010   5.255   3.219
 4130TIP3    H112354   6.000   5.282   3.310
 4130TIP3    H212355   6.088   5.199   3.219
 4131TIP3   OH212356   3.000   6.743   3.668
 4131TIP3    H112357   3.005   6.699   3.754
 4131TIP3    H212358   3.016   6.835   3.688
 4132TIP3   OH212359   6.863   0.933   1.848
 4132TIP3    H112360   6.917   0.854   1.842
 4132TIP3    H212361   6.909   0.998   1.795
 4133TIP3   OH212362   5.353   5.563   2.923
 4133TIP3    H112363   5.344   5.497   2.855
 4133TIP3    H212364   5.397   5.636   2.880
 4134TIP3   OH212365   7.041   6.131   5.657
 4134TIP3    H112366   6.978   6.066   5.689
 4134TIP3    H212367   7.034   6.204   5.719
 4135TIP3   OH212368   3.392   6.473   3.916
 4135TIP3    H112369   3.431   6.399   3.869
 4135TIP3    H212370   3.438   6.473   4.001
 4136TIP3   OH212371   4.724   5.502   0.322
 4136TIP3    H112372   4.713   5.441   0.396
 4136TIP3    H212373   4.766   5.579   0.361
 4137TIP3   OH212374   6.682   6.245   2.516
 4137TIP3    H112375   6.697   6.170   2.459
 4137TIP3    H212376   6.770   6.279   2.534
 4138TIP3   OH212377   5.927   0.873   1.427
 4138TIP3    H112378   5.904   0.901   1.338
 4138TIP3    H212379   5.983   0.942   1.461
 4139TIP3   OH212380   2.825   5.109   4.670
 4139TIP3    H112381   2.770   5.171   4.717
 4139TIP3    H212382   2.784   5.024   4.685
 4140TIP3   OH212383   3.011   3.023   3.102
 4140TIP3    H112384   3.099   3.057   3.116
 4140TIP3    H212385   3.020   2.964   3.028
 4141TIP3   OH212386   1.975   5.221   5.049
 4141TIP3    H112387   1.907   5.155   5.036
 4141TIP3    H212388   1.957   5.288   4.983
 4142TIP3   OH212389   0.989   2.538   2.067
 4142TIP3    H112390   0.967   2.446   2.079
 4142TIP3    H212391   0.920   2.586   2.114
 4143TIP3   OH212392   4.651   4.175   2.609
 4143TIP3    H112393   4.666   4.107   2.544
 4143TIP3    H212394   4.582   4.229   2.572
 4144TIP3   OH212395   6.847   0.090   5.381
 4144TIP3    H112396   6.909   0.136   5.324
 4144TIP3    H212397   6.761   0.124   5.355
 4145TIP3   OH212398   5.464   1.164   1.759
 4145TIP3    H112399   5.442   1.229   1.826
 4145TIP3    H212400   5.380   1.128   1.732
 4146TIP3   OH212401   1.936   5.520   1.399
 4146TIP3    H112402   1.974   5.604   1.425
 4146TIP3    H212403   2.007   5.457   1.412
 4147TIP3   OH212404   2.867   6.601   1.685
 4147TIP3    H112405   2.957   6.619   1.713
 4147TIP3    H212406   2.813   6.625   1.761
 4148TIP3   OH212407   5.375   6.034   4.057
 4148TIP3    H112408   5.414   5.972   4.119
 4148TIP3    H212409   5.429   6.026   3.978
 4149TIP3   OH212410   4.479   0.385   4.382
 4149TIP3    H112411   4.449   0.305   4.340
 4149TIP3    H212412   4.466   0.370   4.476
 4150TIP3   OH212413   3.274   6.102   1.395
 4150TIP3    H112414   3.321   6.038   1.342
 4150TIP3    H212415   3.233   6.051   1.464
 4151TIP3   OH212416   1.712   1.747   2.115
 4151TIP3    H112417   1.780   1.715   2.056
 4151TIP3    H212418   1.682   1.828   2.074
 4152TIP3   OH212419   2.260   0.216   4.959
 4152TIP3    H112420   2.334   0.257   5.003
 4152TIP3    H212421   2.278   0.227   4.865
 4153TIP3   OH212422   2.914   0.560   4.297
 4153TIP3    H112423   2.850   0.491   4.310
 4153TIP3    H212424   2.863   0.641   4.303
 4154TIP3   OH212425   4.201   5.077   0.775
 4154TIP3    H112426   4.251   5.125   0.840
 4154TIP3    H212427   4.109   5.088   0.802
 4155TIP3   OH212428   5.506   2.604   2.169
 4155TIP3    H112429   5.601   2.592   2.159
 4155TIP3    H212430   5.488   2.579   2.259
 4156TIP3   OH212431   5.105   1.649   3.708
 4156TIP3    H112432   5.111   1.583   3.639
 4156TIP3    H212433   5.098   1.732   3.662
 4157TIP3   OH212434   1.468   2.178   0.464
 4157TIP3    H112435   1.541   2.202   0.520
 4157TIP3    H212436   1.483   2.086   0.442
 4158TIP3   OH212437   0.537   2.170   1.062
 4158TIP3    H112438   0.598   2.100   1.087
 4158TIP3    H212439   0.480   2.129   0.997
 4159TIP3   OH212440   0.019   2.931   1.063
 4159TIP3    H112441   0.016   2.851   1.011
 4159TIP3    H212442   0.102   2.972   1.040
 4160TIP3   OH212443   5.763   5.269   4.911
 4160TIP3    H112444   5.725   5.278   4.823
 4160TIP3    H212445   5.713   5.331   4.964
 4161TIP3   OH212446   5.008   2.862   1.522
 4161TIP3    H112447   4.996   2.810   1.602
 4161TIP3    H212448   5.047   2.944   1.552
 4162TIP3   OH212449   2.607   0.704   1.872
 4162TIP3    H112450   2.610   0.614   1.841
 4162TIP3    H212451   2.582   0.755   1.794
 4163TIP3   OH212452   2.300   0.636   1.257
 4163TIP3    H112453   2.287   0.727   1.233
 4163TIP3    H212454   2.394   0.625   1.263
 4164TIP3   OH212455   4.033   6.770   3.510
 4164TIP3    H112456   4.083   6.819   3.576
 4164TIP3    H212457   3.948   6.814   3.507
 4165TIP3   OH212458   5.573   3.318   2.867
 4165TIP3    H112459   5.632   3.245   2.847
 4165TIP3    H212460   5.582   3.331   2.961
 4166TIP3   OH212461   4.712   4.373   5.645
 4166TIP3    H112462   4.768   4.298   5.663
 4166TIP3    H212463   4.766   4.449   5.667
 4167TIP3   OH212464   3.559   6.451   0.268
 4167TIP3    H112465   3.472   6.464   0.230
 4167TIP3    H212466   3.549   6.376   0.326
 4168TIP3   OH212467   0.440   2.277   4.287
 4168TIP3    H112468   0.485   2.342   4.233
 4168TIP3    H212469   0.437   2.316   4.375
 4169TIP3   OH212470   0.830   1.051   2.966
 4169TIP3    H112471   0.913   1.076   2.925
 4169TIP3    H212472   0.776   1.129   2.960
 4170TIP3   OH212473   5.094   3.769   0.034
 4170TIP3    H112474   5.101   3.859   0.065
 4170TIP3    H212475   5.002   3.758   0.011
 4171TIP3   OH212476   1.813   2.735   2.581
 4171TIP3    H112477   1.726   2.752   2.545
 4171TIP3    H212478   1.849   2.822   2.600
 4172TIP3   OH212479   5.546   0.603   0.065
 4172TIP3    H112480   5.461   0.647   0.058
 4172TIP3    H212481   5.587   0.641   0.142
 4173TIP3   OH212482   7.231   2.352   4.845
 4173TIP3    H112483   7.171   2.406   4.896
 4173TIP3    H212484   7.194   2.352   4.757
 4174TIP3   OH212485   1.708   1.708   0.643
 4174TIP3    H112486   1.744   1.625   0.612
 4174TIP3    H212487   1.730   1.711   0.736
 4175TIP3   OH212488   6.223   0.293   1.483
 4175TIP3    H112489   6.189   0.211   1.518
 4175TIP3    H212490   6.210   0.357   1.553
 4176TIP3   OH212491   1.645   2.251   0.672
 4176TIP3    H112492   1.669   2.308   0.745
 4176TIP3    H212493   1.704   2.276   0.601
 4177TIP3   OH212494   0.582   4.387   3.620
 4177TIP3    H112495   0.646   4.320   3.596
 4177TIP3    H212496   0.527   4.344   3.686
 4178TIP3   OH212497   4.407   4.734   5.112
 4178TIP3    H112498   4.357   4.750   5.192
 4178TIP3    H212499   4.474   4.803   5.111
 4179TIP3   OH212500   1.906   3.967   1.927
 4179TIP3    H112501   1.995   4.000   1.939
 4179TIP3    H212502   1.912   3.874   1.950
 4180TIP3   OH212503   5.444   2.873   5.559
 4180TIP3    H112504   5.362   2.892   5.513
 4180TIP3    H212505   5.504   2.845   5.490
 4181TIP3   OH212506   0.957   2.726   0.723
 4181TIP3    H112507   0.959   2.766   0.810
 4181TIP3    H212508   1.030   2.765   0.676
 4182TIP3   OH212509   3.175   2.524   4.360
 4182TIP3    H112510   3.230   2.482   4.294
 4182TIP3    H212511   3.151   2.452   4.420
 4183TIP3   OH212512   3.351   4.517   0.918
 4183TIP3    H112513   3.438   4.513   0.880
 4183TIP3    H212514   3.294   4.544   0.846
 4184TIP3   OH212515   0.565   2.503   0.443
 4184TIP3    H112516   0.531   2.525   0.530
 4184TIP3    H212517   0.654   2.538   0.442
 4185TIP3   OH212518   0.102   4.652   2.315
 4185TIP3    H112519   0.138   4.670   2.228
 4185TIP3    H212520   0.014   4.618   2.298
 4186TIP3   OH212521   6.218   5.024   3.946
 4186TIP3    H112522   6.277   5.020   4.022
 4186TIP3    H212523   6.143   5.075   3.976
 4187TIP3   OH212524   0.964   3.066   2.767
 4187TIP3    H112525   1.011   3.025   2.694
 4187TIP3    H212526   1.034   3.099   2.824
 4188TIP3   OH212527   0.120   0.306   1.900
 4188TIP3    H112528   0.134   0.212   1.911
 4188TIP3    H212529   0.187   0.347   1.954
 4189TIP3   OH212530   4.797   3.192   3.762
 4189TIP3    H112531   4.817   3.144   3.682
 4189TIP3    H212532   4.711   3.232   3.745
 4190TIP3   OH212533   5.989   1.908   1.075
 4190TIP3    H112534   5.907   1.903   1.026
 4190TIP3    H212535   6.023   1.995   1.057
 4191TIP3   OH212536   7.172   1.345   5.554
 4191TIP3    H112537   7.145   1.276   5.494
 4191TIP3    H212538   7.199   1.298   5.633
 4192TIP3   OH212539   4.846   5.116   1.091
 4192TIP3    H112540   4.937   5.116   1.061
 4192TIP3    H212541   4.794   5.101   1.012
 4193TIP3   OH212542   3.320   0.615   4.706
 4193TIP3    H112543   3.260   0.659   4.766
 4193TIP3    H212544   3.264   0.584   4.635
 4194TIP3   OH212545   5.283   5.558   4.190
 4194TIP3    H112546   5.310   5.473   4.153
 4194TIP3    H212547   5.239   5.535   4.272
 4195TIP3   OH212548   0.907   5.832   4.275
 4195TIP3    H112549   0.896   5.869   4.362
 4195TIP3    H212550   0.944   5.745   4.290
 4196TIP3   OH212551   6.627   3.210   2.481
 4196TIP3    H112552   6.711   3.237   2.443
 4196TIP3    H212553   6.625   3.253   2.566
 4197TIP3   OH212554   3.499   4.743   4.928
 4197TIP3    H112555   3.487   4.826   4.882
 4197TIP3    H212556   3.452   4.679   4.875
 4198TIP3   OH212557   6.623   4.658   3.552
 4198TIP3    H112558   6.604   4.623   3.639
 4198TIP3    H212559   6.679   4.734   3.568
 4199TIP3   OH212560   4.149   6.597   1.695
 4199TIP3    H112561   4.111   6.560   1.774
 4199TIP3    H212562   4.081   6.653   1.659
 4200TIP3   OH212563   7.139   2.429   0.921
 4200TIP3    H112564   7.053   2.416   0.963
 4200TIP3    H212565   7.186   2.347   0.938
 4201TIP3   OH212566   1.139   2.906   0.126
 4201TIP3    H112567   1.130   2.821   0.084
 4201TIP3    H212568   1.084   2.965   0.075
 4202TIP3   OH212569   3.990   6.527   5.716
 4202TIP3    H112570   4.009   6.553   5.807
 4202TIP3    H212571   3.936   6.598   5.682
 4203TIP3   OH212572   6.778   1.870   0.883
 4203TIP3    H112573   6.696   1.847   0.927
 4203TIP3    H212574   6.751   1.918   0.804
 4204TIP3   OH212575   4.774   1.338   2.200
 4204TIP3    H112576   4.785   1.303   2.288
 4204TIP3    H212577   4.811   1.271   2.142
 4205TIP3   OH212578   4.707   5.541   0.064
 4205TIP3    H112579   4.737   5.522   0.153
 4205TIP3    H212580   4.651   5.618   0.074
 4206TIP3   OH212581   1.439   0.681   4.209
 4206TIP3    H112582   1.505   0.718   4.150
 4206TIP3    H212583   1.367   0.743   4.208
 4207TIP3   OH212584   4.453   1.964  -0.003
 4207TIP3    H112585   4.490   1.961   0.085
 4207TIP3    H212586   4.366   2.004   0.009
 4208TIP3   OH212587   5.124   2.974   1.956
 4208TIP3    H112588   5.092   2.894   1.913
 4208TIP3    H212589   5.120   3.041   1.887
 4209TIP3   OH212590   2.349   6.161   4.233
 4209TIP3    H112591   2.318   6.218   4.162
 4209TIP3    H212592   2.421   6.112   4.194
 4210TIP3   OH212593   1.004   3.836   0.501
 4210TIP3    H112594   0.955   3.787   0.435
 4210TIP3    H212595   0.984   3.792   0.584
 4211TIP3   OH212596   5.224   2.200   2.381
 4211TIP3    H112597   5.146   2.185   2.434
 4211TIP3    H212598   5.293   2.149   2.424
 4212TIP3   OH212599   6.669   6.282   1.181
 4212TIP3    H112600   6.608   6.220   1.140
 4212TIP3    H212601   6.691   6.242   1.265
 4213TIP3   OH212602   3.370   2.080   3.548
 4213TIP3    H112603   3.275   2.097   3.550
 4213TIP3    H212604   3.408   2.165   3.524
 4214TIP3   OH212605   7.124   4.111   1.296
 4214TIP3    H112606   7.097   4.123   1.388
 4214TIP3    H212607   7.042   4.107   1.248
 4215TIP3   OH212608   3.889   2.813   2.711
 4215TIP3    H112609   3.973   2.860   2.710
 4215TIP3    H212610   3.858   2.823   2.801
 4216TIP3   OH212611   6.383   2.895   0.258
 4216TIP3    H112612   6.419   2.982   0.242
 4216TIP3    H212613   6.289   2.905   0.246
 4217TIP3   OH212614   4.437   5.498   5.116
 4217TIP3    H112615   4.411   5.568   5.176
 4217TIP3    H212616   4.527   5.478   5.140
 4218TIP3   OH212617   2.561   3.462   3.304
 4218TIP3    H112618   2.570   3.414   3.386
 4218TIP3    H212619   2.641   3.516   3.299
 4219TIP3   OH212620   6.007   4.001   4.890
 4219TIP3    H112621   5.985   3.924   4.837
 4219TIP3    H212622   5.923   4.044   4.904
 4220TIP3   OH212623   2.740   2.034   1.465
 4220TIP3    H112624   2.827   2.046   1.427
 4220TIP3    H212625   2.708   2.123   1.479
 4221TIP3   OH212626   5.651   5.811   4.013
 4221TIP3    H112627   5.592   5.742   3.983
 4221TIP3    H212628   5.609   5.847   4.091
 4222TIP3   OH212629   1.413   0.075   5.804
 4222TIP3    H112630   1.452   0.027   5.877
 4222TIP3    H212631   1.362   0.009   5.757
 4223TIP3   OH212632   5.212   3.036   5.533
 4223TIP3    H112633   5.182   2.993   5.453
 4223TIP3    H212634   5.228   3.127   5.507
 4224TIP3   OH212635   2.907   0.447   1.509
 4224TIP3    H112636   2.915   0.432   1.414
 4224TIP3    H212637   2.848   0.522   1.516
 4225TIP3   OH212638   1.396   3.002   3.006
 4225TIP3    H112639   1.456   2.929   3.021
 4225TIP3    H212640   1.442   3.059   2.944
 4226TIP3   OH212641   2.230   1.654   2.425
 4226TIP3    H112642   2.226   1.710   2.502
 4226TIP3    H212643   2.254   1.713   2.353
 4227TIP3   OH212644   6.720   0.557   1.218
 4227TIP3    H112645   6.744   0.649   1.217
 4227TIP3    H212646   6.629   0.556   1.248
 4228TIP3   OH212647   3.798   1.168   0.785
 4228TIP3    H112648   3.853   1.114   0.728
 4228TIP3    H212649   3.780   1.113   0.861
 4229TIP3   OH212650   1.995   2.385   3.781
 4229TIP3    H112651   1.959   2.325   3.716
 4229TIP3    H212652   1.929   2.454   3.788
 4230TIP3   OH212653   3.769   5.072   2.157
 4230TIP3    H112654   3.710   5.146   2.169
 4230TIP3    H212655   3.717   5.008   2.108
 4231TIP3   OH212656   3.640   2.769   1.092
 4231TIP3    H112657   3.616   2.703   1.027
 4231TIP3    H212658   3.633   2.852   1.044
 4232TIP3   OH212659   0.770   3.494   0.991
 4232TIP3    H112660   0.827   3.447   0.931
 4232TIP3    H212661   0.751   3.432   1.061
 4233TIP3   OH212662   0.389   4.685   1.849
 4233TIP3    H112663   0.371   4.607   1.901
 4233TIP3    H212664   0.472   4.666   1.805
 4234TIP3   OH212665   0.816   6.316   3.260
 4234TIP3    H112666   0.873   6.367   3.203
 4234TIP3    H212667   0.830   6.225   3.233
 4235TIP3   OH212668   3.597   5.820   1.342
 4235TIP3    H112669   3.533   5.794   1.408
 4235TIP3    H212670   3.602   5.916   1.350
 4236TIP3   OH212671   6.836   5.583   2.723
 4236TIP3    H112672   6.754   5.613   2.762
 4236TIP3    H212673   6.872   5.660   2.680
 4237TIP3   OH212674   2.461   3.216   4.539
 4237TIP3    H112675   2.399   3.161   4.586
 4237TIP3    H212676   2.442   3.201   4.447
 4238TIP3   OH212677   5.508   6.525   0.074
 4238TIP3    H112678   5.467   6.529  -0.012
 4238TIP3    H212679   5.435   6.534   0.136
 4239TIP3   OH212680   6.765   0.496   3.759
 4239TIP3    H112681   6.761   0.400   3.765
 4239TIP3    H212682   6.737   0.515   3.669
 4240TIP3   OH212683   5.209   6.321   2.452
 4240TIP3    H112684   5.176   6.255   2.513
 4240TIP3    H212685   5.175   6.404   2.485
 4241TIP3   OH212686   3.110   2.984   0.249
 4241TIP3    H112687   3.129   2.898   0.286
 4241TIP3    H212688   3.187   3.037   0.269
 4242TIP3   OH212689   0.283   0.875   1.383
 4242TIP3    H112690   0.207   0.915   1.424
 4242TIP3    H212691   0.253   0.852   1.295
 4243TIP3   OH212692   4.076   4.557   5.788
 4243TIP3    H112693   4.070   4.565   5.693
 4243TIP3    H212694   4.109   4.642   5.818
 4244TIP3   OH212695   5.650   4.464   0.035
 4244TIP3    H112696   5.726   4.504  -0.007
 4244TIP3    H212697   5.579   4.475  -0.028
 4245TIP3   OH212698   0.358   3.771   2.483
 4245TIP3    H112699   0.363   3.753   2.389
 4245TIP3    H212700   0.393   3.691   2.524
 4246TIP3   OH212701   4.606   2.896   0.723
 4246TIP3    H112702   4.661   2.924   0.650
 4246TIP3    H212703   4.519   2.884   0.684
 4247TIP3   OH212704   3.760   3.028   3.551
 4247TIP3    H112705   3.840   3.054   3.506
 4247TIP3    H212706   3.769   2.933   3.563
 4248TIP3   OH212707   0.879   6.314   1.015
 4248TIP3    H112708   0.892   6.315   0.921
 4248TIP3    H212709   0.821   6.239   1.031
 4249TIP3   OH212710   2.076   5.275   2.053
 4249TIP3    H112711   2.084   5.265   2.148
 4249TIP3    H212712   2.066   5.186   2.020
 4250TIP3   OH212713   3.057   5.818   3.877
 4250TIP3    H112714   3.093   5.823   3.966
 4250TIP3    H212715   3.133   5.796   3.823
 4251TIP3   OH212716   6.399   2.878   0.540
 4251TIP3    H112717   6.487   2.853   0.568
 4251TIP3    H212718   6.402   2.875   0.445
 4252TIP3   OH212719   0.526   1.857   5.371
 4252TIP3    H112720   0.584   1.803   5.317
 4252TIP3    H212721   0.575   1.937   5.387
 4253TIP3   OH212722   5.348   5.762   2.450
 4253TIP3    H112723   5.259   5.786   2.477
 4253TIP3    H212724   5.395   5.752   2.533
 4254TIP3   OH212725   3.043   2.580   3.998
 4254TIP3    H112726   2.972   2.644   3.998
 4254TIP3    H212727   2.999   2.496   3.981
 4255TIP3   OH212728   1.161   4.491   4.980
 4255TIP3    H112729   1.202   4.467   4.897
 4255TIP3    H212730   1.231   4.480   5.045
 4256TIP3   OH212731   2.943   4.620   0.497
 4256TIP3    H112732   3.003   4.590   0.566
 4256TIP3    H212733   2.865   4.649   0.544
 4257TIP3   OH212734   6.848   0.711   4.309
 4257TIP3    H112735   6.895   0.640   4.265
 4257TIP3    H212736   6.906   0.787   4.301
 4258TIP3   OH212737   1.473   0.944   5.036
 4258TIP3    H112738   1.523   0.885   4.979
 4258TIP3    H212739   1.421   0.886   5.090
 4259TIP3   OH212740   1.537   5.504   1.509
 4259TIP3    H112741   1.536   5.539   1.420
 4259TIP3    H212742   1.621   5.532   1.545
 4260TIP3   OH212743   1.274   2.358   4.227
 4260TIP3    H112744   1.193   2.372   4.178
 4260TIP3    H212745   1.302   2.270   4.203
 4261TIP3   OH212746   2.722   4.875   3.560
 4261TIP3    H112747   2.658   4.945   3.576
 4261TIP3    H212748   2.743   4.883   3.467
 4262TIP3   OH212749   2.494   3.967   2.158
 4262TIP3    H112750   2.546   3.918   2.221
 4262TIP3    H212751   2.404   3.956   2.188
 4263TIP3   OH212752   1.433   1.059   2.936
 4263TIP3    H112753   1.431   0.966   2.959
 4263TIP3    H212754   1.404   1.061   2.844
 4264TIP3   OH212755   6.678   1.211   2.994
 4264TIP3    H112756   6.714   1.178   3.076
 4264TIP3    H212757   6.639   1.296   3.017
 4265TIP3   OH212758   2.716   4.095   4.713
 4265TIP3    H112759   2.745   4.029   4.776
 4265TIP3    H212760   2.728   4.055   4.627
 4266TIP3   OH212761  -0.041   2.585   5.809
 4266TIP3    H112762   0.045   2.543   5.806
 4266TIP3    H212763  -0.102   2.513   5.826
 4267TIP3   OH212764   7.058   3.241   0.045
 4267TIP3    H112765   6.974   3.197   0.032
 4267TIP3    H212766   7.099   3.193   0.117
 4268TIP3   OH212767   2.174   3.042   0.946
 4268TIP3    H112768   2.234   3.107   0.911
 4268TIP3    H212769   2.221   3.002   1.019
 4269TIP3   OH212770   3.616   4.536   0.843
 4269TIP3    H112771   3.681   4.581   0.896
 4269TIP3    H212772   3.664   4.510   0.764
 4270TIP3   OH212773   0.786   6.465   0.748
 4270TIP3    H112774   0.879   6.483   0.763
 4270TIP3    H212775   0.778   6.454   0.654
 4271TIP3   OH212776   0.186   2.219   4.224
 4271TIP3    H112777   0.274   2.233   4.259
 4271TIP3    H212778   0.183   2.125   4.206
 4272TIP3   OH212779   6.481   2.327   3.320
 4272TIP3    H112780   6.435   2.244   3.307
 4272TIP3    H212781   6.413   2.394   3.314
 4273TIP3   OH212782   4.892   3.361   4.112
 4273TIP3    H112783   4.903   3.362   4.207
 4273TIP3    H212784   4.798   3.372   4.098
 4274TIP3   OH212785   2.490   0.648   5.875
 4274TIP3    H112786   2.467   0.563   5.838
 4274TIP3    H212787   2.586   0.647   5.878
 4275TIP3   OH212788   3.924   0.178   3.149
 4275TIP3    H112789   3.920   0.228   3.067
 4275TIP3    H212790   4.011   0.198   3.184
 4276TIP3   OH212791   4.863   4.766   0.977
 4276TIP3    H112792   4.888   4.708   0.905
 4276TIP3    H212793   4.933   4.756   1.041
 4277TIP3   OH212794   1.215   1.042   4.782
 4277TIP3    H112795   1.255   1.084   4.858
 4277TIP3    H212796   1.246   1.093   4.707
 4278TIP3   OH212797   5.231   0.281   0.911
 4278TIP3    H112798   5.220   0.308   1.002
 4278TIP3    H212799   5.323   0.298   0.892
 4279TIP3   OH212800   1.113   5.631   3.044
 4279TIP3    H112801   1.151   5.697   3.102
 4279TIP3    H212802   1.030   5.669   3.015
 4280TIP3   OH212803   4.794   0.889   2.964
 4280TIP3    H112804   4.801   0.960   2.900
 4280TIP3    H212805   4.873   0.836   2.951
 4281TIP3   OH212806   5.832   1.377   1.789
 4281TIP3    H112807   5.863   1.299   1.742
 4281TIP3    H212808   5.905   1.401   1.846
 4282TIP3   OH212809   2.448   4.011   4.789
 4282TIP3    H112810   2.534   4.053   4.796
 4282TIP3    H212811   2.388   4.071   4.833
 4283TIP3   OH212812   2.771   0.375   4.610
 4283TIP3    H112813   2.746   0.287   4.640
 4283TIP3    H212814   2.696   0.405   4.558
 4284TIP3   OH212815   4.588   4.378   0.722
 4284TIP3    H112816   4.532   4.449   0.753
 4284TIP3    H212817   4.531   4.301   0.719
 4285TIP3   OH212818   5.827   0.130   0.173
 4285TIP3    H112819   5.784   0.053   0.138
 4285TIP3    H212820   5.913   0.131   0.131
 4286TIP3   OH212821   6.450   5.785   0.097
 4286TIP3    H112822   6.404   5.702   0.108
 4286TIP3    H212823   6.465   5.815   0.187
 4287TIP3   OH212824   3.634   1.483   2.727
 4287TIP3    H112825   3.563   1.497   2.664
 4287TIP3    H212826   3.697   1.552   2.707
 4288TIP3   OH212827   2.304   0.128   1.076
 4288TIP3    H112828   2.287   0.175   1.158
 4288TIP3    H212829   2.391   0.156   1.049
 4289TIP3   OH212830   4.278   2.160   0.759
 4289TIP3    H112831   4.299   2.233   0.700
 4289TIP3    H212832   4.356   2.150   0.813
 4290TIP3   OH212833   4.519   2.108   4.996
 4290TIP3    H112834   4.597   2.091   5.049
 4290TIP3    H212835   4.454   2.046   5.028
 4291TIP3   OH212836   5.157   2.433   4.519
 4291TIP3    H112837   5.235   2.422   4.465
 4291TIP3    H212838   5.158   2.526   4.544
 4292TIP3   OH212839   1.172   5.506   2.735
 4292TIP3    H112840   1.265   5.481   2.730
 4292TIP3    H212841   1.169   5.568   2.809
 4293TIP3   OH212842   4.861   4.267   2.770
 4293TIP3    H112843   4.772   4.236   2.753
 4293TIP3    H212844   4.906   4.190   2.805
 4294TIP3   OH212845   3.933   1.233   0.014
 4294TIP3    H112846   3.877   1.278   0.077
 4294TIP3    H212847   3.875   1.169  -0.028
 4295TIP3   OH212848   3.901   0.810   2.754
 4295TIP3    H112849   3.846   0.732   2.763
 4295TIP3    H212850   3.909   0.823   2.659
 4296TIP3   OH212851   6.067   0.547   0.602
 4296TIP3    H112852   6.127   0.547   0.527
 4296TIP3    H212853   6.026   0.461   0.600
 4297TIP3   OH212854   1.171   0.488   3.130
 4297TIP3    H112855   1.094   0.533   3.162
 4297TIP3    H212856   1.159   0.484   3.035
 4298TIP3   OH212857   1.576   4.002   1.459
 4298TIP3    H112858   1.623   4.053   1.393
 4298TIP3    H212859   1.630   3.924   1.471
 4299TIP3   OH212860   5.949   1.139   5.099
 4299TIP3    H112861   5.859   1.169   5.090
 4299TIP3    H212862   5.968   1.148   5.192
 4300TIP3   OH212863   1.916   3.126   3.909
 4300TIP3    H112864   1.914   3.083   3.824
 4300TIP3    H212865   1.970   3.204   3.894
 4301TIP3   OH212866   0.060   0.306   3.809
 4301TIP3    H112867   0.029   0.240   3.871
 4301TIP3    H212868   0.150   0.323   3.835
 4302TIP3   OH212869   4.648   6.563   4.148
 4302TIP3    H112870   4.701   6.515   4.085
 4302TIP3    H212871   4.675   6.654   4.138
 4303TIP3   OH212872   2.419   1.863   2.632
 4303TIP3    H112873   2.338   1.882   2.585
 4303TIP3    H212874   2.487   1.863   2.564
 4304TIP3   OH212875   2.162   3.612   0.049
 4304TIP3    H112876   2.165   3.524   0.013
 4304TIP3    H212877   2.215   3.607   0.129
 4305TIP3   OH212878   6.798   3.490   0.118
 4305TIP3    H112879   6.892   3.490   0.137
 4305TIP3    H212880   6.793   3.502   0.024
 4306TIP3   OH212881   3.673   0.352   1.922
 4306TIP3    H112882   3.749   0.326   1.871
 4306TIP3    H212883   3.637   0.427   1.876
 4307TIP3   OH212884   1.063   0.191   2.954
 4307TIP3    H112885   0.991   0.180   2.892
 4307TIP3    H212886   1.107   0.271   2.926
 4308TIP3   OH212887   1.116   3.204   3.543
 4308TIP3    H112888   1.086   3.228   3.455
 4308TIP3    H212889   1.161   3.121   3.531
 4309TIP3   OH212890   4.594   6.064   1.881
 4309TIP3    H112891   4.564   6.153   1.862
 4309TIP3    H212892   4.532   6.008   1.835
 4310TIP3   OH212893   5.033   4.274   4.417
 4310TIP3    H112894   4.950   4.243   4.380
 4310TIP3    H212895   5.080   4.311   4.342
 4311TIP3   OH212896   4.778   1.205   0.300
 4311TIP3    H112897   4.723   1.221   0.224
 4311TIP3    H212898   4.801   1.292   0.331
 4312TIP3   OH212899   3.869   4.086   4.531
 4312TIP3    H112900   3.945   4.032   4.509
 4312TIP3    H212901   3.799   4.022   4.546
 4313TIP3   OH212902   6.746   1.583   3.970
 4313TIP3    H112903   6.790   1.556   4.051
 4313TIP3    H212904   6.794   1.660   3.941
 4314TIP3   OH212905   6.271   1.109   5.268
 4314TIP3    H112906   6.319   1.126   5.186
 4314TIP3    H212907   6.216   1.033   5.248
 4315TIP3   OH212908   0.135   4.229   0.852
 4315TIP3    H112909   0.220   4.268   0.873
 4315TIP3    H212910   0.125   4.243   0.758
 4316TIP3   OH212911   4.145   4.277   3.270
 4316TIP3    H112912   4.054   4.246   3.278
 4316TIP3    H212913   4.136   4.372   3.254
 4317TIP3   OH212914   3.309   5.520   0.630
 4317TIP3    H112915   3.280   5.573   0.556
 4317TIP3    H212916   3.247   5.448   0.635
 4318TIP3   OH212917   4.223   2.501   0.055
 4318TIP3    H112918   4.156   2.565   0.076
 4318TIP3    H212919   4.174   2.421   0.033
 4319TIP3   OH212920   6.440   4.191   2.417
 4319TIP3    H112921   6.440   4.153   2.505
 4319TIP3    H212922   6.365   4.151   2.374
 4320TIP3   OH212923   3.985   0.648   2.296
 4320TIP3    H112924   3.949   0.625   2.210
 4320TIP3    H212925   3.909   0.679   2.346
 4321TIP3   OH212926   2.086   1.915   0.038
 4321TIP3    H112927   2.114   1.910   0.130
 4321TIP3    H212928   2.155   1.965  -0.006
 4322TIP3   OH212929   6.830   1.912   2.824
 4322TIP3    H112930   6.773   1.846   2.786
 4322TIP3    H212931   6.915   1.869   2.831
 4323TIP3   OH212932   5.183   1.935   3.295
 4323TIP3    H112933   5.135   1.861   3.333
 4323TIP3    H212934   5.129   1.963   3.221
 4324TIP3   OH212935   4.719   0.662   1.187
 4324TIP3    H112936   4.788   0.699   1.132
 4324TIP3    H212937   4.640   0.668   1.133
 4325TIP3   OH212938   3.234   2.336   4.872
 4325TIP3    H112939   3.152   2.336   4.824
 4325TIP3    H212940   3.213   2.378   4.956
 4326TIP3   OH212941   5.773   4.363   3.958
 4326TIP3    H112942   5.692   4.344   4.006
 4326TIP3    H212943   5.796   4.452   3.985
 4327TIP3   OH212944   5.438   3.171   0.387
 4327TIP3    H112945   5.423   3.079   0.365
 4327TIP3    H212946   5.494   3.169   0.465
 4328TIP3   OH212947   4.956   5.786   5.106
 4328TIP3    H112948   5.017   5.796   5.033
 4328TIP3    H212949   4.943   5.875   5.139
 4329TIP3   OH212950   2.826   6.582   2.056
 4329TIP3    H112951   2.910   6.600   2.098
 4329TIP3    H212952   2.804   6.493   2.081
 4330TIP3   OH212953   5.201   0.139   1.416
 4330TIP3    H112954   5.228   0.048   1.406
 4330TIP3    H212955   5.168   0.164   1.329
 4331TIP3   OH212956   6.659   4.192   1.857
 4331TIP3    H112957   6.598   4.134   1.903
 4331TIP3    H212958   6.742   4.145   1.857
 4332TIP3   OH212959   0.652   6.344   1.774
 4332TIP3    H112960   0.565   6.344   1.734
 4332TIP3    H212961   0.699   6.274   1.728
 4333TIP3   OH212962   1.723   0.814   0.823
 4333TIP3    H112963   1.759   0.726   0.815
 4333TIP3    H212964   1.791   0.864   0.869
 4334TIP3   OH212965   3.229   4.306   0.393
 4334TIP3    H112966   3.172   4.278   0.465
 4334TIP3    H212967   3.280   4.378   0.431
 4335TIP3   OH212968   3.727   4.437   2.586
 4335TIP3    H112969   3.698   4.346   2.588
 4335TIP3    H212970   3.780   4.448   2.664
 4336TIP3   OH212971   5.322   2.235   0.541
 4336TIP3    H112972   5.399   2.226   0.597
 4336TIP3    H212973   5.348   2.200   0.456
 4337TIP3   OH212974   2.209   3.673   2.316
 4337TIP3    H112975   2.282   3.673   2.377
 4337TIP3    H212976   2.202   3.764   2.287
 4338TIP3   OH212977   0.511   4.839   2.080
 4338TIP3    H112978   0.541   4.828   1.990
 4338TIP3    H212979   0.455   4.918   2.077
 4339TIP3   OH212980   0.617   0.627   2.276
 4339TIP3    H112981   0.652   0.604   2.190
 4339TIP3    H212982   0.663   0.708   2.299
 4340TIP3   OH212983   1.653   3.550   5.382
 4340TIP3    H112984   1.672   3.460   5.410
 4340TIP3    H212985   1.739   3.592   5.375
 4341TIP3   OH212986   1.123   6.532   2.024
 4341TIP3    H112987   1.173   6.451   2.018
 4341TIP3    H212988   1.058   6.526   1.954
 4342TIP3   OH212989   1.183   3.984   1.765
 4342TIP3    H112990   1.116   4.048   1.744
 4342TIP3    H212991   1.248   3.992   1.695
 4343TIP3   OH212992   4.909   2.117   3.453
 4343TIP3    H112993   4.958   2.166   3.387
 4343TIP3    H212994   4.817   2.137   3.434
 4344TIP3   OH212995   6.509   6.007   5.445
 4344TIP3    H112996   6.484   6.070   5.513
 4344TIP3    H212997   6.601   6.026   5.428
 4345TIP3   OH212998   6.694   1.134   0.832
 4345TIP3    H112999   6.641   1.064   0.794
 4345TIP3    H213000   6.630   1.199   0.862
 4346TIP3   OH213001   3.448   2.795   5.428
 4346TIP3    H113002   3.438   2.743   5.348
 4346TIP3    H213003   3.392   2.751   5.492
 4347TIP3   OH213004   3.899   3.694   1.488
 4347TIP3    H113005   3.916   3.715   1.396
 4347TIP3    H213006   3.894   3.598   1.490
 4348TIP3   OH213007   5.489   2.461   0.688
 4348TIP3    H113008   5.398   2.488   0.698
 4348TIP3    H213009   5.501   2.450   0.594
 4349TIP3   OH213010   6.184   5.978   3.907
 4349TIP3    H113011   6.127   5.944   3.975
 4349TIP3    H213012   6.124   6.014   3.841
 4350TIP3   OH213013   3.583   2.971   4.462
 4350TIP3    H113014   3.644   3.037   4.494
 4350TIP3    H213015   3.527   2.951   4.536
 4351TIP3   OH213016   5.712   6.369   3.945
 4351TIP3    H113017   5.679   6.349   4.033
 4351TIP3    H213018   5.720   6.465   3.944
 4352TIP3   OH213019   3.188   3.993   5.688
 4352TIP3    H113020   3.174   4.050   5.612
 4352TIP3    H213021   3.206   3.907   5.651
 4353TIP3   OH213022   6.967   4.181   1.525
 4353TIP3    H113023   6.967   4.269   1.562
 4353TIP3    H213024   6.879   4.170   1.488
 4354TIP3   OH213025   5.722   5.345   2.369
 4354TIP3    H113026   5.680   5.285   2.430
 4354TIP3    H213027   5.723   5.429   2.414
 4355TIP3   OH213028   5.420   3.284   3.819
 4355TIP3    H113029   5.460   3.305   3.903
 4355TIP3    H213030   5.340   3.337   3.817
 4356TIP3   OH213031   0.254   4.788   3.514
 4356TIP3    H113032   0.205   4.840   3.579
 4356TIP3    H213033   0.330   4.842   3.493
 4357TIP3   OH213034   1.380   2.343   4.473
 4357TIP3    H113035   1.365   2.250   4.492
 4357TIP3    H213036   1.325   2.360   4.397
 4358TIP3   OH213037   4.039   6.385   2.794
 4358TIP3    H113038   4.113   6.325   2.802
 4358TIP3    H213039   3.997   6.384   2.880
 4359TIP3   OH213040   6.313   6.750   1.787
 4359TIP3    H113041   6.335   6.719   1.874
 4359TIP3    H213042   6.371   6.703   1.728
 4360TIP3   OH213043   6.641   3.707   1.867
 4360TIP3    H113044   6.561   3.660   1.843
 4360TIP3    H213045   6.671   3.665   1.948
 4361TIP3   OH213046   2.045   2.313   1.182
 4361TIP3    H113047   2.044   2.364   1.101
 4361TIP3    H213048   2.022   2.376   1.250
 4362TIP3   OH213049   2.561   4.147   1.905
 4362TIP3    H113050   2.521   4.231   1.930
 4362TIP3    H213051   2.509   4.081   1.950
 4363TIP3   OH213052   6.194   6.351   1.079
 4363TIP3    H113053   6.205   6.332   1.172
 4363TIP3    H213054   6.271   6.403   1.055
 4364TIP3   OH213055   5.949   5.185   1.724
 4364TIP3    H113056   6.034   5.188   1.679
 4364TIP3    H213057   5.943   5.095   1.755
 4365TIP3   OH213058   2.433   1.739   3.689
 4365TIP3    H113059   2.462   1.668   3.632
 4365TIP3    H213060   2.401   1.807   3.629
 4366TIP3   OH213061   5.348   2.028   1.280
 4366TIP3    H113062   5.312   2.004   1.195
 4366TIP3    H213063   5.396   1.951   1.309
 4367TIP3   OH213064   4.354   3.826   3.418
 4367TIP3    H113065   4.413   3.767   3.465
 4367TIP3    H213066   4.298   3.864   3.485
 4368TIP3   OH213067   3.883   4.342   2.319
 4368TIP3    H113068   3.933   4.269   2.356
 4368TIP3    H213069   3.949   4.408   2.297
 4369TIP3   OH213070   6.900   1.274   0.312
 4369TIP3    H113071   6.995   1.266   0.317
 4369TIP3    H213072   6.881   1.359   0.352
 4370TIP3   OH213073   6.003   6.489   1.615
 4370TIP3    H113074   6.057   6.565   1.596
 4370TIP3    H213075   6.065   6.416   1.620
 4371TIP3   OH213076   2.978   5.733   0.370
 4371TIP3    H113077   2.986   5.715   0.464
 4371TIP3    H213078   2.966   5.647   0.330
 4372TIP3   OH213079   6.102   3.352   2.376
 4372TIP3    H113080   6.056   3.377   2.295
 4372TIP3    H213081   6.079   3.421   2.438
 4373TIP3   OH213082   4.872   2.703   5.872
 4373TIP3    H113083   4.856   2.632   5.935
 4373TIP3    H213084   4.795   2.702   5.815
 4374TIP3   OH213085   5.521   3.305   0.660
 4374TIP3    H113086   5.517   3.236   0.726
 4374TIP3    H213087   5.615   3.315   0.641
 4375TIP3   OH213088   0.430   6.063   4.991
 4375TIP3    H113089   0.386   5.989   5.033
 4375TIP3    H213090   0.360   6.109   4.944
 4376TIP3   OH213091   6.452   2.611   1.329
 4376TIP3    H113092   6.371   2.567   1.304
 4376TIP3    H213093   6.425   2.700   1.353
 4377TIP3   OH213094   6.249   4.401   1.196
 4377TIP3    H113095   6.175   4.347   1.167
 4377TIP3    H213096   6.266   4.459   1.122
 4378TIP3   OH213097   0.426   3.983   1.453
 4378TIP3    H113098   0.331   3.973   1.454
 4378TIP3    H213099   0.454   3.936   1.375
 4379TIP3   OH213100   5.567   3.710   4.377
 4379TIP3    H113101   5.479   3.729   4.346
 4379TIP3    H213102   5.561   3.619   4.408
 4380TIP3   OH213103   7.106   0.724   1.554
 4380TIP3    H113104   7.156   0.646   1.529
 4380TIP3    H213105   7.023   0.716   1.506
 4381TIP3   OH213106   2.841   4.064   0.549
 4381TIP3    H113107   2.932   4.034   0.561
 4381TIP3    H213108   2.804   4.001   0.488
 4382TIP3   OH213109   1.012   1.522   1.132
 4382TIP3    H113110   1.002   1.613   1.159
 4382TIP3    H213111   0.929   1.480   1.157
 4383TIP3   OH213112   0.793   0.243   4.975
 4383TIP3    H113113   0.700   0.252   4.997
 4383TIP3    H213114   0.839   0.267   5.056
 4384TIP3   OH213115   1.301   4.055   3.465
 4384TIP3    H113116   1.260   3.994   3.527
 4384TIP3    H213117   1.364   4.001   3.416
 4385TIP3   OH213118   6.252   3.858   1.732
 4385TIP3    H113119   6.221   3.811   1.655
 4385TIP3    H213120   6.188   3.928   1.745
 4386TIP3   OH213121   3.372   5.424   1.272
 4386TIP3    H113122   3.363   5.509   1.316
 4386TIP3    H213123   3.283   5.396   1.253
 4387TIP3   OH213124   6.195   6.228   4.446
 4387TIP3    H113125   6.161   6.249   4.360
 4387TIP3    H213126   6.269   6.170   4.429
 4388TIP3   OH213127   7.082   3.093   2.101
 4388TIP3    H113128   7.172   3.070   2.124
 4388TIP3    H213129   7.081   3.189   2.105
 4389TIP3   OH213130   0.568   5.241   5.111
 4389TIP3    H113131   0.475   5.258   5.123
 4389TIP3    H213132   0.580   5.241   5.016
 4390TIP3   OH213133   3.357   6.310   1.737
 4390TIP3    H113134   3.407   6.235   1.704
 4390TIP3    H213135   3.279   6.312   1.682
 4391TIP3   OH213136   0.344   2.476   2.723
 4391TIP3    H113137   0.421   2.464   2.667
 4391TIP3    H213138   0.275   2.427   2.680
 4392TIP3   OH213139   2.037   1.533   1.609
 4392TIP3    H113140   2.079   1.559   1.527
 4392TIP3    H213141   2.021   1.439   1.599
 4393TIP3   OH213142   1.870   2.450   5.723
 4393TIP3    H113143   1.916   2.533   5.734
 4393TIP3    H213144   1.897   2.418   5.637
 4394TIP3   OH213145   3.499   1.391   3.137
 4394TIP3    H113146   3.490   1.486   3.127
 4394TIP3    H213147   3.593   1.376   3.144
 4395TIP3   OH213148   6.619   0.519   0.960
 4395TIP3    H113149   6.684   0.570   0.912
 4395TIP3    H213150   6.643   0.531   1.052
 4396TIP3   OH213151   1.641   0.591   2.135
 4396TIP3    H113152   1.594   0.525   2.186
 4396TIP3    H213153   1.666   0.545   2.054
 4397TIP3   OH213154   3.164   1.225   3.859
 4397TIP3    H113155   3.100   1.294   3.877
 4397TIP3    H213156   3.112   1.152   3.826
 4398TIP3   OH213157   1.139   2.903   0.664
 4398TIP3    H113158   1.230   2.875   0.662
 4398TIP3    H213159   1.117   2.921   0.573
 4399TIP3   OH213160   0.212   2.265   0.817
 4399TIP3    H113161   0.233   2.340   0.873
 4399TIP3    H213162   0.247   2.189   0.864
 4400TIP3   OH213163   3.644   4.663   5.159
 4400TIP3    H113164   3.635   4.700   5.071
 4400TIP3    H213165   3.574   4.597   5.165
 4401TIP3   OH213166   1.578   1.179   1.359
 4401TIP3    H113167   1.671   1.194   1.372
 4401TIP3    H213168   1.572   1.127   1.279
 4402TIP3   OH213169   6.650   2.785   0.157
 4402TIP3    H113170   6.559   2.779   0.186
 4402TIP3    H213171   6.689   2.849   0.216
 4403TIP3   OH213172   0.092   2.231   1.147
 4403TIP3    H113173   0.069   2.259   1.235
 4403TIP3    H213174   0.156   2.296   1.117
 4404TIP3   OH213175   5.506   6.755   3.974
 4404TIP3    H113176   5.506   6.840   4.016
 4404TIP3    H213177   5.429   6.710   4.010
 4405TIP3   OH213178   1.731   5.076   4.057
 4405TIP3    H113179   1.820   5.041   4.056
 4405TIP3    H213180   1.677   5.002   4.029
 4406TIP3   OH213181   0.580   0.059   2.887
 4406TIP3    H113182   0.515   0.123   2.857
 4406TIP3    H213183   0.583  -0.007   2.818
 4407TIP3   OH213184   4.882   5.021   1.603
 4407TIP3    H113185   4.787   5.027   1.607
 4407TIP3    H213186   4.899   4.941   1.553
 4408TIP3   OH213187   1.108   3.533   2.500
 4408TIP3    H113188   1.067   3.478   2.433
 4408TIP3    H213189   1.134   3.612   2.454
 4409TIP3   OH213190   4.651   6.160   3.469
 4409TIP3    H113191   4.651   6.079   3.417
 4409TIP3    H213192   4.601   6.222   3.417
 4410TIP3   OH213193   2.011   0.374   3.444
 4410TIP3    H113194   2.052   0.404   3.363
 4410TIP3    H213195   2.034   0.440   3.509
 4411TIP3   OH213196   3.129   6.026   1.643
 4411TIP3    H113197   3.116   6.092   1.712
 4411TIP3    H213198   3.047   5.977   1.642
 4412TIP3   OH213199   2.077   1.832   1.203
 4412TIP3    H113200   2.066   1.737   1.213
 4412TIP3    H213201   2.003   1.859   1.148
 4413TIP3   OH213202   4.858   5.553   1.602
 4413TIP3    H113203   4.800   5.601   1.542
 4413TIP3    H213204   4.867   5.466   1.563
 4414TIP3   OH213205   1.466   2.448   2.425
 4414TIP3    H113206   1.442   2.379   2.486
 4414TIP3    H213207   1.385   2.468   2.378
 4415TIP3   OH213208   2.101   4.598   1.777
 4415TIP3    H113209   2.092   4.683   1.735
 4415TIP3    H213210   2.011   4.570   1.795
 4416TIP3   OH213211   4.881   1.101   4.196
 4416TIP3    H113212   4.828   1.153   4.135
 4416TIP3    H213213   4.854   1.131   4.283
 4417TIP3   OH213214   6.692   4.028   0.464
 4417TIP3    H113215   6.780   4.018   0.428
 4417TIP3    H213216   6.707   4.047   0.557
 4418TIP3   OH213217   6.326   1.393   2.577
 4418TIP3    H113218   6.361   1.467   2.626
 4418TIP3    H213219   6.346   1.413   2.485
 4419TIP3   OH213220   3.782   6.662   5.439
 4419TIP3    H113221   3.781   6.736   5.378
 4419TIP3    H213222   3.828   6.593   5.391
 4420TIP3   OH213223   0.180   1.529   0.008
 4420TIP3    H113224   0.137   1.448   0.036
 4420TIP3    H213225   0.268   1.503  -0.016
 4421TIP3   OH213226   6.596   3.837   1.276
 4421TIP3    H113227   6.598   3.932   1.260
 4421TIP3    H213228   6.502   3.817   1.284
 4422TIP3   OH213229   2.928   4.734   0.808
 4422TIP3    H113230   2.846   4.743   0.758
 4422TIP3    H213231   2.933   4.641   0.829
 4423TIP3   OH213232   5.364   1.059   4.503
 4423TIP3    H113233   5.369   0.973   4.461
 4423TIP3    H213234   5.285   1.100   4.467
 4424TIP3   OH213235   5.804   0.935   5.588
 4424TIP3    H113236   5.753   0.863   5.626
 4424TIP3    H213237   5.788   1.009   5.647
 4425TIP3   OH213238   6.810   6.192   3.138
 4425TIP3    H113239   6.860   6.245   3.076
 4425TIP3    H213240   6.752   6.254   3.181
 4426TIP3   OH213241   1.383   5.109   0.295
 4426TIP3    H113242   1.382   5.085   0.388
 4426TIP3    H213243   1.475   5.104   0.269
 4427TIP3   OH213244   0.956   2.414   0.055
 4427TIP3    H113245   1.008   2.453   0.126
 4427TIP3    H213246   1.001   2.441  -0.025
 4428TIP3   OH213247   0.132   5.988   1.350
 4428TIP3    H113248   0.067   6.021   1.288
 4428TIP3    H213249   0.100   5.901   1.375
 4429TIP3   OH213250   4.018   2.794   4.893
 4429TIP3    H113251   4.040   2.723   4.833
 4429TIP3    H213252   3.930   2.774   4.924
 4430TIP3   OH213253   1.691   6.324   1.864
 4430TIP3    H113254   1.758   6.372   1.912
 4430TIP3    H213255   1.716   6.333   1.772
 4431TIP3   OH213256   0.769   2.316   1.165
 4431TIP3    H113257   0.752   2.392   1.220
 4431TIP3    H213258   0.685   2.269   1.163
 4432TIP3   OH213259   2.434   1.213   3.280
 4432TIP3    H113260   2.452   1.125   3.247
 4432TIP3    H213261   2.348   1.206   3.322
 4433TIP3   OH213262   0.427   5.325   2.083
 4433TIP3    H113263   0.348   5.362   2.121
 4433TIP3    H213264   0.487   5.399   2.072
 4434TIP3   OH213265   4.339   0.332   4.081
 4434TIP3    H113266   4.331   0.313   3.988
 4434TIP3    H213267   4.420   0.289   4.108
 4435TIP3   OH213268   6.876   6.388   3.730
 4435TIP3    H113269   6.917   6.472   3.710
 4435TIP3    H213270   6.929   6.352   3.802
 4436TIP3   OH213271   0.526   4.972   3.988
 4436TIP3    H113272   0.483   5.049   3.953
 4436TIP3    H213273   0.603   4.960   3.931
 4437TIP3   OH213274   1.608   1.634   3.480
 4437TIP3    H113275   1.581   1.561   3.535
 4437TIP3    H213276   1.603   1.600   3.390
 4438TIP3   OH213277   1.180   6.725   5.543
 4438TIP3    H113278   1.120   6.728   5.469
 4438TIP3    H213279   1.141   6.661   5.603
 4439TIP3   OH213280   4.541   4.172   4.499
 4439TIP3    H113281   4.460   4.209   4.533
 4439TIP3    H213282   4.555   4.092   4.551
 4440TIP3   OH213283   5.333   5.714   1.797
 4440TIP3    H113284   5.273   5.788   1.789
 4440TIP3    H213285   5.359   5.696   1.707
 4441TIP3   OH213286   0.453   0.555   5.711
 4441TIP3    H113287   0.430   0.511   5.629
 4441TIP3    H213288   0.449   0.648   5.688
 4442TIP3   OH213289   6.123   6.084   2.800
 4442TIP3    H113290   6.213   6.116   2.795
 4442TIP3    H213291   6.069   6.163   2.798
 4443TIP3   OH213292   0.411   6.278   0.700
 4443TIP3    H113293   0.316   6.271   0.706
 4443TIP3    H213294   0.425   6.354   0.643
 4444TIP3   OH213295   2.938   2.818   1.132
 4444TIP3    H113296   2.944   2.898   1.080
 4444TIP3    H213297   2.855   2.826   1.180
 4445TIP3   OH213298   0.731   3.984   3.762
 4445TIP3    H113299   0.676   3.933   3.821
 4445TIP3    H213300   0.793   4.029   3.819
 4446TIP3   OH213301   5.639   1.752   5.433
 4446TIP3    H113302   5.558   1.801   5.450
 4446TIP3    H213303   5.707   1.801   5.479
 4447TIP3   OH213304   2.853   3.510   4.209
 4447TIP3    H113305   2.867   3.435   4.151
 4447TIP3    H213306   2.942   3.535   4.236
 4448TIP3   OH213307   4.913   6.298   1.108
 4448TIP3    H113308   4.846   6.314   1.175
 4448TIP3    H213309   4.949   6.385   1.089
 4449TIP3   OH213310   0.811   3.671   2.863
 4449TIP3    H113311   0.810   3.581   2.895
 4449TIP3    H213312   0.899   3.683   2.827
 4450TIP3   OH213313   1.284   2.448   3.047
 4450TIP3    H113314   1.202   2.457   3.096
 4450TIP3    H213315   1.257   2.414   2.962
 4451TIP3   OH213316   5.175   0.747   1.578
 4451TIP3    H113317   5.204   0.657   1.593
 4451TIP3    H213318   5.084   0.747   1.610
 4452TIP3   OH213319   6.799   1.556   5.092
 4452TIP3    H113320   6.713   1.581   5.057
 4452TIP3    H213321   6.835   1.498   5.025
 4453TIP3   OH213322   3.964   2.429   0.106
 4453TIP3    H113323   3.996   2.343   0.076
 4453TIP3    H213324   3.872   2.415   0.125
 4454TIP3   OH213325   4.562   4.582   1.683
 4454TIP3    H113326   4.533   4.502   1.727
 4454TIP3    H213327   4.561   4.560   1.589
 4455TIP3   OH213328   0.089   6.091   1.083
 4455TIP3    H113329   0.054   6.180   1.080
 4455TIP3    H213330   0.060   6.051   1.001
 4456TIP3   OH213331   1.173   5.506   5.561
 4456TIP3    H113332   1.205   5.416   5.567
 4456TIP3    H213333   1.127   5.520   5.644
 4457TIP3   OH213334   1.531   1.057   0.844
 4457TIP3    H113335   1.616   1.018   0.827
 4457TIP3    H213336   1.500   1.088   0.759
 4458TIP3   OH213337   3.497   1.327   3.676
 4458TIP3    H113338   3.416   1.349   3.630
 4458TIP3    H213339   3.467   1.286   3.758
 4459TIP3   OH213340   4.670   0.094   5.234
 4459TIP3    H113341   4.577   0.112   5.217
 4459TIP3    H213342   4.710   0.093   5.147
 4460TIP3   OH213343   4.013   3.078   3.146
 4460TIP3    H113344   3.987   3.170   3.140
 4460TIP3    H213345   4.109   3.080   3.147
 4461TIP3   OH213346   2.251   4.684   5.554
 4461TIP3    H113347   2.234   4.591   5.538
 4461TIP3    H213348   2.304   4.684   5.634
 4462TIP3   OH213349   6.708   2.842   2.281
 4462TIP3    H113350   6.747   2.913   2.333
 4462TIP3    H213351   6.779   2.779   2.270
 4463TIP3   OH213352   1.303   4.029   2.072
 4463TIP3    H113353   1.210   4.017   2.051
 4463TIP3    H213354   1.340   4.068   1.993
 4464TIP3   OH213355   4.651   0.100   5.809
 4464TIP3    H113356   4.632   0.010   5.836
 4464TIP3    H213357   4.726   0.126   5.863
 4465TIP3   OH213358   4.056   2.052   4.965
 4465TIP3    H113359   4.005   2.123   5.003
 4465TIP3    H213360   4.000   2.017   4.896
 4466TIP3   OH213361   3.880   4.598   4.870
 4466TIP3    H113362   3.841   4.685   4.871
 4466TIP3    H213363   3.963   4.610   4.822
 4467TIP3   OH213364   2.488   1.228   4.460
 4467TIP3    H113365   2.438   1.309   4.448
 4467TIP3    H213366   2.548   1.247   4.532
 4468TIP3   OH213367   4.860   6.764   5.161
 4468TIP3    H113368   4.953   6.769   5.141
 4468TIP3    H213369   4.819   6.743   5.077
 4469TIP3   OH213370   6.041   0.197   1.683
 4469TIP3    H113371   6.060   0.103   1.683
 4469TIP3    H213372   6.066   0.226   1.771
 4470TIP3   OH213373   4.886   0.024   0.569
 4470TIP3    H113374   4.930   0.070   0.498
 4470TIP3    H213375   4.939   0.044   0.646
 4471TIP3   OH213376   2.914   5.735   4.427
 4471TIP3    H113377   2.898   5.811   4.370
 4471TIP3    H213378   2.909   5.770   4.516
 4472TIP3   OH213379   1.025   1.062   4.274
 4472TIP3    H113380   0.934   1.073   4.301
 4472TIP3    H213381   1.075   1.109   4.341
 4473TIP3   OH213382   3.072   2.542   5.770
 4473TIP3    H113383   3.060   2.622   5.821
 4473TIP3    H213384   3.012   2.478   5.810
 4474TIP3   OH213385   1.234   6.756   3.338
 4474TIP3    H113386   1.239   6.731   3.430
 4474TIP3    H213387   1.174   6.831   3.337
 4475TIP3   OH213388   3.941   3.391   0.172
 4475TIP3    H113389   4.008   3.420   0.234
 4475TIP3    H213390   3.972   3.305   0.142
 4476TIP3   OH213391   6.917   4.091   1.924
 4476TIP3    H113392   6.905   4.023   1.990
 4476TIP3    H213393   7.011   4.110   1.926
 4477TIP3   OH213394   4.004   6.162   4.149
 4477TIP3    H113395   3.947   6.085   4.144
 4477TIP3    H213396   4.058   6.157   4.070
 4478TIP3   OH213397   3.166   1.600   5.647
 4478TIP3    H113398   3.147   1.649   5.567
 4478TIP3    H213399   3.082   1.594   5.692
 4479TIP3   OH213400   3.097   3.796   4.507
 4479TIP3    H113401   3.061   3.858   4.571
 4479TIP3    H213402   3.140   3.729   4.560
 4480TIP3   OH213403   5.179   2.309   3.537
 4480TIP3    H113404   5.153   2.265   3.456
 4480TIP3    H213405   5.173   2.402   3.517
 4481TIP3   OH213406   0.660   3.057   5.698
 4481TIP3    H113407   0.665   2.979   5.643
 4481TIP3    H213408   0.566   3.070   5.712
 4482TIP3   OH213409   4.414   0.839   3.153
 4482TIP3    H113410   4.359   0.761   3.152
 4482TIP3    H213411   4.503   0.805   3.140
 4483TIP3   OH213412   3.337   0.560   3.103
 4483TIP3    H113413   3.304   0.505   3.032
 4483TIP3    H213414   3.421   0.593   3.070
 4484TIP3   OH213415   6.427   4.691   5.395
 4484TIP3    H113416   6.426   4.705   5.489
 4484TIP3    H213417   6.505   4.638   5.379
 4485TIP3   OH213418   5.539   5.885   4.235
 4485TIP3    H113419   5.528   5.962   4.291
 4485TIP3    H213420   5.554   5.813   4.296
 4486TIP3   OH213421   1.588   5.800   0.499
 4486TIP3    H113422   1.668   5.758   0.466
 4486TIP3    H213423   1.608   5.893   0.500
 4487TIP3   OH213424   6.350   4.386   5.062
 4487TIP3    H113425   6.257   4.408   5.066
 4487TIP3    H213426   6.389   4.455   5.008
 4488TIP3   OH213427   1.730   3.474   1.273
 4488TIP3    H113428   1.787   3.409   1.231
 4488TIP3    H213429   1.665   3.422   1.321
 4489TIP3   OH213430   3.972   2.854   1.711
 4489TIP3    H113431   3.952   2.944   1.688
 4489TIP3    H213432   3.944   2.845   1.802
 4490TIP3   OH213433   0.168   3.234   3.671
 4490TIP3    H113434   0.140   3.266   3.585
 4490TIP3    H213435   0.110   3.159   3.689
 4491TIP3   OH213436   3.325   4.625   0.177
 4491TIP3    H113437   3.351   4.585   0.093
 4491TIP3    H213438   3.376   4.706   0.182
 4492TIP3   OH213439   5.810   0.572   2.495
 4492TIP3    H113440   5.717   0.578   2.470
 4492TIP3    H213441   5.857   0.576   2.411
 4493TIP3   OH213442   2.566   1.449   1.855
 4493TIP3    H113443   2.533   1.464   1.944
 4493TIP3    H213444   2.595   1.536   1.826
 4494TIP3   OH213445   0.952   0.795   0.290
 4494TIP3    H113446   1.025   0.740   0.317
 4494TIP3    H213447   0.932   0.766   0.201
 4495TIP3   OH213448   3.567   0.472   3.494
 4495TIP3    H113449   3.488   0.483   3.442
 4495TIP3    H213450   3.619   0.407   3.446
 4496TIP3   OH213451   1.760   4.642   2.706
 4496TIP3    H113452   1.695   4.671   2.770
 4496TIP3    H213453   1.844   4.670   2.743
 4497TIP3   OH213454   5.088   4.965   2.928
 4497TIP3    H113455   5.141   5.040   2.901
 4497TIP3    H213456   5.039   4.941   2.850
 4498TIP3   OH213457   4.235   4.261   0.982
 4498TIP3    H113458   4.252   4.213   0.901
 4498TIP3    H213459   4.312   4.317   0.994
 4499TIP3   OH213460   5.211   5.991   1.445
 4499TIP3    H113461   5.192   5.961   1.534
 4499TIP3    H213462   5.151   5.942   1.390
 4500TIP3   OH213463   6.493   6.627   2.583
 4500TIP3    H113464   6.423   6.668   2.533
 4500TIP3    H213465   6.507   6.543   2.541
 4501TIP3   OH213466   3.099   6.198   3.960
 4501TIP3    H113467   3.101   6.253   4.039
 4501TIP3    H213468   3.022   6.228   3.912
 4502TIP3   OH213469   6.078   3.915   0.473
 4502TIP3    H113470   6.104   3.967   0.397
 4502TIP3    H213471   6.080   3.824   0.442
 4503TIP3   OH213472   4.517   6.616   3.181
 4503TIP3    H113473   4.463   6.547   3.142
 4503TIP3    H213474   4.534   6.676   3.108
 4504TIP3   OH213475   3.538   3.123   5.290
 4504TIP3    H113476   3.528   3.155   5.201
 4504TIP3    H213477   3.613   3.172   5.325
 4505TIP3   OH213478   6.294   2.688   4.627
 4505TIP3    H113479   6.286   2.619   4.693
 4505TIP3    H213480   6.280   2.643   4.543
 4506TIP3   OH213481   5.235   3.572   1.729
 4506TIP3    H113482   5.215   3.606   1.642
 4506TIP3    H213483   5.197   3.637   1.789
 4507TIP3   OH213484   0.157   4.537   3.622
 4507TIP3    H113485   0.139   4.537   3.716
 4507TIP3    H213486   0.213   4.614   3.608
 4508TIP3   OH213487   3.392   2.335   5.473
 4508TIP3    H113488   3.439   2.260   5.510
 4508TIP3    H213489   3.453   2.373   5.410
 4509TIP3   OH213490   2.687   0.099   0.741
 4509TIP3    H113491   2.724   0.174   0.695
 4509TIP3    H213492   2.659   0.040   0.672
 4510TIP3   OH213493   4.894   1.655   1.146
 4510TIP3    H113494   4.819   1.707   1.118
 4510TIP3    H213495   4.939   1.631   1.064
 4511TIP3   OH213496   5.026   0.282   1.655
 4511TIP3    H113497   4.983   0.368   1.659
 4511TIP3    H213498   5.041   0.268   1.561
 4512TIP3   OH213499   5.442   0.616   5.562
 4512TIP3    H113500   5.461   0.526   5.537
 4512TIP3    H213501   5.420   0.660   5.480
 4513TIP3   OH213502   4.393   2.137   5.667
 4513TIP3    H113503   4.326   2.198   5.698
 4513TIP3    H213504   4.451   2.125   5.741
 4514TIP3   OH213505   3.257   1.388   3.551
 4514TIP3    H113506   3.217   1.450   3.490
 4514TIP3    H213507   3.212   1.305   3.533
 4515TIP3   OH213508   1.207   1.437   0.224
 4515TIP3    H113509   1.112   1.437   0.238
 4515TIP3    H213510   1.244   1.420   0.310
 4516TIP3   OH213511   5.215   2.533   1.151
 4516TIP3    H113512   5.234   2.440   1.143
 4516TIP3    H213513   5.147   2.550   1.086
 4517TIP3   OH213514   2.063   4.196   3.506
 4517TIP3    H113515   1.969   4.197   3.490
 4517TIP3    H213516   2.101   4.158   3.428
 4518TIP3   OH213517   2.034   3.498   5.333
 4518TIP3    H113518   1.980   3.430   5.373
 4518TIP3    H213519   1.971   3.557   5.291
 4519TIP3   OH213520   4.598   3.878   4.097
 4519TIP3    H113521   4.515   3.915   4.066
 4519TIP3    H213522   4.640   3.845   4.018
 4520TIP3   OH213523   5.211   2.997   5.142
 4520TIP3    H113524   5.134   3.026   5.190
 4520TIP3    H213525   5.209   2.901   5.147
 4521TIP3   OH213526   2.797   2.206   1.188
 4521TIP3    H113527   2.706   2.182   1.208
 4521TIP3    H213528   2.846   2.125   1.201
 4522TIP3   OH213529   1.487   4.556   1.394
 4522TIP3    H113530   1.488   4.613   1.471
 4522TIP3    H213531   1.420   4.491   1.413
 4523TIP3   OH213532   4.198   3.551   1.510
 4523TIP3    H113533   4.200   3.645   1.531
 4523TIP3    H213534   4.130   3.515   1.568
 4524TIP3   OH213535   4.609   0.768   5.188
 4524TIP3    H113536   4.561   0.770   5.106
 4524TIP3    H213537   4.680   0.831   5.177
 4525TIP3   OH213538   4.123   3.506   3.384
 4525TIP3    H113539   4.034   3.475   3.373
 4525TIP3    H213540   4.122   3.595   3.348
 4526TIP3   OH213541   4.249   5.064   2.727
 4526TIP3    H113542   4.266   5.065   2.633
 4526TIP3    H213543   4.310   4.999   2.762
 4527TIP3   OH213544   1.103   2.763   2.171
 4527TIP3    H113545   1.038   2.833   2.176
 4527TIP3    H213546   1.054   2.687   2.141
 4528TIP3   OH213547   4.693   6.209   5.263
 4528TIP3    H113548   4.638   6.141   5.301
 4528TIP3    H213549   4.729   6.256   5.338
 4529TIP3   OH213550   1.821   4.994   5.096
 4529TIP3    H113551   1.732   5.021   5.121
 4529TIP3    H213552   1.807   4.928   5.027
 4530TIP3   OH213553   1.423   1.181   0.626
 4530TIP3    H113554   1.383   1.260   0.590
 4530TIP3    H213555   1.513   1.182   0.594
 4531TIP3   OH213556   1.931   3.968   0.677
 4531TIP3    H113557   1.922   4.046   0.732
 4531TIP3    H213558   1.866   3.907   0.713
 4532TIP3   OH213559   0.645   2.560   2.328
 4532TIP3    H113560   0.599   2.502   2.388
 4532TIP3    H213561   0.736   2.559   2.359
 4533TIP3   OH213562   5.516   5.030   4.082
 4533TIP3    H113563   5.595   5.081   4.098
 4533TIP3    H213564   5.520   4.958   4.145
 4534TIP3   OH213565   6.648   6.282   5.417
 4534TIP3    H113566   6.648   6.357   5.476
 4534TIP3    H213567   6.627   6.319   5.331
 4535TIP3   OH213568   3.065   4.148   3.492
 4535TIP3    H113569   2.979   4.127   3.455
 4535TIP3    H213570   3.045   4.183   3.579
 4536TIP3   OH213571   2.937   5.291   1.874
 4536TIP3    H113572   2.865   5.228   1.866
 4536TIP3    H213573   2.990   5.257   1.945
 4537TIP3   OH213574   5.913   6.731   3.322
 4537TIP3    H113575   5.863   6.778   3.255
 4537TIP3    H213576   5.853   6.723   3.396
 4538TIP3   OH213577   0.402   0.312   3.563
 4538TIP3    H113578   0.368   0.222   3.570
 4538TIP3    H213579   0.430   0.334   3.651
 4539TIP3   OH213580   1.852   6.347   5.532
 4539TIP3    H113581   1.818   6.329   5.619
 4539TIP3    H213582   1.946   6.327   5.538
 4540TIP3   OH213583   4.699   3.812   0.469
 4540TIP3    H113584   4.771   3.864   0.506
 4540TIP3    H213585   4.645   3.789   0.545
 4541TIP3   OH213586   4.814   4.278   1.404
 4541TIP3    H113587   4.801   4.236   1.489
 4541TIP3    H213588   4.834   4.207   1.344
 4542TIP3   OH213589   1.480   1.375   5.823
 4542TIP3    H113590   1.546   1.405   5.886
 4542TIP3    H213591   1.445   1.455   5.785
 4543TIP3   OH213592   6.386   0.589   5.576
 4543TIP3    H113593   6.408   0.503   5.609
 4543TIP3    H213594   6.352   0.636   5.652
 4544TIP3   OH213595   4.358   1.970   4.231
 4544TIP3    H113596   4.305   2.026   4.174
 4544TIP3    H213597   4.364   1.887   4.184
 4545TIP3   OH213598   3.258   3.458   5.793
 4545TIP3    H113599   3.278   3.523   5.861
 4545TIP3    H213600   3.194   3.501   5.737
 4546TIP3   OH213601   0.707   2.576   5.842
 4546TIP3    H113602   0.639   2.577   5.909
 4546TIP3    H213603   0.777   2.523   5.880
 4547TIP3   OH213604   1.210   3.733   0.896
 4547TIP3    H113605   1.171   3.818   0.915
 4547TIP3    H213606   1.255   3.709   0.976
 4548TIP3   OH213607   0.277   4.176   2.315
 4548TIP3    H113608   0.303   4.262   2.350
 4548TIP3    H213609   0.301   4.114   2.384
 4549TIP3   OH213610   1.825   4.772   0.509
 4549TIP3    H113611   1.868   4.790   0.426
 4549TIP3    H213612   1.821   4.857   0.554
 4550TIP3   OH213613   1.193   3.317   5.406
 4550TIP3    H113614   1.221   3.250   5.467
 4550TIP3    H213615   1.103   3.292   5.382
 4551TIP3   OH213616   5.373   5.358   0.443
 4551TIP3    H113617   5.346   5.346   0.534
 4551TIP3    H213618   5.463   5.325   0.439
 4552TIP3   OH213619   0.705   2.236   2.280
 4552TIP3    H113620   0.664   2.180   2.346
 4552TIP3    H213621   0.750   2.304   2.330
 4553TIP3   OH213622   2.841   6.284   2.753
 4553TIP3    H113623   2.787   6.265   2.677
 4553TIP3    H213624   2.785   6.338   2.809
 4554TIP3   OH213625   5.890   4.503   2.504
 4554TIP3    H113626   5.953   4.431   2.509
 4554TIP3    H213627   5.848   4.493   2.419
 4555TIP3   OH213628   0.907   6.172   4.136
 4555TIP3    H113629   0.819   6.136   4.120
 4555TIP3    H213630   0.891   6.254   4.182
 4556TIP3   OH213631   3.317   6.358   0.121
 4556TIP3    H113632   3.226   6.339   0.143
 4556TIP3    H213633   3.315   6.375   0.026
 4557TIP3   OH213634   3.719   3.639   5.620
 4557TIP3    H113635   3.806   3.604   5.638
 4557TIP3    H213636   3.697   3.691   5.697
 4558TIP3   OH213637   1.099   5.263   1.608
 4558TIP3    H113638   1.177   5.317   1.620
 4558TIP3    H213639   1.037   5.295   1.674
 4559TIP3   OH213640   6.689   3.116   0.535
 4559TIP3    H113641   6.751   3.145   0.468
 4559TIP3    H213642   6.618   3.181   0.532
 4560TIP3   OH213643   0.615   1.704   4.651
 4560TIP3    H113644   0.607   1.615   4.616
 4560TIP3    H213645   0.661   1.753   4.582
 4561TIP3   OH213646   6.310   2.534   2.062
 4561TIP3    H113647   6.294   2.579   1.979
 4561TIP3    H213648   6.365   2.594   2.112
 4562TIP3   OH213649   6.460   2.513   5.127
 4562TIP3    H113650   6.406   2.463   5.065
 4562TIP3    H213651   6.499   2.447   5.184
 4563TIP3   OH213652   2.612   4.093   4.321
 4563TIP3    H113653   2.618   4.028   4.251
 4563TIP3    H213654   2.651   4.050   4.397
 4564TIP3   OH213655   6.240   2.431   4.734
 4564TIP3    H113656   6.241   2.350   4.683
 4564TIP3    H213657   6.290   2.410   4.813
 4565TIP3   OH213658   6.804   4.763   5.722
 4565TIP3    H113659   6.863   4.693   5.749
 4565TIP3    H213660   6.807   4.760   5.626
 4566TIP3   OH213661   2.273   5.402   1.924
 4566TIP3    H113662   2.203   5.375   1.984
 4566TIP3    H213663   2.352   5.364   1.962
 4567TIP3   OH213664   0.463   3.306   4.410
 4567TIP3    H113665   0.403   3.373   4.440
 4567TIP3    H213666   0.426   3.276   4.326
 4568TIP3   OH213667   5.152   2.875   2.842
 4568TIP3    H113668   5.188   2.963   2.856
 4568TIP3    H213669   5.227   2.817   2.854
 4569TIP3   OH213670   2.555   5.358   2.811
 4569TIP3    H113671   2.636   5.378   2.858
 4569TIP3    H213672   2.490   5.419   2.847
 4570TIP3   OH213673   1.608   4.200   5.318
 4570TIP3    H113674   1.634   4.201   5.226
 4570TIP3    H213675   1.515   4.177   5.317
 4571TIP3   OH213676   6.333   4.544   0.987
 4571TIP3    H113677   6.271   4.592   0.933
 4571TIP3    H213678   6.416   4.590   0.975
 4572TIP3   OH213679   4.866   6.750   1.634
 4572TIP3    H113680   4.868   6.834   1.587
 4572TIP3    H213681   4.952   6.744   1.675
 4573TIP3   OH213682   1.496   4.692   0.087
 4573TIP3    H113683   1.591   4.681   0.076
 4573TIP3    H213684   1.465   4.711  -0.002
 4574TIP3   OH213685   5.638   5.443   5.073
 4574TIP3    H113686   5.598   5.528   5.091
 4574TIP3    H213687   5.652   5.405   5.159
 4575TIP3   OH213688   5.719   4.139   2.765
 4575TIP3    H113689   5.811   4.133   2.741
 4575TIP3    H213690   5.687   4.049   2.761
 4576TIP3   OH213691   1.480   5.039   1.401
 4576TIP3    H113692   1.502   4.957   1.356
 4576TIP3    H213693   1.439   5.094   1.333
 4577TIP3   OH213694   6.142   1.590   3.299
 4577TIP3    H113695   6.155   1.664   3.239
 4577TIP3    H213696   6.157   1.628   3.386
 4578TIP3   OH213697   0.762   3.413   4.834
 4578TIP3    H113698   0.823   3.361   4.782
 4578TIP3    H213699   0.809   3.430   4.916
 4579TIP3   OH213700   0.708   3.807   2.324
 4579TIP3    H113701   0.685   3.782   2.414
 4579TIP3    H213702   0.776   3.745   2.298
 4580TIP3   OH213703   4.075   6.488   3.436
 4580TIP3    H113704   4.028   6.465   3.356
 4580TIP3    H213705   4.033   6.569   3.466
 4581TIP3   OH213706   4.543   1.114   0.876
 4581TIP3    H113707   4.497   1.080   0.953
 4581TIP3    H213708   4.543   1.041   0.814
 4582TIP3   OH213709   0.564   3.574   5.105
 4582TIP3    H113710   0.599   3.504   5.160
 4582TIP3    H213711   0.534   3.530   5.026
 4583TIP3   OH213712   1.364   2.266   0.790
 4583TIP3    H113713   1.416   2.335   0.747
 4583TIP3    H213714   1.411   2.249   0.871
 4584TIP3   OH213715   7.079   6.372   0.695
 4584TIP3    H113716   7.050   6.370   0.604
 4584TIP3    H213717   7.127   6.454   0.703
 4585TIP3   OH213718   3.448   0.674   2.502
 4585TIP3    H113719   3.493   0.603   2.456
 4585TIP3    H213720   3.357   0.668   2.472
 4586TIP3   OH213721   5.064   1.150   2.295
 4586TIP3    H113722   5.076   1.080   2.232
 4586TIP3    H213723   5.152   1.179   2.317
 4587TIP3   OH213724   2.307   3.429   5.622
 4587TIP3    H113725   2.360   3.438   5.701
 4587TIP3    H213726   2.258   3.348   5.635
 4588TIP3   OH213727   4.977   3.262   4.856
 4588TIP3    H113728   5.014   3.338   4.900
 4588TIP3    H213729   4.925   3.300   4.784
 4589TIP3   OH213730   0.025   4.451   5.808
 4589TIP3    H113731   0.022   4.414   5.720
 4589TIP3    H213732   0.028   4.374   5.866
 4590TIP3   OH213733   5.574   5.132   2.452
 4590TIP3    H113734   5.624   5.137   2.370
 4590TIP3    H213735   5.495   5.083   2.428
 4591TIP3   OH213736   3.555   2.315   4.182
 4591TIP3    H113737   3.596   2.326   4.268
 4591TIP3    H213738   3.465   2.290   4.201
 4592TIP3   OH213739   4.290   6.771   2.213
 4592TIP3    H113740   4.328   6.691   2.177
 4592TIP3    H213741   4.330   6.842   2.163
 4593TIP3   OH213742   6.747   6.716   3.117
 4593TIP3    H113743   6.654   6.702   3.134
 4593TIP3    H213744   6.756   6.705   3.022
 4594TIP3   OH213745   6.985   2.150   3.924
 4594TIP3    H113746   7.067   2.118   3.887
 4594TIP3    H213747   6.925   2.153   3.850
 4595TIP3   OH213748   6.157   3.307   0.709
 4595TIP3    H113749   6.172   3.367   0.782
 4595TIP3    H213750   6.091   3.245   0.741
 4596TIP3   OH213751   4.607   2.804   1.963
 4596TIP3    H113752   4.682   2.844   1.920
 4596TIP3    H213753   4.534   2.864   1.945
 4597TIP3   OH213754   3.183   4.556   0.672
 4597TIP3    H113755   3.147   4.468   0.661
 4597TIP3    H213756   3.239   4.568   0.596
 4598TIP3   OH213757   2.840   1.319   0.735
 4598TIP3    H113758   2.746   1.333   0.728
 4598TIP3    H213759   2.858   1.247   0.674
 4599TIP3   OH213760   4.184   5.776   1.116
 4599TIP3    H113761   4.133   5.805   1.191
 4599TIP3    H213762   4.128   5.713   1.071
 4600TIP3   OH213763   4.154   6.748   4.625
 4600TIP3    H113764   4.146   6.712   4.713
 4600TIP3    H213765   4.232   6.706   4.588
 4601TIP3   OH213766   4.567   4.023   1.460
 4601TIP3    H113767   4.563   3.933   1.491
 4601TIP3    H213768   4.659   4.047   1.467
 4602TIP3   OH213769   3.277   4.851   2.042
 4602TIP3    H113770   3.202   4.793   2.031
 4602TIP3    H213771   3.329   4.839   1.963
 4603TIP3   OH213772   0.543   3.338   3.468
 4603TIP3    H113773   0.603   3.285   3.415
 4603TIP3    H213774   0.468   3.353   3.411
 4604TIP3   OH213775   0.873   2.790   4.102
 4604TIP3    H113776   0.900   2.880   4.119
 4604TIP3    H213777   0.949   2.737   4.128
 4605TIP3   OH213778   5.051   3.800   5.718
 4605TIP3    H113779   5.057   3.778   5.811
 4605TIP3    H213780   5.093   3.886   5.710
 4606TIP3   OH213781   0.619   3.505   4.044
 4606TIP3    H113782   0.689   3.442   4.064
 4606TIP3    H213783   0.651   3.554   3.969
 4607TIP3   OH213784   4.933   5.678   1.828
 4607TIP3    H113785   4.893   5.616   1.767
 4607TIP3    H213786   4.866   5.745   1.842
 4608TIP3   OH213787   3.223   2.252   3.237
 4608TIP3    H113788   3.180   2.239   3.322
 4608TIP3    H213789   3.260   2.340   3.242
 4609TIP3   OH213790   2.884   5.457   3.962
 4609TIP3    H113791   2.903   5.515   4.036
 4609TIP3    H213792   2.811   5.499   3.917
 4610TIP3   OH213793   5.210   4.854   5.493
 4610TIP3    H113794   5.191   4.796   5.566
 4610TIP3    H213795   5.255   4.929   5.533
 4611TIP3   OH213796   4.565   1.297   0.120
 4611TIP3    H113797   4.538   1.380   0.080
 4611TIP3    H213798   4.496   1.278   0.184
 4612TIP3   OH213799   6.606   4.072   5.197
 4612TIP3    H113800   6.514   4.092   5.176
 4612TIP3    H213801   6.617   3.982   5.167
 4613TIP3   OH213802   1.522   3.257   2.940
 4613TIP3    H113803   1.523   3.305   2.857
 4613TIP3    H213804   1.557   3.318   3.004
 4614TIP3   OH213805   3.994   4.087   2.389
 4614TIP3    H113806   3.933   4.040   2.445
 4614TIP3    H213807   4.069   4.105   2.445
 4615TIP3   OH213808   1.583   3.375   5.028
 4615TIP3    H113809   1.489   3.389   5.011
 4615TIP3    H213810   1.597   3.283   5.008
 4616TIP3   OH213811   5.188   3.387   4.100
 4616TIP3    H113812   5.151   3.378   4.012
 4616TIP3    H213813   5.261   3.448   4.090
 4617TIP3   OH213814   6.272   4.482   4.251
 4617TIP3    H113815   6.270   4.577   4.241
 4617TIP3    H213816   6.365   4.460   4.248
 4618TIP3   OH213817   0.884   4.702   1.411
 4618TIP3    H113818   0.900   4.667   1.498
 4618TIP3    H213819   0.905   4.795   1.417
 4619TIP3   OH213820   7.073   1.298   1.338
 4619TIP3    H113821   7.154   1.275   1.294
 4619TIP3    H213822   7.094   1.297   1.431
 4620TIP3   OH213823   6.192   2.186   0.591
 4620TIP3    H113824   6.242   2.218   0.666
 4620TIP3    H213825   6.159   2.266   0.549
 4621TIP3   OH213826   1.930   2.202   3.594
 4621TIP3    H113827   1.851   2.159   3.627
 4621TIP3    H213828   1.925   2.193   3.499
 4622TIP3   OH213829   4.188   6.715   2.770
 4622TIP3    H113830   4.279   6.710   2.740
 4622TIP3    H213831   4.183   6.654   2.844
 4623TIP3   OH213832   1.170   4.688   4.026
 4623TIP3    H113833   1.130   4.616   3.978
 4623TIP3    H213834   1.204   4.746   3.957
 4624TIP3   OH213835   5.758   3.893   2.336
 4624TIP3    H113836   5.775   3.867   2.246
 4624TIP3    H213837   5.708   3.821   2.374
 4625TIP3   OH213838   5.551   0.141   4.887
 4625TIP3    H113839   5.611   0.109   4.955
 4625TIP3    H213840   5.560   0.237   4.890
 4626TIP3   OH213841   1.432   4.110   4.171
 4626TIP3    H113842   1.425   4.176   4.240
 4626TIP3    H213843   1.500   4.050   4.201
 4627TIP3   OH213844   0.325   6.723   3.341
 4627TIP3    H113845   0.375   6.800   3.370
 4627TIP3    H213846   0.351   6.712   3.249
 4628TIP3   OH213847   5.231   2.253   4.709
 4628TIP3    H113848   5.262   2.177   4.660
 4628TIP3    H213849   5.203   2.315   4.641
 4629TIP3   OH213850   5.097   3.923   1.946
 4629TIP3    H113851   5.028   3.891   2.004
 4629TIP3    H213852   5.172   3.867   1.967
 4630TIP3   OH213853   0.055   6.000   5.515
 4630TIP3    H113854  -0.001   6.049   5.576
 4630TIP3    H213855   0.042   6.044   5.430
 4631TIP3   OH213856   0.256   2.696   0.199
 4631TIP3    H113857   0.233   2.636   0.129
 4631TIP3    H213858   0.351   2.708   0.192
 4632TIP3   OH213859   2.950   0.259   2.662
 4632TIP3    H113860   2.937   0.189   2.598
 4632TIP3    H213861   2.927   0.220   2.746
 4633TIP3   OH213862   6.304   0.609   0.405
 4633TIP3    H113863   6.262   0.695   0.411
 4633TIP3    H213864   6.397   0.628   0.408
 4634TIP3   OH213865   4.540   3.763   0.247
 4634TIP3    H113866   4.587   3.784   0.328
 4634TIP3    H213867   4.460   3.816   0.252
 4635TIP3   OH213868   5.650   0.930   3.306
 4635TIP3    H113869   5.696   0.862   3.356
 4635TIP3    H213870   5.562   0.894   3.294
 4636TIP3   OH213871   2.589   3.819   2.380
 4636TIP3    H113872   2.513   3.768   2.407
 4636TIP3    H213873   2.594   3.890   2.444
 4637TIP3   OH213874   4.373   6.267   5.622
 4637TIP3    H113875   4.450   6.210   5.619
 4637TIP3    H213876   4.343   6.261   5.712
 4638TIP3   OH213877   5.720   5.940   1.910
 4638TIP3    H113878   5.714   5.889   1.829
 4638TIP3    H213879   5.630   5.956   1.935
 4639TIP3   OH213880   3.683   0.381   0.156
 4639TIP3    H113881   3.769   0.347   0.133
 4639TIP3    H213882   3.629   0.365   0.078
 4640TIP3   OH213883   5.261   6.706   4.486
 4640TIP3    H113884   5.290   6.763   4.414
 4640TIP3    H213885   5.263   6.618   4.449
 4641TIP3   OH213886   2.009   3.900   4.356
 4641TIP3    H113887   1.991   3.871   4.446
 4641TIP3    H213888   1.997   3.995   4.359
 4642TIP3   OH213889   3.733   6.488   1.862
 4642TIP3    H113890   3.679   6.558   1.898
 4642TIP3    H213891   3.693   6.467   1.778
 4643TIP3   OH213892   0.023  -0.040   2.307
 4643TIP3    H113893  -0.033  -0.053   2.230
 4643TIP3    H213894   0.059   0.048   2.296
 4644TIP3   OH213895   3.657   0.884   2.203
 4644TIP3    H113896   3.699   0.875   2.118
 4644TIP3    H213897   3.716   0.940   2.254
 4645TIP3   OH213898   7.153   5.079   1.012
 4645TIP3    H113899   7.190   5.166   1.025
 4645TIP3    H213900   7.071   5.094   0.965
 4646TIP3   OH213901   6.130   2.514   4.410
 4646TIP3    H113902   6.153   2.430   4.451
 4646TIP3    H213903   6.056   2.546   4.461
 4647TIP3   OH213904   1.264   1.764   3.606
 4647TIP3    H113905   1.203   1.771   3.679
 4647TIP3    H213906   1.313   1.684   3.624
 4648TIP3   OH213907   6.523   2.226   4.227
 4648TIP3    H113908   6.564   2.152   4.182
 4648TIP3    H213909   6.569   2.230   4.311
 4649TIP3   OH213910   2.467   0.697   0.912
 4649TIP3    H113911   2.448   0.661   0.998
 4649TIP3    H213912   2.455   0.792   0.922
 4650TIP3   OH213913   2.374   3.545   3.071
 4650TIP3    H113914   2.460   3.556   3.110
 4650TIP3    H213915   2.365   3.451   3.057
 4651TIP3   OH213916   5.816   6.440   3.689
 4651TIP3    H113917   5.799   6.385   3.613
 4651TIP3    H213918   5.788   6.388   3.764
 4652TIP3   OH213919   3.427   1.205   3.925
 4652TIP3    H113920   3.339   1.221   3.890
 4652TIP3    H213921   3.415   1.134   3.988
 4653TIP3   OH213922   5.692   4.360   5.209
 4653TIP3    H113923   5.614   4.391   5.254
 4653TIP3    H213924   5.764   4.408   5.251
 4654TIP3   OH213925   1.064   2.494   4.480
 4654TIP3    H113926   1.139   2.438   4.500
 4654TIP3    H213927   1.079   2.574   4.532
 4655TIP3   OH213928   6.703   2.833   3.709
 4655TIP3    H113929   6.681   2.782   3.787
 4655TIP3    H213930   6.793   2.863   3.726
 4656TIP3   OH213931   3.500   5.876   5.723
 4656TIP3    H113932   3.534   5.794   5.686
 4656TIP3    H213933   3.436   5.906   5.659
 4657TIP3   OH213934   3.781   2.394   5.705
 4657TIP3    H113935   3.732   2.467   5.745
 4657TIP3    H213936   3.873   2.420   5.714
 4658TIP3   OH213937   3.352   4.352   1.523
 4658TIP3    H113938   3.361   4.263   1.557
 4658TIP3    H213939   3.333   4.340   1.429
 4659TIP3   OH213940   1.708   3.963   3.115
 4659TIP3    H113941   1.744   4.025   3.052
 4659TIP3    H213942   1.777   3.954   3.181
 4660TIP3   OH213943   6.015   4.647   1.614
 4660TIP3    H113944   6.022   4.552   1.625
 4660TIP3    H213945   6.060   4.665   1.531
 4661TIP3   OH213946   7.130   0.359   3.569
 4661TIP3    H113947   7.102   0.451   3.577
 4661TIP3    H213948   7.198   0.349   3.635
 4662TIP3   OH213949   4.645   4.493   3.775
 4662TIP3    H113950   4.712   4.425   3.766
 4662TIP3    H213951   4.574   4.465   3.717
 4663TIP3   OH213952   1.287   0.419   2.129
 4663TIP3    H113953   1.338   0.443   2.051
 4663TIP3    H213954   1.226   0.353   2.098
 4664TIP3   OH213955   4.285   5.590   3.070
 4664TIP3    H113956   4.216   5.525   3.084
 4664TIP3    H213957   4.238   5.673   3.061
 4665TIP3   OH213958   1.659   0.760   4.820
 4665TIP3    H113959   1.629   0.686   4.872
 4665TIP3    H213960   1.603   0.759   4.742
 4666TIP3   OH213961   6.785   0.205   3.075
 4666TIP3    H113962   6.790   0.151   3.154
 4666TIP3    H213963   6.731   0.280   3.100
 4667TIP3   OH213964   3.917   5.646   5.609
 4667TIP3    H113965   3.927   5.719   5.671
 4667TIP3    H213966   4.006   5.614   5.595
 4668TIP3   OH213967   1.345   4.321   1.420
 4668TIP3    H113968   1.259   4.352   1.449
 4668TIP3    H213969   1.326   4.246   1.364
 4669TIP3   OH213970   1.984   2.716   5.677
 4669TIP3    H113971   1.919   2.783   5.700
 4669TIP3    H213972   1.968   2.697   5.585
 4670TIP3   OH213973   2.753   6.086   1.131
 4670TIP3    H113974   2.674   6.042   1.099
 4670TIP3    H213975   2.820   6.063   1.067
 4671TIP3   OH213976   3.772   2.720   4.994
 4671TIP3    H113977   3.706   2.650   4.999
 4671TIP3    H213978   3.737   2.790   5.049
 4672TIP3   OH213979   5.609   6.555   2.612
 4672TIP3    H113980   5.621   6.482   2.551
 4672TIP3    H213981   5.697   6.593   2.620
 4673TIP3   OH213982   6.439   6.633   0.798
 4673TIP3    H113983   6.534   6.645   0.800
 4673TIP3    H213984   6.413   6.637   0.890
 4674TIP3   OH213985   6.122   6.526   0.125
 4674TIP3    H113986   6.164   6.597   0.174
 4674TIP3    H213987   6.048   6.500   0.180
 4675TIP3   OH213988   3.251   3.644   2.671
 4675TIP3    H113989   3.225   3.724   2.627
 4675TIP3    H213990   3.199   3.642   2.751
 4676TIP3   OH213991   2.276   5.921   1.411
 4676TIP3    H113992   2.283   6.011   1.380
 4676TIP3    H213993   2.324   5.920   1.493
 4677TIP3   OH213994   4.946   1.452   3.926
 4677TIP3    H113995   5.027   1.401   3.929
 4677TIP3    H213996   4.964   1.521   3.861
 4678TIP3   OH213997   1.172   0.288   3.816
 4678TIP3    H113998   1.132   0.373   3.834
 4678TIP3    H213999   1.266   0.303   3.828
 4679TIP3   OH214000   2.901   4.224   3.958
 4679TIP3    H114001   2.832   4.161   3.939
 4679TIP3    H214002   2.954   4.226   3.878
 4680TIP3   OH214003   2.830   6.647   4.417
 4680TIP3    H114004   2.801   6.684   4.500
 4680TIP3    H214005   2.839   6.553   4.435
 4681TIP3   OH214006   4.668   0.646   2.168
 4681TIP3    H114007   4.609   0.609   2.102
 4681TIP3    H214008   4.617   0.716   2.209
 4682TIP3   OH214009   5.359   2.690   2.817
 4682TIP3    H114010   5.445   2.693   2.859
 4682TIP3    H214011   5.359   2.607   2.770
 4683TIP3   OH214012   5.168   1.102   2.554
 4683TIP3    H114013   5.085   1.107   2.508
 4683TIP3    H214014   5.226   1.161   2.506
 4684TIP3   OH214015   6.988   5.756   5.465
 4684TIP3    H114016   6.984   5.792   5.554
 4684TIP3    H214017   6.935   5.815   5.413
 4685TIP3   OH214018   5.496   6.426   5.009
 4685TIP3    H114019   5.481   6.460   4.920
 4685TIP3    H214020   5.423   6.460   5.060
 4686TIP3   OH214021   2.923   6.585   5.007
 4686TIP3    H114022   2.910   6.498   4.967
 4686TIP3    H214023   2.911   6.570   5.101
 4687TIP3   OH214024   2.884   0.944   2.144
 4687TIP3    H114025   2.809   1.004   2.146
 4687TIP3    H214026   2.953   0.995   2.102
 4688TIP3   OH214027   0.320   6.597   0.240
 4688TIP3    H114028   0.278   6.645   0.312
 4688TIP3    H214029   0.256   6.531   0.214
 4689TIP3   OH214030   7.114   2.560   4.963
 4689TIP3    H114031   7.154   2.628   4.909
 4689TIP3    H214032   7.057   2.608   5.024
 4690TIP3   OH214033   5.736   2.201   0.938
 4690TIP3    H114034   5.773   2.249   0.863
 4690TIP3    H214035   5.653   2.246   0.956
 4691TIP3   OH214036   0.987   3.029   2.121
 4691TIP3    H114037   1.077   3.046   2.151
 4691TIP3    H214038   0.958   3.112   2.086
 4692TIP3   OH214039   2.789   2.955   5.608
 4692TIP3    H114040   2.739   3.037   5.611
 4692TIP3    H214041   2.881   2.982   5.614
 4693TIP3   OH214042   2.796   1.294   0.357
 4693TIP3    H114043   2.844   1.375   0.372
 4693TIP3    H214044   2.707   1.323   0.337
 4694TIP3   OH214045   3.428   5.573   0.233
 4694TIP3    H114046   3.404   5.597   0.322
 4694TIP3    H214047   3.378   5.493   0.215
 4695TIP3   OH214048   3.942   5.862   4.480
 4695TIP3    H114049   3.912   5.850   4.570
 4695TIP3    H214050   4.025   5.909   4.488
 4696TIP3   OH214051   2.977   6.102   3.383
 4696TIP3    H114052   3.056   6.147   3.412
 4696TIP3    H214053   2.905   6.155   3.416
 4697TIP3   OH214054   1.927   4.951   0.724
 4697TIP3    H114055   2.008   4.957   0.774
 4697TIP3    H214056   1.876   4.883   0.768
 4698TIP3   OH214057   0.832   2.739   2.528
 4698TIP3    H114058   0.925   2.750   2.550
 4698TIP3    H214059   0.809   2.819   2.482
 4699TIP3   OH214060   6.799   5.578   1.477
 4699TIP3    H114061   6.728   5.533   1.523
 4699TIP3    H214062   6.811   5.527   1.397
 4700TIP3   OH214063   5.402   2.170   0.868
 4700TIP3    H114064   5.440   2.083   0.880
 4700TIP3    H214065   5.459   2.228   0.918
 4701TIP3   OH214066   3.349   5.714   2.049
 4701TIP3    H114067   3.346   5.638   2.108
 4701TIP3    H214068   3.386   5.784   2.102
 4702TIP3   OH214069   2.788   6.645   1.278
 4702TIP3    H114070   2.781   6.580   1.349
 4702TIP3    H214071   2.882   6.660   1.270
 4703TIP3   OH214072   6.718   0.865   2.857
 4703TIP3    H114073   6.624   0.864   2.841
 4703TIP3    H214074   6.757   0.837   2.774
 4704TIP3   OH214075   0.066   3.207   2.397
 4704TIP3    H114076   0.114   3.288   2.381
 4704TIP3    H214077  -0.025   3.229   2.374
 4705TIP3   OH214078   6.368   0.207   0.786
 4705TIP3    H114079   6.452   0.189   0.828
 4705TIP3    H214080   6.335   0.285   0.832
 4706TIP3   OH214081   1.274   0.248   0.235
 4706TIP3    H114082   1.336   0.309   0.195
 4706TIP3    H214083   1.257   0.183   0.167
 4707TIP3   OH214084   3.557   1.314   2.434
 4707TIP3    H114085   3.506   1.235   2.418
 4707TIP3    H214086   3.494   1.377   2.469
 4708TIP3   OH214087   6.101   4.890   5.630
 4708TIP3    H114088   6.133   4.980   5.629
 4708TIP3    H214089   6.019   4.893   5.580
 4709TIP3   OH214090   5.270   6.057   3.756
 4709TIP3    H114091   5.194   6.113   3.773
 4709TIP3    H214092   5.345   6.116   3.757
 4710TIP3   OH214093   6.970   2.711   1.333
 4710TIP3    H114094   7.032   2.782   1.316
 4710TIP3    H214095   7.023   2.631   1.326
 4711TIP3   OH214096   5.758   1.558   2.377
 4711TIP3    H114097   5.772   1.650   2.397
 4711TIP3    H214098   5.706   1.557   2.297
 4712TIP3   OH214099   6.867   1.874   3.962
 4712TIP3    H114100   6.914   1.906   4.039
 4712TIP3    H214101   6.901   1.928   3.890
 4713TIP3   OH214102   4.792   1.242   4.419
 4713TIP3    H114103   4.697   1.241   4.405
 4713TIP3    H214104   4.802   1.231   4.513
 4714TIP3   OH214105   1.580   6.459   5.462
 4714TIP3    H114106   1.627   6.517   5.521
 4714TIP3    H214107   1.600   6.371   5.495
 4715TIP3   OH214108   4.651   2.487   5.545
 4715TIP3    H114109   4.580   2.468   5.484
 4715TIP3    H214110   4.727   2.444   5.506
 4716TIP3   OH214111   6.567   1.974   3.202
 4716TIP3    H114112   6.619   2.042   3.158
 4716TIP3    H214113   6.485   2.019   3.226
 4717TIP3   OH214114   4.822   5.389   2.024
 4717TIP3    H114115   4.855   5.326   1.959
 4717TIP3    H214116   4.727   5.380   2.019
 4718TIP3   OH214117   0.938   5.283   5.523
 4718TIP3    H114118   0.956   5.193   5.494
 4718TIP3    H214119   0.856   5.306   5.480
 4719TIP3   OH214120   2.306   6.618   0.643
 4719TIP3    H114121   2.347   6.566   0.712
 4719TIP3    H214122   2.378   6.643   0.586
 4720TIP3   OH214123   4.277   2.794   5.543
 4720TIP3    H114124   4.334   2.836   5.478
 4720TIP3    H214125   4.330   2.792   5.623
 4721TIP3   OH214126   3.796   6.712   0.069
 4721TIP3    H114127   3.761   6.658  -0.002
 4721TIP3    H214128   3.839   6.649   0.128
 4722TIP3   OH214129   3.688   3.388   3.649
 4722TIP3    H114130   3.689   3.424   3.560
 4722TIP3    H214131   3.683   3.465   3.706
 4723TIP3   OH214132   4.954   0.343   1.352
 4723TIP3    H114133   4.905   0.425   1.344
 4723TIP3    H214134   5.026   0.352   1.289
 4724TIP3   OH214135   0.586   4.786   4.188
 4724TIP3    H114136   0.561   4.852   4.123
 4724TIP3    H214137   0.567   4.826   4.272
 4725TIP3   OH214138   0.602   4.114   4.059
 4725TIP3    H114139   0.558   4.059   3.993
 4725TIP3    H214140   0.678   4.063   4.086
 4726TIP3   OH214141   4.293   6.794   1.247
 4726TIP3    H114142   4.306   6.724   1.183
 4726TIP3    H214143   4.379   6.808   1.285
 4727TIP3   OH214144   1.222   2.609   0.561
 4727TIP3    H114145   1.180   2.526   0.584
 4727TIP3    H214146   1.285   2.586   0.492
 4728TIP3   OH214147   3.451   4.561   4.027
 4728TIP3    H114148   3.395   4.617   4.082
 4728TIP3    H214149   3.471   4.486   4.081
 4729TIP3   OH214150   2.629   0.622   2.483
 4729TIP3    H114151   2.630   0.711   2.448
 4729TIP3    H214152   2.592   0.632   2.571
 4730TIP3   OH214153   6.035   1.465   5.019
 4730TIP3    H114154   5.964   1.407   4.992
 4730TIP3    H214155   6.064   1.431   5.103
 4731TIP3   OH214156   2.703   4.230   0.065
 4731TIP3    H114157   2.744   4.306   0.023
 4731TIP3    H214158   2.642   4.196   0.000
 4732TIP3   OH214159   5.005   6.408   4.625
 4732TIP3    H114160   4.932   6.384   4.681
 4732TIP3    H214161   5.038   6.324   4.591
 4733TIP3   OH214162   2.841   1.312   2.498
 4733TIP3    H114163   2.913   1.346   2.552
 4733TIP3    H214164   2.835   1.220   2.521
 4734TIP3   OH214165   1.614   3.050   5.706
 4734TIP3    H114166   1.544   3.114   5.693
 4734TIP3    H214167   1.633   3.018   5.618
 4735TIP3   OH214168   4.141   0.891   0.214
 4735TIP3    H114169   4.236   0.894   0.202
 4735TIP3    H214170   4.129   0.858   0.303
 4736TIP3   OH214171   1.981   5.159   0.536
 4736TIP3    H114172   2.000   5.238   0.588
 4736TIP3    H214173   1.950   5.096   0.601
 4737TIP3   OH214174   3.548   5.559   5.362
 4737TIP3    H114175   3.550   5.467   5.336
 4737TIP3    H214176   3.477   5.597   5.309
 4738TIP3   OH214177   5.678   4.570   2.978
 4738TIP3    H114178   5.741   4.543   2.911
 4738TIP3    H214179   5.703   4.660   3.000
 4739TIP3   OH214180   4.500   2.963   5.367
 4739TIP3    H114181   4.509   2.952   5.272
 4739TIP3    H214182   4.534   3.050   5.384
 4740TIP3   OH214183   2.184   1.927   2.504
 4740TIP3    H114184   2.102   1.923   2.554
 4740TIP3    H214185   2.188   2.017   2.472
 4741TIP3   OH214186   6.440   1.520   4.243
 4741TIP3    H114187   6.463   1.449   4.302
 4741TIP3    H214188   6.345   1.516   4.237
 4742TIP3   OH214189   1.370   1.147   4.192
 4742TIP3    H114190   1.445   1.143   4.252
 4742TIP3    H214191   1.353   1.056   4.170
 4743TIP3   OH214192   5.457   2.564   3.716
 4743TIP3    H114193   5.407   2.620   3.776
 4743TIP3    H214194   5.465   2.616   3.636
 4744TIP3   OH214195   6.457   0.981   3.246
 4744TIP3    H114196   6.451   0.943   3.158
 4744TIP3    H214197   6.541   0.950   3.280
 4745TIP3   OH214198   0.100   3.958   1.394
 4745TIP3    H114199   0.030   4.011   1.356
 4745TIP3    H214200   0.134   4.010   1.466
 4746TIP3   OH214201   1.924   5.941   5.173
 4746TIP3    H114202   1.928   6.012   5.109
 4746TIP3    H214203   2.014   5.929   5.202
 4747TIP3   OH214204   1.710   2.519   4.675
 4747TIP3    H114205   1.712   2.561   4.761
 4747TIP3    H214206   1.788   2.465   4.672
 4748TIP3   OH214207   3.782   5.403   5.068
 4748TIP3    H114208   3.847   5.333   5.073
 4748TIP3    H214209   3.702   5.364   5.102
 4749TIP3   OH214210   3.099   4.544   3.187
 4749TIP3    H114211   3.110   4.637   3.207
 4749TIP3    H214212   3.018   4.520   3.231
 4750TIP3   OH214213   5.452   6.694   3.711
 4750TIP3    H114214   5.402   6.617   3.737
 4750TIP3    H214215   5.474   6.737   3.793
 4751TIP3   OH214216   0.046   3.380   3.919
 4751TIP3    H114217   0.004   3.335   3.845
 4751TIP3    H214218   0.000   3.348   3.996
 4752TIP3   OH214219   1.545   2.694   1.335
 4752TIP3    H114220   1.560   2.625   1.271
 4752TIP3    H214221   1.594   2.769   1.303
 4753TIP3   OH214222   6.307   4.755   4.409
 4753TIP3    H114223   6.285   4.734   4.500
 4753TIP3    H214224   6.300   4.850   4.404
 4754TIP3   OH214225   2.966   5.420   5.236
 4754TIP3    H114226   2.957   5.405   5.142
 4754TIP3    H214227   2.883   5.461   5.261
 4755TIP3   OH214228   6.980   3.548   5.012
 4755TIP3    H114229   6.938   3.462   5.020
 4755TIP3    H214230   7.072   3.528   4.995
 4756TIP3   OH214231   1.456   5.232   0.968
 4756TIP3    H114232   1.407   5.173   0.909
 4756TIP3    H214233   1.440   5.319   0.931
 4757TIP3   OH214234   7.008   1.391   3.289
 4757TIP3    H114235   6.950   1.443   3.234
 4757TIP3    H214236   6.988   1.419   3.378
 4758TIP3   OH214237   7.180   3.111   5.483
 4758TIP3    H114238   7.111   3.057   5.444
 4758TIP3    H214239   7.217   3.159   5.409
 4759TIP3   OH214240   5.949   3.713   5.164
 4759TIP3    H114241   5.976   3.723   5.256
 4759TIP3    H214242   5.857   3.687   5.168
 4760TIP3   OH214243   6.289   4.598   2.851
 4760TIP3    H114244   6.322   4.687   2.859
 4760TIP3    H214245   6.233   4.586   2.928
 4761TIP3   OH214246   2.853   4.461   0.837
 4761TIP3    H114247   2.908   4.386   0.862
 4761TIP3    H214248   2.841   4.451   0.743
 4762TIP3   OH214249   1.528   5.167   0.556
 4762TIP3    H114250   1.537   5.213   0.472
 4762TIP3    H214251   1.535   5.237   0.622
 4763TIP3   OH214252   2.628   4.456   1.545
 4763TIP3    H114253   2.532   4.461   1.551
 4763TIP3    H214254   2.658   4.545   1.565
 4764TIP3   OH214255   4.979   4.438   2.021
 4764TIP3    H114256   5.032   4.517   2.030
 4764TIP3    H214257   4.991   4.411   1.930
 4765TIP3   OH214258   6.821   4.860   1.464
 4765TIP3    H114259   6.784   4.948   1.475
 4765TIP3    H214260   6.848   4.834   1.552
 4766TIP3   OH214261   3.884   4.323   1.629
 4766TIP3    H114262   3.808   4.294   1.680
 4766TIP3    H214263   3.881   4.271   1.549
 4767TIP3   OH214264   6.978   2.490   1.938
 4767TIP3    H114265   7.030   2.475   2.016
 4767TIP3    H214266   7.013   2.572   1.902
 4768TIP3   OH214267   3.513   3.235   3.866
 4768TIP3    H114268   3.454   3.237   3.942
 4768TIP3    H214269   3.467   3.183   3.801
 4769TIP3   OH214270   5.789   0.566   1.794
 4769TIP3    H114271   5.849   0.636   1.765
 4769TIP3    H214272   5.705   0.610   1.806
 4770TIP3   OH214273   3.715   3.436   4.575
 4770TIP3    H114274   3.767   3.365   4.538
 4770TIP3    H214275   3.631   3.395   4.597
 4771TIP3   OH214276   2.897   1.620   4.049
 4771TIP3    H114277   2.899   1.691   3.986
 4771TIP3    H214278   2.938   1.657   4.128
 4772TIP3   OH214279   0.070   1.853   1.162
 4772TIP3    H114280   0.055   1.836   1.069
 4772TIP3    H214281   0.156   1.895   1.165
 4773TIP3   OH214282   0.981   2.021   0.229
 4773TIP3    H114283   0.927   2.051   0.302
 4773TIP3    H214284   1.049   2.088   0.221
 4774TIP3   OH214285   3.048   6.284   0.028
 4774TIP3    H114286   3.046   6.327  -0.058
 4774TIP3    H214287   2.988   6.210   0.019
 4775TIP3   OH214288   6.938   4.432   3.527
 4775TIP3    H114289   6.994   4.454   3.602
 4775TIP3    H214290   6.894   4.515   3.504
 4776TIP3   OH214291   2.310   6.546   4.661
 4776TIP3    H114292   2.256   6.470   4.681
 4776TIP3    H214293   2.355   6.566   4.743
 4777TIP3   OH214294   3.053   3.117   1.167
 4777TIP3    H114295   2.975   3.091   1.119
 4777TIP3    H214296   3.053   3.061   1.245
 4778TIP3   OH214297   3.317   3.896   2.279
 4778TIP3    H114298   3.305   3.802   2.268
 4778TIP3    H214299   3.369   3.923   2.204
 4779TIP3   OH214300   4.025   4.797   2.379
 4779TIP3    H114301   4.010   4.840   2.463
 4779TIP3    H214302   4.120   4.802   2.367
 4780TIP3   OH214303   6.558   4.705   0.954
 4780TIP3    H114304   6.541   4.757   0.875
 4780TIP3    H214305   6.645   4.733   0.983
 4781TIP3   OH214306   0.743   3.768   5.627
 4781TIP3    H114307   0.702   3.704   5.686
 4781TIP3    H214308   0.808   3.813   5.682
 4782TIP3   OH214309   7.089   0.545   4.261
 4782TIP3    H114310   7.181   0.538   4.285
 4782TIP3    H214311   7.072   0.467   4.208
 4783TIP3   OH214312   0.633   6.211   4.306
 4783TIP3    H114313   0.648   6.122   4.275
 4783TIP3    H214314   0.598   6.258   4.231
 4784TIP3   OH214315   7.071   1.724   2.738
 4784TIP3    H114316   7.123   1.694   2.812
 4784TIP3    H214317   7.061   1.646   2.683
 4785TIP3   OH214318   6.242   0.208   4.650
 4785TIP3    H114319   6.332   0.241   4.648
 4785TIP3    H214320   6.195   0.271   4.703
 4786TIP3   OH214321   0.183   3.704   2.792
 4786TIP3    H114322   0.109   3.643   2.787
 4786TIP3    H214323   0.159   3.776   2.734
 4787TIP3   OH214324   5.576   4.185   2.305
 4787TIP3    H114325   5.582   4.156   2.214
 4787TIP3    H214326   5.611   4.274   2.304
 4788TIP3   OH214327   5.269   0.912   0.422
 4788TIP3    H114328   5.228   0.998   0.417
 4788TIP3    H214329   5.362   0.928   0.408
 4789TIP3   OH214330   1.972   4.122   4.050
 4789TIP3    H114331   1.993   4.040   4.095
 4789TIP3    H214332   2.042   4.133   3.986
 4790TIP3   OH214333   3.327   2.503   3.260
 4790TIP3    H114334   3.376   2.581   3.234
 4790TIP3    H214335   3.274   2.531   3.334
 4791TIP3   OH214336   2.411   2.278   5.569
 4791TIP3    H114337   2.442   2.314   5.486
 4791TIP3    H214338   2.455   2.331   5.635
 4792TIP3   OH214339   1.002   1.348   4.199
 4792TIP3    H114340   1.062   1.325   4.129
 4792TIP3    H214341   1.028   1.294   4.273
 4793TIP3   OH214342   4.803   5.568   5.026
 4793TIP3    H114343   4.839   5.645   5.070
 4793TIP3    H214344   4.879   5.520   4.994
 4794TIP3   OH214345   4.091   1.995   3.046
 4794TIP3    H114346   4.030   2.069   3.056
 4794TIP3    H214347   4.130   2.007   2.960
 4795TIP3   OH214348   0.470   6.186   4.062
 4795TIP3    H114349   0.543   6.227   4.016
 4795TIP3    H214350   0.448   6.109   4.010
 4796TIP3   OH214351   4.212   4.422   0.259
 4796TIP3    H114352   4.222   4.481   0.333
 4796TIP3    H214353   4.299   4.418   0.218
 4797TIP3   OH214354   6.449   5.820   1.097
 4797TIP3    H114355   6.365   5.793   1.134
 4797TIP3    H214356   6.513   5.760   1.135
 4798TIP3   OH214357   1.066   4.203   0.343
 4798TIP3    H114358   1.153   4.163   0.338
 4798TIP3    H214359   1.019   4.150   0.407
 4799TIP3   OH214360   1.101   4.212   2.157
 4799TIP3    H114361   1.181   4.265   2.154
 4799TIP3    H214362   1.039   4.265   2.207
 4800TIP3   OH214363   3.940   6.506   1.427
 4800TIP3    H114364   4.006   6.449   1.388
 4800TIP3    H214365   3.984   6.590   1.439
 4801TIP3   OH214366   5.563   2.003   1.587
 4801TIP3    H114367   5.498   1.942   1.552
 4801TIP3    H214368   5.525   2.034   1.670
 4802TIP3   OH214369   5.815   0.531   3.333
 4802TIP3    H114370   5.788   0.611   3.379
 4802TIP3    H214371   5.910   0.538   3.325
 4803TIP3   OH214372   2.947   4.182   1.587
 4803TIP3    H114373   2.968   4.262   1.634
 4803TIP3    H214374   3.031   4.139   1.572
 4804TIP3   OH214375   3.004   2.722   4.723
 4804TIP3    H114376   2.983   2.815   4.736
 4804TIP3    H214377   3.053   2.698   4.802
 4805TIP3   OH214378   2.810   2.243   3.499
 4805TIP3    H114379   2.788   2.215   3.588
 4805TIP3    H214380   2.767   2.328   3.489
 4806TIP3   OH214381   2.816   0.294   0.331
 4806TIP3    H114382   2.731   0.264   0.362
 4806TIP3    H214383   2.800   0.323   0.241
 4807TIP3   OH214384   0.858   2.240   2.972
 4807TIP3    H114385   0.764   2.237   2.988
 4807TIP3    H214386   0.887   2.149   2.982
 4808TIP3   OH214387   6.315   0.716   0.875
 4808TIP3    H114388   6.311   0.629   0.835
 4808TIP3    H214389   6.315   0.699   0.969
 4809TIP3   OH214390   1.598   0.439   2.537
 4809TIP3    H114391   1.572   0.411   2.450
 4809TIP3    H214392   1.591   0.360   2.591
 4810TIP3   OH214393   4.114   4.614   0.456
 4810TIP3    H114394   4.132   4.665   0.535
 4810TIP3    H214395   4.060   4.541   0.487
 4811TIP3   OH214396   0.378   1.712   2.229
 4811TIP3    H114397   0.350   1.650   2.296
 4811TIP3    H214398   0.320   1.787   2.240
 4812TIP3   OH214399   1.942   6.741   3.271
 4812TIP3    H114400   2.007   6.752   3.202
 4812TIP3    H214401   1.918   6.649   3.267
 4813TIP3   OH214402   6.216   2.262   4.511
 4813TIP3    H114403   6.273   2.196   4.551
 4813TIP3    H214404   6.201   2.229   4.422
 4814TIP3   OH214405   2.943   5.304   4.392
 4814TIP3    H114406   3.003   5.244   4.436
 4814TIP3    H214407   2.903   5.355   4.463
 4815TIP3   OH214408   5.911   1.117   1.658
 4815TIP3    H114409   5.983   1.055   1.671
 4815TIP3    H214410   5.834   1.072   1.693
 4816TIP3   OH214411   6.958   6.741   0.557
 4816TIP3    H114412   7.018   6.699   0.619
 4816TIP3    H214413   6.971   6.835   0.572
 4817TIP3   OH214414   2.182   1.521   0.920
 4817TIP3    H114415   2.216   1.438   0.954
 4817TIP3    H214416   2.125   1.554   0.989
 4818TIP3   OH214417   5.746   0.084   3.274
 4818TIP3    H114418   5.680   0.027   3.315
 4818TIP3    H214419   5.717   0.173   3.294
 4819TIP3   OH214420   3.641   4.641   1.746
 4819TIP3    H114421   3.576   4.571   1.748
 4819TIP3    H214422   3.699   4.621   1.820
 4820TIP3   OH214423   4.286   0.207   0.515
 4820TIP3    H114424   4.256   0.241   0.600
 4820TIP3    H214425   4.344   0.134   0.537
 4821TIP3   OH214426   3.264   2.571   5.368
 4821TIP3    H114427   3.299   2.486   5.394
 4821TIP3    H214428   3.314   2.596   5.290
 4822TIP3   OH214429   6.063   1.735   1.268
 4822TIP3    H114430   6.024   1.768   1.187
 4822TIP3    H214431   6.020   1.786   1.337
 4823TIP3   OH214432   6.247   3.644   0.525
 4823TIP3    H114433   6.289   3.626   0.609
 4823TIP3    H214434   6.274   3.572   0.469
 4824TIP3   OH214435   2.637   0.109   5.049
 4824TIP3    H114436   2.707   0.125   4.986
 4824TIP3    H214437   2.654   0.020   5.081
 4825TIP3   OH214438   0.248   1.692   3.669
 4825TIP3    H114439   0.334   1.650   3.672
 4825TIP3    H214440   0.228   1.713   3.761
 4826TIP3   OH214441   0.111   6.439   3.854
 4826TIP3    H114442   0.180   6.422   3.918
 4826TIP3    H214443   0.145   6.510   3.800
 4827TIP3   OH214444   1.995   3.136   5.169
 4827TIP3    H114445   1.962   3.225   5.184
 4827TIP3    H214446   2.084   3.137   5.203
 4828TIP3   OH214447   1.810   5.605   4.566
 4828TIP3    H114448   1.857   5.633   4.644
 4828TIP3    H214449   1.728   5.568   4.599
 4829TIP3   OH214450   2.823   4.283   5.367
 4829TIP3    H114451   2.794   4.361   5.319
 4829TIP3    H214452   2.858   4.225   5.299
 4830TIP3   OH214453   1.077   2.701   3.441
 4830TIP3    H114454   1.108   2.649   3.515
 4830TIP3    H214455   0.982   2.698   3.447
 4831TIP3   OH214456   2.390   3.335   5.106
 4831TIP3    H114457   2.421   3.357   5.194
 4831TIP3    H214458   2.396   3.417   5.057
 4832TIP3   OH214459   5.053   1.144   1.442
 4832TIP3    H114460   4.966   1.119   1.410
 4832TIP3    H214461   5.082   1.211   1.381
 4833TIP3   OH214462   0.901   5.722   5.302
 4833TIP3    H114463   0.847   5.800   5.312
 4833TIP3    H214464   0.839   5.653   5.277
 4834TIP3   OH214465   3.638   6.747   0.392
 4834TIP3    H114466   3.585   6.690   0.337
 4834TIP3    H214467   3.629   6.710   0.480
 4835TIP3   OH214468   4.205   4.871   0.590
 4835TIP3    H114469   4.260   4.915   0.526
 4835TIP3    H214470   4.199   4.933   0.663
 4836TIP3   OH214471   6.449   2.098   0.250
 4836TIP3    H114472   6.402   2.016   0.267
 4836TIP3    H214473   6.530   2.071   0.208
 4837TIP3   OH214474   1.490   4.151   2.508
 4837TIP3    H114475   1.559   4.098   2.469
 4837TIP3    H214476   1.410   4.126   2.462
 4838TIP3   OH214477   1.781   4.357   2.775
 4838TIP3    H114478   1.748   4.398   2.695
 4838TIP3    H214479   1.864   4.402   2.792
 4839TIP3   OH214480   1.601   1.798   4.497
 4839TIP3    H114481   1.598   1.828   4.406
 4839TIP3    H214482   1.515   1.821   4.532
 4840TIP3   OH214483   2.664   2.758   4.483
 4840TIP3    H114484   2.739   2.703   4.458
 4840TIP3    H214485   2.668   2.762   4.578
 4841TIP3   OH214486   2.402   5.787   1.132
 4841TIP3    H114487   2.421   5.788   1.038
 4841TIP3    H214488   2.324   5.842   1.140
 4842TIP3   OH214489   3.599   2.115   0.018
 4842TIP3    H114490   3.644   2.180  -0.035
 4842TIP3    H214491   3.663   2.045   0.031
 4843TIP3   OH214492   2.866   3.324   2.017
 4843TIP3    H114493   2.872   3.400   2.075
 4843TIP3    H214494   2.956   3.291   2.013
 4844TIP3   OH214495   1.902   4.225   0.795
 4844TIP3    H114496   1.885   4.284   0.721
 4844TIP3    H214497   1.817   4.219   0.840
 4845TIP3   OH214498   1.084   5.421   3.830
 4845TIP3    H114499   1.066   5.327   3.838
 4845TIP3    H214500   1.144   5.427   3.755
 4846TIP3   OH214501   2.227   0.182   0.534
 4846TIP3    H114502   2.281   0.250   0.574
 4846TIP3    H214503   2.173   0.229   0.470
 4847TIP3   OH214504   0.987   1.558   5.275
 4847TIP3    H114505   1.021   1.478   5.315
 4847TIP3    H214506   0.948   1.529   5.193
 4848TIP3   OH214507   5.955   1.122   0.043
 4848TIP3    H114508   5.947   1.063  -0.031
 4848TIP3    H214509   5.865   1.134   0.075
 4849TIP3   OH214510   5.960   1.288   2.844
 4849TIP3    H114511   6.049   1.253   2.839
 4849TIP3    H214512   5.970   1.382   2.829
 4850TIP3   OH214513   1.176   5.379   1.894
 4850TIP3    H114514   1.221   5.383   1.810
 4850TIP3    H214515   1.214   5.305   1.940
 4851TIP3   OH214516   2.655   4.820   2.165
 4851TIP3    H114517   2.735   4.838   2.116
 4851TIP3    H214518   2.684   4.793   2.252
 4852TIP3   OH214519   3.163  -0.014   4.018
 4852TIP3    H114520   3.250  -0.008   3.978
 4852TIP3    H214521   3.119   0.067   3.990
 4853TIP3   OH214522   2.799   1.860   0.246
 4853TIP3    H114523   2.837   1.866   0.158
 4853TIP3    H214524   2.874   1.848   0.304
 4854TIP3   OH214525   3.874   6.211   5.225
 4854TIP3    H114526   3.908   6.124   5.246
 4854TIP3    H214527   3.799   6.223   5.283
 4855TIP3   OH214528   7.070   1.031   1.185
 4855TIP3    H114529   7.091   0.962   1.123
 4855TIP3    H214530   6.975   1.034   1.187
 4856TIP3   OH214531   5.841   6.049   4.816
 4856TIP3    H114532   5.862   6.076   4.727
 4856TIP3    H214533   5.894   5.971   4.831
 4857TIP3   OH214534   2.007   3.249   1.273
 4857TIP3    H114535   2.103   3.251   1.272
 4857TIP3    H214536   1.985   3.197   1.350
 4858TIP3   OH214537   1.019   2.132   4.206
 4858TIP3    H114538   0.950   2.066   4.206
 4858TIP3    H214539   1.098   2.084   4.180
 4859TIP3   OH214540   6.510   1.699   2.285
 4859TIP3    H114541   6.489   1.702   2.192
 4859TIP3    H214542   6.452   1.763   2.325
 4860TIP3   OH214543   2.319   5.136   5.240
 4860TIP3    H114544   2.308   5.070   5.309
 4860TIP3    H214545   2.305   5.088   5.159
 4861TIP3   OH214546   2.461   4.304   4.919
 4861TIP3    H114547   2.413   4.361   4.980
 4861TIP3    H214548   2.532   4.266   4.971
 4862TIP3   OH214549   0.571   6.195   2.137
 4862TIP3    H114550   0.644   6.173   2.079
 4862TIP3    H214551   0.586   6.142   2.215
 4863TIP3   OH214552   5.628   1.830   1.064
 4863TIP3    H114553   5.691   1.866   1.002
 4863TIP3    H214554   5.543   1.845   1.023
 4864TIP3   OH214555   0.249   1.712   4.955
 4864TIP3    H114556   0.279   1.728   5.044
 4864TIP3    H214557   0.326   1.726   4.900
 4865TIP3   OH214558   0.376   5.165   2.917
 4865TIP3    H114559   0.296   5.117   2.896
 4865TIP3    H214560   0.402   5.206   2.835
 4866TIP3   OH214561   4.793   2.184   4.148
 4866TIP3    H114562   4.837   2.140   4.222
 4866TIP3    H214563   4.864   2.204   4.087
 4867TIP3   OH214564   2.710   3.226   1.616
 4867TIP3    H114565   2.677   3.226   1.705
 4867TIP3    H214566   2.806   3.222   1.626
 4868TIP3   OH214567   3.247   0.838   0.633
 4868TIP3    H114568   3.221   0.930   0.624
 4868TIP3    H214569   3.329   0.832   0.584
 4869TIP3   OH214570   2.836   4.740   4.273
 4869TIP3    H114571   2.909   4.737   4.210
 4869TIP3    H214572   2.877   4.769   4.355
 4870TIP3   OH214573   2.997   3.115   5.681
 4870TIP3    H114574   3.056   3.114   5.606
 4870TIP3    H214575   2.969   3.207   5.687
 4871TIP3   OH214576   2.236   4.850   2.079
 4871TIP3    H114577   2.278   4.766   2.097
 4871TIP3    H214578   2.197   4.877   2.162
 4872TIP3   OH214579   0.900   5.749   4.839
 4872TIP3    H114580   0.935   5.666   4.871
 4872TIP3    H214581   0.806   5.745   4.860
 4873TIP3   OH214582   0.738   0.200   4.082
 4873TIP3    H114583   0.645   0.218   4.070
 4873TIP3    H214584   0.782   0.258   4.020
 4874TIP3   OH214585   5.280   5.200   0.050
 4874TIP3    H114586   5.308   5.123   0.099
 4874TIP3    H214587   5.220   5.246   0.109
 4875TIP3   OH214588   7.012   0.099   3.647
 4875TIP3    H114589   7.020   0.174   3.588
 4875TIP3    H214590   7.006   0.023   3.589
 4876TIP3   OH214591   3.159   3.232   3.420
 4876TIP3    H114592   3.164   3.215   3.514
 4876TIP3    H214593   3.179   3.147   3.379
 4877TIP3   OH214594   2.733   5.456   5.082
 4877TIP3    H114595   2.682   5.537   5.073
 4877TIP3    H214596   2.669   5.391   5.110
 4878TIP3   OH214597   7.004   6.471   2.696
 4878TIP3    H114598   7.078   6.412   2.712
 4878TIP3    H214599   6.982   6.457   2.604
 4879TIP3   OH214600   0.230   5.110   0.815
 4879TIP3    H114601   0.154   5.137   0.763
 4879TIP3    H214602   0.203   5.124   0.906
 4880TIP3   OH214603   0.668   1.452   5.435
 4880TIP3    H114604   0.629   1.465   5.348
 4880TIP3    H214605   0.703   1.537   5.459
 4881TIP3   OH214606   7.129   4.708   4.285
 4881TIP3    H114607   7.034   4.716   4.286
 4881TIP3    H214608   7.148   4.641   4.351
 4882TIP3   OH214609   3.585   1.351   0.183
 4882TIP3    H114610   3.605   1.382   0.095
 4882TIP3    H214611   3.549   1.263   0.170
 4883TIP3   OH214612   4.789   5.854   2.652
 4883TIP3    H114613   4.829   5.915   2.589
 4883TIP3    H214614   4.720   5.810   2.603
 4884TIP3   OH214615   0.220   6.618   3.686
 4884TIP3    H114616   0.209   6.705   3.725
 4884TIP3    H214617   0.314   6.611   3.669
 4885TIP3   OH214618   3.475   5.312   5.242
 4885TIP3    H114619   3.381   5.294   5.255
 4885TIP3    H214620   3.510   5.230   5.207
 4886TIP3   OH214621   6.241   0.672   3.121
 4886TIP3    H114622   6.201   0.711   3.199
 4886TIP3    H214623   6.168   0.632   3.074
 4887TIP3   OH214624   3.247   2.676   0.714
 4887TIP3    H114625   3.186   2.736   0.671
 4887TIP3    H214626   3.199   2.594   0.721
 4888TIP3   OH214627   2.399   2.314   4.541
 4888TIP3    H114628   2.396   2.223   4.572
 4888TIP3    H214629   2.395   2.367   4.620
 4889TIP3   OH214630   6.796   5.599   4.092
 4889TIP3    H114631   6.757   5.643   4.017
 4889TIP3    H214632   6.766   5.508   4.085
 4890TIP3   OH214633   5.672   6.343   0.979
 4890TIP3    H114634   5.763   6.359   1.004
 4890TIP3    H214635   5.646   6.266   1.028
 4891TIP3   OH214636   1.768   1.922   0.230
 4891TIP3    H114637   1.846   1.867   0.238
 4891TIP3    H214638   1.751   1.953   0.319
 4892TIP3   OH214639   4.071   0.793   0.465
 4892TIP3    H114640   3.981   0.806   0.437
 4892TIP3    H214641   4.079   0.700   0.483
 4893TIP3   OH214642   2.782   0.921   3.369
 4893TIP3    H114643   2.847   0.852   3.354
 4893TIP3    H214644   2.819   0.998   3.326
 4894TIP3   OH214645   5.610   4.956   2.764
 4894TIP3    H114646   5.639   4.886   2.707
 4894TIP3    H214647   5.551   4.913   2.827
 4895TIP3   OH214648   2.392   2.817   4.862
 4895TIP3    H114649   2.396   2.871   4.783
 4895TIP3    H214650   2.414   2.878   4.933
 4896TIP3   OH214651   3.246   0.418   2.901
 4896TIP3    H114652   3.307   0.346   2.921
 4896TIP3    H214653   3.202   0.392   2.820
 4897TIP3   OH214654   2.728   2.167   0.117
 4897TIP3    H114655   2.821   2.191   0.117
 4897TIP3    H214656   2.729   2.071   0.111
 4898TIP3   OH214657   7.145   4.555   5.430
 4898TIP3    H114658   7.091   4.483   5.462
 4898TIP3    H214659   7.126   4.558   5.336
 4899TIP3   OH214660   1.858   5.480   3.882
 4899TIP3    H114661   1.775   5.436   3.895
 4899TIP3    H214662   1.915   5.447   3.951
 4900TIP3   OH214663   3.206   3.706   5.375
 4900TIP3    H114664   3.189   3.633   5.434
 4900TIP3    H214665   3.269   3.761   5.421
 4901TIP3   OH214666   3.303   5.549   3.997
 4901TIP3    H114667   3.290   5.530   4.090
 4901TIP3    H214668   3.251   5.482   3.952
 4902TIP3   OH214669   7.154   6.176   3.618
 4902TIP3    H114670   7.141   6.201   3.709
 4902TIP3    H214671   7.067   6.182   3.578
 4903TIP3   OH214672   6.905   5.812   3.529
 4903TIP3    H114673   6.854   5.769   3.461
 4903TIP3    H214674   6.889   5.906   3.516
 4904TIP3   OH214675   6.089   1.230   0.262
 4904TIP3    H114676   6.142   1.305   0.234
 4904TIP3    H214677   6.055   1.192   0.181
 4905TIP3   OH214678   1.817   5.594   2.787
 4905TIP3    H114679   1.899   5.594   2.737
 4905TIP3    H214680   1.756   5.543   2.733
 4906TIP3   OH214681   3.312   0.484   5.642
 4906TIP3    H114682   3.346   0.503   5.554
 4906TIP3    H214683   3.299   0.570   5.682
 4907TIP3   OH214684   1.907   5.259   1.707
 4907TIP3    H114685   1.841   5.191   1.720
 4907TIP3    H214686   1.970   5.246   1.778
 4908TIP3   OH214687   0.836   0.797   4.418
 4908TIP3    H114688   0.775   0.741   4.369
 4908TIP3    H214689   0.786   0.825   4.494
 4909TIP3   OH214690   6.951   1.012   5.221
 4909TIP3    H114691   6.884   0.948   5.198
 4909TIP3    H214692   7.028   0.984   5.170
 4910TIP3   OH214693   1.775   5.256   1.066
 4910TIP3    H114694   1.701   5.274   1.007
 4910TIP3    H214695   1.778   5.161   1.073
 4911TIP3   OH214696   1.354   5.051   4.227
 4911TIP3    H114697   1.328   5.010   4.310
 4911TIP3    H214698   1.393   4.980   4.177
 4912TIP3   OH214699   2.046   0.584   2.974
 4912TIP3    H114700   2.006   0.670   2.985
 4912TIP3    H214701   2.047   0.569   2.879
 4913TIP3   OH214702   6.842   2.229   0.070
 4913TIP3    H114703   6.933   2.205   0.052
 4913TIP3    H214704   6.848   2.301   0.133
 4914TIP3   OH214705   5.463   3.025   0.112
 4914TIP3    H114706   5.390   3.080   0.141
 4914TIP3    H214707   5.475   3.048   0.020
 4915TIP3   OH214708   2.533   0.040   3.790
 4915TIP3    H114709   2.454   0.080   3.752
 4915TIP3    H214710   2.558   0.100   3.860
 4916TIP3   OH214711   4.399   0.140   1.685
 4916TIP3    H114712   4.379   0.071   1.748
 4916TIP3    H214713   4.360   0.219   1.722
 4917TIP3   OH214714   3.789   2.971   2.351
 4917TIP3    H114715   3.772   2.999   2.261
 4917TIP3    H214716   3.808   3.052   2.398
 4918TIP3   OH214717   1.327   6.123   1.550
 4918TIP3    H114718   1.408   6.133   1.501
 4918TIP3    H214719   1.355   6.099   1.638
 4919TIP3   OH214720   2.876   3.463   1.194
 4919TIP3    H114721   2.837   3.477   1.280
 4919TIP3    H214722   2.961   3.424   1.213
 4920TIP3   OH214723   2.706   1.166   3.043
 4920TIP3    H114724   2.777   1.204   3.094
 4920TIP3    H214725   2.746   1.094   2.995
 4921TIP3   OH214726   6.116   2.375   0.322
 4921TIP3    H114727   6.114   2.458   0.370
 4921TIP3    H214728   6.208   2.361   0.301
 4922TIP3   OH214729   4.487   1.298   1.227
 4922TIP3    H114730   4.445   1.325   1.309
 4922TIP3    H214731   4.575   1.334   1.233
 4923TIP3   OH214732   1.534   2.520   1.049
 4923TIP3    H114733   1.590   2.502   0.974
 4923TIP3    H214734   1.476   2.591   1.019
 4924TIP3   OH214735   5.377   5.263   0.746
 4924TIP3    H114736   5.289   5.244   0.778
 4924TIP3    H214737   5.413   5.177   0.723
 4925TIP3   OH214738   5.748   1.569   4.918
 4925TIP3    H114739   5.782   1.652   4.885
 4925TIP3    H214740   5.710   1.590   5.003
 4926TIP3   OH214741   1.933   1.129   4.466
 4926TIP3    H114742   1.947   1.160   4.376
 4926TIP3    H214743   1.843   1.097   4.466
 4927TIP3   OH214744   6.834   1.146   1.287
 4927TIP3    H114745   6.924   1.178   1.298
 4927TIP3    H214746   6.779   1.221   1.310
 4928TIP3   OH214747   6.472   2.880   5.231
 4928TIP3    H114748   6.397   2.821   5.247
 4928TIP3    H214749   6.470   2.895   5.137
 4929TIP3   OH214750   6.787   3.567   1.614
 4929TIP3    H114751   6.719   3.501   1.609
 4929TIP3    H214752   6.769   3.626   1.540
 4930TIP3   OH214753   3.989   3.586   2.657
 4930TIP3    H114754   4.000   3.667   2.707
 4930TIP3    H214755   3.895   3.567   2.665
 4931TIP3   OH214756   5.286   2.265   4.977
 4931TIP3    H114757   5.260   2.250   4.885
 4931TIP3    H214758   5.345   2.193   4.997
 4932TIP3   OH214759   0.645   0.642   4.255
 4932TIP3    H114760   0.695   0.562   4.270
 4932TIP3    H214761   0.635   0.647   4.160
 4933TIP3   OH214762   5.416   0.010   5.315
 4933TIP3    H114763   5.482   0.021   5.246
 4933TIP3    H214764   5.332   0.022   5.270
 4934TIP3   OH214765   2.129   4.700   5.052
 4934TIP3    H114766   2.101   4.754   5.126
 4934TIP3    H214767   2.052   4.694   4.996
 4935TIP3   OH214768   5.300   5.206   4.411
 4935TIP3    H114769   5.213   5.172   4.432
 4935TIP3    H214770   5.297   5.297   4.439
 4936TIP3   OH214771   2.981   5.519   4.227
 4936TIP3    H114772   2.955   5.442   4.278
 4936TIP3    H214773   2.949   5.593   4.279
 4937TIP3   OH214774   3.675   4.015   1.514
 4937TIP3    H114775   3.750   4.042   1.461
 4937TIP3    H214776   3.708   4.013   1.604
 4938TIP3   OH214777   6.122   6.505   0.716
 4938TIP3    H114778   6.130   6.553   0.799
 4938TIP3    H214779   6.193   6.441   0.719
 4939TIP3   OH214780   1.958   0.659   4.708
 4939TIP3    H114781   1.867   0.676   4.732
 4939TIP3    H214782   1.969   0.565   4.718
 4940TIP3   OH214783   6.543   0.079   1.823
 4940TIP3    H114784   6.485   0.082   1.899
 4940TIP3    H214785   6.607   0.012   1.844
 4941TIP3   OH214786   1.561   4.256   4.758
 4941TIP3    H114787   1.528   4.311   4.687
 4941TIP3    H214788   1.538   4.167   4.732
 4942TIP3   OH214789   5.613   4.212   1.822
 4942TIP3    H114790   5.602   4.254   1.908
 4942TIP3    H214791   5.700   4.239   1.793
 4943TIP3   OH214792   6.747   5.105   1.549
 4943TIP3    H114793   6.833   5.141   1.573
 4943TIP3    H214794   6.689   5.130   1.621
 4944TIP3   OH214795   3.483   0.117   4.789
 4944TIP3    H114796   3.418   0.105   4.719
 4944TIP3    H214797   3.513   0.029   4.808
 4945TIP3   OH214798   7.013   2.803   3.135
 4945TIP3    H114799   7.104   2.792   3.162
 4945TIP3    H214800   6.969   2.723   3.164
 4946TIP3   OH214801   0.045   3.995   0.382
 4946TIP3    H114802   0.109   4.063   0.362
 4946TIP3    H214803   0.047   3.938   0.305
 4947TIP3   OH214804   3.742   1.900   4.499
 4947TIP3    H114805   3.775   1.831   4.442
 4947TIP3    H214806   3.679   1.948   4.445
 4948TIP3   OH214807   5.109   5.711   5.708
 4948TIP3    H114808   5.043   5.696   5.641
 4948TIP3    H214809   5.061   5.710   5.791
 4949TIP3   OH214810   6.265   1.889   0.262
 4949TIP3    H114811   6.213   1.895   0.182
 4949TIP3    H214812   6.204   1.907   0.333
 4950TIP3   OH214813   1.429   0.788   3.013
 4950TIP3    H114814   1.370   0.749   2.948
 4950TIP3    H214815   1.438   0.721   3.081
 4951TIP3   OH214816   1.252   0.711   1.321
 4951TIP3    H114817   1.158   0.702   1.309
 4951TIP3    H214818   1.269   0.675   1.409
 4952TIP3   OH214819   0.239   4.784   5.698
 4952TIP3    H114820   0.240   4.702   5.649
 4952TIP3    H214821   0.187   4.764   5.776
 4953TIP3   OH214822   0.600   1.055   3.207
 4953TIP3    H114823   0.541   1.007   3.149
 4953TIP3    H214824   0.639   0.988   3.263
 4954TIP3   OH214825   3.600   6.671   0.661
 4954TIP3    H114826   3.672   6.686   0.722
 4954TIP3    H214827   3.584   6.576   0.666
 4955TIP3   OH214828   1.509   0.385   3.447
 4955TIP3    H114829   1.457   0.335   3.384
 4955TIP3    H214830   1.600   0.361   3.426
 4956TIP3   OH214831   2.839   1.786   4.889
 4956TIP3    H114832   2.780   1.856   4.916
 4956TIP3    H214833   2.925   1.813   4.922
 4957TIP3   OH214834   2.239   0.223   3.074
 4957TIP3    H114835   2.279   0.137   3.091
 4957TIP3    H214836   2.256   0.239   2.982
 4958TIP3   OH214837   2.817   2.619   4.969
 4958TIP3    H114838   2.781   2.600   4.882
 4958TIP3    H214839   2.911   2.608   4.958
 4959TIP3   OH214840   0.548   2.378   5.458
 4959TIP3    H114841   0.615   2.445   5.467
 4959TIP3    H214842   0.483   2.416   5.399
 4960TIP3   OH214843   4.639   2.983   5.110
 4960TIP3    H114844   4.688   3.065   5.104
 4960TIP3    H214845   4.641   2.947   5.022
 4961TIP3   OH214846   5.316   4.056   3.649
 4961TIP3    H114847   5.367   4.088   3.575
 4961TIP3    H214848   5.227   4.046   3.615
 4962TIP3   OH214849   1.972   6.588   1.685
 4962TIP3    H114850   1.994   6.661   1.743
 4962TIP3    H214851   1.953   6.515   1.744
 4963TIP3   OH214852   2.450   2.713   1.293
 4963TIP3    H114853   2.470   2.761   1.373
 4963TIP3    H214854   2.404   2.635   1.323
 4964TIP3   OH214855   0.487   2.798   3.095
 4964TIP3    H114856   0.572   2.837   3.074
 4964TIP3    H214857   0.434   2.871   3.127
 4965TIP3   OH214858   6.894   2.630   0.778
 4965TIP3    H114859   6.799   2.638   0.766
 4965TIP3    H214860   6.904   2.610   0.871
 4966TIP3   OH214861   1.160   5.574   0.317
 4966TIP3    H114862   1.206   5.620   0.247
 4966TIP3    H214863   1.169   5.481   0.295
 4967TIP3   OH214864   6.844   5.254   5.215
 4967TIP3    H114865   6.808   5.342   5.206
 4967TIP3    H214866   6.909   5.247   5.145
 4968TIP3   OH214867   3.236   5.291   3.433
 4968TIP3    H114868   3.244   5.220   3.496
 4968TIP3    H214869   3.149   5.278   3.393
 4969TIP3   OH214870   3.685   2.534   1.707
 4969TIP3    H114871   3.664   2.624   1.731
 4969TIP3    H214872   3.780   2.527   1.718
 4970TIP3   OH214873   1.215   2.261   3.820
 4970TIP3    H114874   1.224   2.204   3.743
 4970TIP3    H214875   1.300   2.254   3.864
 4971TIP3   OH214876   7.063   3.044   1.479
 4971TIP3    H114877   7.061   3.138   1.498
 4971TIP3    H214878   6.980   3.011   1.514
 4972TIP3   OH214879   0.511   0.814   5.634
 4972TIP3    H114880   0.427   0.846   5.600
 4972TIP3    H214881   0.551   0.890   5.676
 4973TIP3   OH214882   0.938   6.410   3.721
 4973TIP3    H114883   0.917   6.333   3.774
 4973TIP3    H214884   1.012   6.382   3.667
 4974TIP3   OH214885   6.083   0.453   5.624
 4974TIP3    H114886   6.043   0.370   5.646
 4974TIP3    H214887   6.166   0.430   5.583
 4975TIP3   OH214888   2.820   2.248   5.691
 4975TIP3    H114889   2.888   2.203   5.641
 4975TIP3    H214890   2.792   2.183   5.757
 4976TIP3   OH214891   0.628   0.239   4.557
 4976TIP3    H114892   0.688   0.175   4.596
 4976TIP3    H214893   0.579   0.188   4.493
 4977TIP3   OH214894   1.047   6.070   3.402
 4977TIP3    H114895   0.958   6.037   3.389
 4977TIP3    H214896   1.071   6.043   3.491
 4978TIP3   OH214897   5.336   4.598   3.243
 4978TIP3    H114898   5.287   4.520   3.270
 4978TIP3    H214899   5.271   4.651   3.196
 4979TIP3   OH214900   1.002   1.719   3.112
 4979TIP3    H114901   1.084   1.674   3.092
 4979TIP3    H214902   1.002   1.728   3.207
 4980TIP3   OH214903   3.166   5.940   4.585
 4980TIP3    H114904   3.213   5.937   4.668
 4980TIP3    H214905   3.073   5.942   4.609
 4981TIP3   OH214906   1.122   5.326   2.521
 4981TIP3    H114907   1.155   5.364   2.439
 4981TIP3    H214908   1.171   5.371   2.589
 4982TIP3   OH214909   2.786   0.737   0.988
 4982TIP3    H114910   2.826   0.733   1.075
 4982TIP3    H214911   2.858   0.720   0.928
 4983TIP3   OH214912   6.721   3.351   3.933
 4983TIP3    H114913   6.691   3.284   3.872
 4983TIP3    H214914   6.691   3.320   4.019
 4984TIP3   OH214915   5.791   4.522   4.961
 4984TIP3    H114916   5.861   4.561   5.013
 4984TIP3    H214917   5.837   4.471   4.894
 4985TIP3   OH214918   0.089   3.705   3.941
 4985TIP3    H114919   0.002   3.664   3.938
 4985TIP3    H214920   0.143   3.649   3.886
 4986TIP3   OH214921   6.166   5.611   4.887
 4986TIP3    H114922   6.192   5.520   4.900
 4986TIP3    H214923   6.180   5.626   4.793
 4987TIP3   OH214924   3.891   2.558   2.247
 4987TIP3    H114925   3.961   2.556   2.311
 4987TIP3    H214926   3.922   2.618   2.179
 4988TIP3   OH214927   4.259   3.608   3.712
 4988TIP3    H114928   4.290   3.588   3.800
 4988TIP3    H214929   4.186   3.547   3.698
 4989TIP3   OH214930   1.228   6.346   3.047
 4989TIP3    H114931   1.149   6.331   2.995
 4989TIP3    H214932   1.209   6.302   3.131
 4990TIP3   OH214933   3.502   3.540   3.001
 4990TIP3    H114934   3.428   3.529   3.060
 4990TIP3    H214935   3.479   3.615   2.947
 4991TIP3   OH214936   3.467   4.989   1.413
 4991TIP3    H114937   3.428   5.075   1.428
 4991TIP3    H214938   3.505   4.964   1.497
 4992TIP3   OH214939   1.606   6.451   0.699
 4992TIP3    H114940   1.595   6.357   0.711
 4992TIP3    H214941   1.659   6.479   0.773
 4993TIP3   OH214942   1.546   3.052   0.956
 4993TIP3    H114943   1.572   3.101   0.878
 4993TIP3    H214944   1.524   3.119   1.021
 4994TIP3   OH214945   0.102   1.968   0.472
 4994TIP3    H114946   0.165   1.908   0.512
 4994TIP3    H214947   0.101   2.044   0.531
 4995TIP3   OH214948   1.620   2.058   5.420
 4995TIP3    H114949   1.532   2.057   5.456
 4995TIP3    H214950   1.657   1.973   5.443
 4996TIP3   OH214951   0.523   5.795   0.255
 4996TIP3    H114952   0.468   5.719   0.238
 4996TIP3    H214953   0.497   5.859   0.188
 4997TIP3   OH214954   1.096   1.447   0.616
 4997TIP3    H114955   1.106   1.464   0.710
 4997TIP3    H214956   1.015   1.395   0.610
 4998TIP3   OH214957   2.814   2.643   3.687
 4998TIP3    H114958   2.881   2.710   3.674
 4998TIP3    H214959   2.779   2.660   3.774
 4999TIP3   OH214960   3.328   2.464   3.901
 4999TIP3    H114961   3.252   2.496   3.853
 4999TIP3    H214962   3.390   2.437   3.833
 5000TIP3   OH214963   2.560   0.902   5.253
 5000TIP3    H114964   2.586   0.943   5.336
 5000TIP3    H214965   2.629   0.927   5.191
 5001TIP3   OH214966   2.699   3.736   5.888
 5001TIP3    H114967   2.638   3.740   5.814
 5001TIP3    H214968   2.748   3.818   5.883
 5002TIP3   OH214969   5.433   3.714   1.446
 5002TIP3    H114970   5.457   3.779   1.513
 5002TIP3    H214971   5.337   3.708   1.453
 5003TIP3   OH214972   0.335   2.141   0.411
 5003TIP3    H114973   0.246   2.111   0.397
 5003TIP3    H214974   0.344   2.218   0.355
 5004TIP3   OH214975   4.440   0.436   5.474
 5004TIP3    H114976   4.494   0.449   5.396
 5004TIP3    H214977   4.380   0.365   5.450
 5005TIP3   OH214978   6.210   2.095   4.272
 5005TIP3    H114979   6.167   2.144   4.202
 5005TIP3    H214980   6.183   2.005   4.260
 5006TIP3   OH214981   1.958   0.270   1.076
 5006TIP3    H114982   1.920   0.341   1.129
 5006TIP3    H214983   2.028   0.235   1.130
 5007TIP3   OH214984   5.650   4.279   3.007
 5007TIP3    H114985   5.667   4.372   2.992
 5007TIP3    H214986   5.699   4.235   2.939
 5008TIP3   OH214987   1.864   3.719   5.227
 5008TIP3    H114988   1.868   3.813   5.210
 5008TIP3    H214989   1.861   3.679   5.140
 5009TIP3   OH214990   1.552   4.800   4.525
 5009TIP3    H114991   1.638   4.831   4.553
 5009TIP3    H214992   1.563   4.706   4.513
 5010TIP3   OH214993   5.422   1.088   2.832
 5010TIP3    H114994   5.495   1.058   2.887
 5010TIP3    H214995   5.443   1.056   2.745
 5011TIP3   OH214996   3.198   6.232   0.973
 5011TIP3    H114997   3.257   6.165   0.940
 5011TIP3    H214998   3.118   6.185   0.996
 5012TIP3   OH214999   1.381   4.593   1.820
 5012TIP3    H115000   1.365   4.505   1.785
 5012TIP3    H215001   1.413   4.643   1.744
 5013TIP3   OH215002   2.742   3.683   2.758
 5013TIP3    H115003   2.664   3.736   2.778
 5013TIP3    H215004   2.726   3.600   2.803
 5014TIP3   OH215005   0.356   1.979   4.501
 5014TIP3    H115006   0.376   1.994   4.593
 5014TIP3    H215007   0.287   2.043   4.481
 5015TIP3   OH215008   1.721   0.193   5.733
 5015TIP3    H115009   1.651   0.190   5.667
 5015TIP3    H215010   1.798   0.159   5.687
 5016TIP3   OH215011   2.767   2.731   3.953
 5016TIP3    H115012   2.728   2.705   4.037
 5016TIP3    H215013   2.761   2.826   3.952
 5017TIP3   OH215014   0.125   6.245   0.738
 5017TIP3    H115015   0.052   6.296   0.772
 5017TIP3    H215016   0.086   6.185   0.675
 5018TIP3   OH215017   6.997   1.822   3.349
 5018TIP3    H115018   6.941   1.897   3.329
 5018TIP3    H215019   7.081   1.843   3.307
 5019TIP3   OH215020   7.204   5.356   3.657
 5019TIP3    H115021   7.180   5.264   3.668
 5019TIP3    H215022   7.286   5.354   3.608
 5020TIP3   OH215023   3.140   4.458   4.679
 5020TIP3    H115024   3.068   4.444   4.617
 5020TIP3    H215025   3.139   4.380   4.734
 5021TIP3   OH215026   3.327   0.556   5.357
 5021TIP3    H115027   3.278   0.634   5.383
 5021TIP3    H215028   3.305   0.543   5.265
 5022TIP3   OH215029   3.374   1.753   0.520
 5022TIP3    H115030   3.343   1.803   0.445
 5022TIP3    H215031   3.411   1.673   0.482
 5023TIP3   OH215032   6.507   4.283   2.094
 5023TIP3    H115033   6.455   4.212   2.132
 5023TIP3    H215034   6.585   4.288   2.151
 5024TIP3   OH215035   3.946   4.645   0.723
 5024TIP3    H115036   3.956   4.680   0.812
 5024TIP3    H215037   3.923   4.721   0.670
 5025TIP3   OH215038   4.740   0.461   0.760
 5025TIP3    H115039   4.809   0.470   0.826
 5025TIP3    H215040   4.732   0.549   0.722
 5026TIP3   OH215041   1.186   4.789   3.673
 5026TIP3    H115042   1.254   4.730   3.703
 5026TIP3    H215043   1.106   4.736   3.675
 5027TIP3   OH215044   2.751   0.541   5.629
 5027TIP3    H115045   2.808   0.539   5.706
 5027TIP3    H215046   2.770   0.459   5.583
 5028TIP3   OH215047   5.309   2.584   2.530
 5028TIP3    H115048   5.223   2.622   2.546
 5028TIP3    H215049   5.355   2.651   2.479
 5029TIP3   OH215050   6.814   5.966   5.338
 5029TIP3    H115051   6.748   6.023   5.298
 5029TIP3    H215052   6.826   5.896   5.274
 5030TIP3   OH215053   2.441   6.391   2.434
 5030TIP3    H115054   2.352   6.423   2.452
 5030TIP3    H215055   2.432   6.297   2.424
 5031TIP3   OH215056   2.114   4.079   3.282
 5031TIP3    H115057   2.176   4.007   3.273
 5031TIP3    H215058   2.032   4.045   3.245
 5032TIP3   OH215059   3.981   1.278   4.241
 5032TIP3    H115060   4.045   1.210   4.218
 5032TIP3    H215061   3.918   1.275   4.170
 5033TIP3   OH215062   6.877   5.817   1.053
 5033TIP3    H115063   6.842   5.892   1.005
 5033TIP3    H215064   6.966   5.805   1.018
 5034TIP3   OH215065   6.179   6.497   1.987
 5034TIP3    H115066   6.117   6.453   2.045
 5034TIP3    H215067   6.265   6.476   2.024
 5035TIP3   OH215068   1.064   0.121   5.817
 5035TIP3    H115069   0.971   0.141   5.809
 5035TIP3    H215070   1.108   0.202   5.793
 5036TIP3   OH215071   1.987   2.422   3.076
 5036TIP3    H115072   1.988   2.367   2.998
 5036TIP3    H215073   1.962   2.508   3.045
 5037TIP3   OH215074   6.381   1.437   2.317
 5037TIP3    H115075   6.311   1.473   2.261
 5037TIP3    H215076   6.439   1.511   2.332
 5038TIP3   OH215077   6.995   6.337   5.848
 5038TIP3    H115078   6.948   6.284   5.912
 5038TIP3    H215079   6.942   6.416   5.839
 5039TIP3   OH215080   6.353   4.233   4.086
 5039TIP3    H115081   6.370   4.250   4.178
 5039TIP3    H215082   6.266   4.269   4.070
 5040TIP3   OH215083   6.724   4.246   0.027
 5040TIP3    H115084   6.694   4.333   0.054
 5040TIP3    H215085   6.801   4.229   0.082
 5041TIP3   OH215086   0.983   3.650   3.494
 5041TIP3    H115087   0.952   3.732   3.457
 5041TIP3    H215088   0.905   3.595   3.501
 5042TIP3   OH215089   6.027   1.459   0.871
 5042TIP3    H115090   5.965   1.433   0.939
 5042TIP3    H215091   6.049   1.378   0.826
 5043TIP3   OH215092   6.895   4.542   2.480
 5043TIP3    H115093   6.896   4.539   2.575
 5043TIP3    H215094   6.854   4.626   2.459
 5044TIP3   OH215095   5.973   5.789   4.446
 5044TIP3    H115096   6.066   5.792   4.423
 5044TIP3    H215097   5.959   5.868   4.499
 5045TIP3   OH215098   2.552   0.186   0.979
 5045TIP3    H115099   2.571   0.129   0.905
 5045TIP3    H215100   2.633   0.185   1.031
 5046TIP3   OH215101   1.582   6.449   3.179
 5046TIP3    H115102   1.581   6.437   3.084
 5046TIP3    H215103   1.570   6.543   3.191
 5047TIP3   OH215104   2.291   4.101   1.076
 5047TIP3    H115105   2.248   4.028   1.119
 5047TIP3    H215106   2.360   4.061   1.024
 5048TIP3   OH215107   6.604   1.353   2.622
 5048TIP3    H115108   6.510   1.368   2.636
 5048TIP3    H215109   6.608   1.283   2.557
 5049TIP3   OH215110   5.302   1.644   3.114
 5049TIP3    H115111   5.209   1.653   3.135
 5049TIP3    H215112   5.313   1.552   3.092
 5050TIP3   OH215113   1.962   4.337   3.106
 5050TIP3    H115114   1.971   4.364   3.197
 5050TIP3    H215115   2.051   4.315   3.078
 5051TIP3   OH215116   1.063   2.547   5.270
 5051TIP3    H115117   1.098   2.529   5.358
 5051TIP3    H215118   1.029   2.636   5.276
 5052TIP3   OH215119   1.291   5.853   0.473
 5052TIP3    H115120   1.208   5.806   0.484
 5052TIP3    H215121   1.333   5.810   0.398
 5053TIP3   OH215122   3.005   6.112   4.912
 5053TIP3    H115123   3.097   6.086   4.920
 5053TIP3    H215124   3.003   6.172   4.837
 5054TIP3   OH215125   1.864   3.245   0.180
 5054TIP3    H115126   1.869   3.283   0.093
 5054TIP3    H215127   1.954   3.247   0.212
 5055TIP3   OH215128   5.182   3.424   3.825
 5055TIP3    H115129   5.092   3.428   3.794
 5055TIP3    H215130   5.219   3.509   3.801
 5056TIP3   OH215131   7.289   0.373   3.087
 5056TIP3    H115132   7.199   0.403   3.076
 5056TIP3    H215133   7.289   0.282   3.057
 5057TIP3   OH215134   1.420   2.604   3.693
 5057TIP3    H115135   1.400   2.629   3.783
 5057TIP3    H215136   1.337   2.576   3.656
 5058TIP3   OH215137   5.508   6.527   0.842
 5058TIP3    H115138   5.550   6.445   0.866
 5058TIP3    H215139   5.578   6.581   0.807
 5059TIP3   OH215140   1.242   5.425   2.298
 5059TIP3    H115141   1.289   5.344   2.280
 5059TIP3    H215142   1.160   5.416   2.250
 5060TIP3   OH215143   1.230   1.847   5.090
 5060TIP3    H115144   1.170   1.919   5.070
 5060TIP3    H215145   1.301   1.888   5.139
 5061TIP3   OH215146   3.152   0.211   0.309
 5061TIP3    H115147   3.068   0.182   0.343
 5061TIP3    H215148   3.143   0.207   0.214
 5062TIP3   OH215149   4.631   1.518   0.577
 5062TIP3    H115150   4.595   1.604   0.556
 5062TIP3    H215151   4.554   1.465   0.599
 5063TIP3   OH215152   3.949   2.701   0.085
 5063TIP3    H115153   3.858   2.711   0.115
 5063TIP3    H215154   3.977   2.617   0.122
 5064TIP3   OH215155   1.863   4.217   4.699
 5064TIP3    H115156   1.769   4.211   4.716
 5064TIP3    H215157   1.904   4.173   4.773
 5065TIP3   OH215158   4.944   3.302   0.403
 5065TIP3    H115159   5.021   3.322   0.350
 5065TIP3    H215160   4.976   3.242   0.470
 5066TIP3   OH215161   0.513   5.627   4.325
 5066TIP3    H115162   0.494   5.578   4.405
 5066TIP3    H215163   0.556   5.563   4.268
 5067TIP3   OH215164   0.397   2.777   2.832
 5067TIP3    H115165   0.444   2.771   2.915
 5067TIP3    H215166   0.305   2.763   2.856
 5068TIP3   OH215167   6.009   1.115   4.258
 5068TIP3    H115168   6.025   1.067   4.176
 5068TIP3    H215169   5.925   1.158   4.244
 5069TIP3   OH215170   4.381   3.641   5.169
 5069TIP3    H115171   4.286   3.643   5.162
 5069TIP3    H215172   4.408   3.578   5.102
 5070TIP3   OH215173   1.372   4.806   2.917
 5070TIP3    H115174   1.403   4.887   2.876
 5070TIP3    H215175   1.433   4.739   2.887
 5071TIP3   OH215176   4.341   4.502   4.279
 5071TIP3    H115177   4.393   4.433   4.238
 5071TIP3    H215178   4.296   4.544   4.205
 5072TIP3   OH215179   3.338   6.215   1.997
 5072TIP3    H115180   3.382   6.129   2.000
 5072TIP3    H215181   3.336   6.238   1.904
 5073TIP3   OH215182   2.312   2.153   2.162
 5073TIP3    H115183   2.371   2.222   2.132
 5073TIP3    H215184   2.298   2.098   2.085
 5074TIP3   OH215185   2.599   6.126   3.808
 5074TIP3    H115186   2.562   6.202   3.853
 5074TIP3    H215187   2.526   6.089   3.760
 5075TIP3   OH215188   3.032   4.325   3.703
 5075TIP3    H115189   3.114   4.330   3.752
 5075TIP3    H215190   3.042   4.389   3.632
 5076TIP3   OH215191   3.158   3.027   4.803
 5076TIP3    H115192   3.223   3.071   4.748
 5076TIP3    H215193   3.196   3.028   4.891
 5077TIP3   OH215194   5.620   4.005   4.332
 5077TIP3    H115195   5.596   3.913   4.342
 5077TIP3    H215196   5.580   4.031   4.249
 5078TIP3   OH215197   1.951   5.795   1.159
 5078TIP3    H115198   1.906   5.739   1.095
 5078TIP3    H215199   1.966   5.737   1.234
 5079TIP3   OH215200   4.697   5.408   3.334
 5079TIP3    H115201   4.603   5.420   3.320
 5079TIP3    H215202   4.719   5.333   3.278
 5080TIP3   OH215203   0.093   3.804   4.596
 5080TIP3    H115204   0.031   3.808   4.669
 5080TIP3    H215205   0.144   3.884   4.603
 5081TIP3   OH215206   1.087   4.454   1.680
 5081TIP3    H115207   1.142   4.395   1.731
 5081TIP3    H215208   1.148   4.516   1.640
 5082TIP3   OH215209   6.487   6.264   1.520
 5082TIP3    H115210   6.574   6.301   1.536
 5082TIP3    H215211   6.445   6.265   1.606
 5083TIP3   OH215212   1.494   0.258   3.686
 5083TIP3    H115213   1.487   0.308   3.604
 5083TIP3    H215214   1.482   0.167   3.659
 5084TIP3   OH215215   1.208   3.016   5.694
 5084TIP3    H115216   1.270   2.993   5.763
 5084TIP3    H215217   1.137   3.063   5.739
 5085TIP3   OH215218   2.689   4.472   2.951
 5085TIP3    H115219   2.624   4.541   2.937
 5085TIP3    H215220   2.666   4.435   3.036
 5086TIP3   OH215221   4.123   3.127   5.036
 5086TIP3    H115222   4.105   3.121   4.942
 5086TIP3    H215223   4.196   3.189   5.042
 5087TIP3   OH215224   5.725   2.951   2.230
 5087TIP3    H115225   5.773   3.033   2.218
 5087TIP3    H215226   5.647   2.960   2.175
 5088TIP3   OH215227   5.433   5.995   0.989
 5088TIP3    H115228   5.383   6.076   1.000
 5088TIP3    H215229   5.486   6.010   0.911
 5089TIP3   OH215230   5.723   5.393   4.101
 5089TIP3    H115231   5.662   5.379   4.028
 5089TIP3    H215232   5.706   5.483   4.128
 5090TIP3   OH215233   0.819   0.215   1.361
 5090TIP3    H115234   0.826   0.120   1.349
 5090TIP3    H215235   0.748   0.226   1.424
 5091TIP3   OH215236   4.838   5.631   2.989
 5091TIP3    H115237   4.850   5.726   2.985
 5091TIP3    H215238   4.743   5.618   2.986
 5092TIP3   OH215239   3.596   4.446   2.892
 5092TIP3    H115240   3.542   4.476   2.966
 5092TIP3    H215241   3.654   4.520   2.874
 5093TIP3   OH215242   5.791   6.197   1.512
 5093TIP3    H115243   5.728   6.127   1.530
 5093TIP3    H215244   5.752   6.275   1.552
 5094TIP3   OH215245   1.522   3.336   1.371
 5094TIP3    H115246   1.546   3.284   1.448
 5094TIP3    H215247   1.426   3.339   1.373
 5095TIP3   OH215248   5.151   4.132   5.099
 5095TIP3    H115249   5.118   4.221   5.092
 5095TIP3    H215250   5.092   4.089   5.162
 5096TIP3   OH215251   1.600   0.683   1.121
 5096TIP3    H115252   1.508   0.680   1.097
 5096TIP3    H215253   1.641   0.615   1.068
 5097TIP3   OH215254   1.163   4.850   0.690
 5097TIP3    H115255   1.224   4.786   0.727
 5097TIP3    H215256   1.171   4.839   0.595
 5098TIP3   OH215257   2.961   3.251   4.098
 5098TIP3    H115258   3.022   3.182   4.127
 5098TIP3    H215259   2.878   3.228   4.139
 5099TIP3   OH215260   0.234   4.482   3.350
 5099TIP3    H115261   0.254   4.392   3.327
 5099TIP3    H215262   0.188   4.476   3.434
 5100TIP3   OH215263   4.009   0.174   3.551
 5100TIP3    H115264   4.049   0.261   3.562
 5100TIP3    H215265   3.915   0.191   3.557
 5101TIP3   OH215266   2.836  -0.012   1.613
 5101TIP3    H115267   2.791   0.073   1.621
 5101TIP3    H215268   2.848  -0.023   1.518
 5102TIP3   OH215269   0.839   1.239   3.553
 5102TIP3    H115270   0.905   1.198   3.497
 5102TIP3    H215271   0.777   1.279   3.492
 5103TIP3   OH215272   5.271   2.528   0.361
 5103TIP3    H115273   5.259   2.590   0.289
 5103TIP3    H215274   5.195   2.470   0.357
 5104TIP3   OH215275   0.940   3.713   0.755
 5104TIP3    H115276   0.895   3.745   0.833
 5104TIP3    H215277   1.030   3.745   0.765
 5105TIP3   OH215278   4.401   2.346   3.828
 5105TIP3    H115279   4.322   2.370   3.779
 5105TIP3    H215280   4.473   2.372   3.771
 5106TIP3   OH215281   3.849   6.393   3.279
 5106TIP3    H115282   3.787   6.455   3.317
 5106TIP3    H215283   3.796   6.335   3.226
 5107TIP3   OH215284   7.056   2.288   2.651
 5107TIP3    H115285   7.023   2.214   2.600
 5107TIP3    H215286   6.982   2.314   2.706
 5108TIP3   OH215287   6.336   5.303   4.189
 5108TIP3    H115288   6.376   5.220   4.165
 5108TIP3    H215289   6.302   5.288   4.277
 5109TIP3   OH215290   6.117   3.326   3.803
 5109TIP3    H115291   6.172   3.367   3.869
 5109TIP3    H215292   6.164   3.338   3.721
 5110TIP3   OH215293   2.798   1.630   4.650
 5110TIP3    H115294   2.818   1.682   4.727
 5110TIP3    H215295   2.737   1.683   4.599
 5111TIP3   OH215296   0.494   0.411   2.384
 5111TIP3    H115297   0.530   0.496   2.358
 5111TIP3    H215298   0.556   0.378   2.449
 5112TIP3   OH215299   1.989   6.047   4.033
 5112TIP3    H115300   2.035   6.072   4.113
 5112TIP3    H215301   1.934   5.973   4.058
 5113TIP3   OH215302   3.291   3.395   5.146
 5113TIP3    H115303   3.325   3.475   5.106
 5113TIP3    H215304   3.318   3.401   5.238
 5114TIP3   OH215305   3.028   1.250   2.239
 5114TIP3    H115306   2.962   1.259   2.307
 5114TIP3    H215307   3.003   1.315   2.173
 5115TIP3   OH215308   2.645   0.931   1.365
 5115TIP3    H115309   2.732   0.911   1.399
 5115TIP3    H215310   2.650   1.022   1.336
 5116TIP3   OH215311   5.307   1.681   2.594
 5116TIP3    H115312   5.284   1.742   2.523
 5116TIP3    H215313   5.355   1.735   2.656
 5117TIP3   OH215314   3.619   1.901   5.316
 5117TIP3    H115315   3.651   1.849   5.390
 5117TIP3    H215316   3.572   1.973   5.357
 5118TIP3   OH215317   6.565   2.900   1.514
 5118TIP3    H115318   6.474   2.876   1.498
 5118TIP3    H215319   6.567   2.995   1.502
 5119TIP3   OH215320   7.004   2.792   0.188
 5119TIP3    H115321   6.951   2.729   0.139
 5119TIP3    H215322   6.943   2.859   0.215
 5120TIP3   OH215323   6.626   3.335   2.052
 5120TIP3    H115324   6.580   3.265   2.005
 5120TIP3    H215325   6.572   3.413   2.037
 5121TIP3   OH215326   0.339   0.020   5.452
 5121TIP3    H115327   0.349   0.029   5.357
 5121TIP3    H215328   0.398  -0.052   5.476
 5122TIP3   OH215329   5.868   3.212   3.839
 5122TIP3    H115330   5.814   3.282   3.804
 5122TIP3    H215331   5.957   3.249   3.842
 5123TIP3   OH215332   6.760   4.931   4.636
 5123TIP3    H115333   6.832   4.943   4.574
 5123TIP3    H215334   6.727   5.019   4.653
 5124TIP3   OH215335   5.225   3.332   3.088
 5124TIP3    H115336   5.237   3.293   3.175
 5124TIP3    H215337   5.300   3.391   3.078
 5125TIP3   OH215338   7.022   2.980   1.199
 5125TIP3    H115339   7.043   3.020   1.283
 5125TIP3    H215340   7.105   2.972   1.154
 5126TIP3   OH215341   1.531   4.577   2.902
 5126TIP3    H115342   1.622   4.548   2.915
 5126TIP3    H215343   1.488   4.561   2.986
 5127TIP3   OH215344   6.371   0.386   0.016
 5127TIP3    H115345   6.293   0.422   0.059
 5127TIP3    H215346   6.409   0.327   0.081
 5128TIP3   OH215347   2.353   2.841   0.073
 5128TIP3    H115348   2.345   2.841  -0.022
 5128TIP3    H215349   2.397   2.923   0.093
 5129TIP3   OH215350   5.745   3.073   5.122
 5129TIP3    H115351   5.805   3.000   5.138
 5129TIP3    H215352   5.693   3.044   5.047
 5130TIP3   OH215353   7.102   6.783   1.615
 5130TIP3    H115354   7.097   6.870   1.654
 5130TIP3    H215355   7.136   6.728   1.685
 5131TIP3   OH215356   4.016   1.687   1.385
 5131TIP3    H115357   3.938   1.741   1.391
 5131TIP3    H215358   4.054   1.710   1.300
 5132TIP3   OH215359   6.820   2.370   2.771
 5132TIP3    H115360   6.787   2.405   2.689
 5132TIP3    H215361   6.758   2.300   2.793
 5133TIP3   OH215362   5.034   2.073   3.085
 5133TIP3    H115363   4.951   2.041   3.119
 5133TIP3    H215364   5.014   2.101   2.996
 5134TIP3   OH215365   1.577   5.447   2.362
 5134TIP3    H115366   1.530   5.364   2.350
 5134TIP3    H215367   1.600   5.473   2.273
 5135TIP3   OH215368   6.630   6.461   1.815
 5135TIP3    H115369   6.585   6.501   1.741
 5135TIP3    H215370   6.723   6.470   1.793
 5136TIP3   OH215371   5.583   4.636   5.486
 5136TIP3    H115372   5.530   4.673   5.415
 5136TIP3    H215373   5.670   4.625   5.448
 5137TIP3   OH215374   4.383   1.659   3.418
 5137TIP3    H115375   4.302   1.615   3.445
 5137TIP3    H215376   4.452   1.597   3.438
 5138TIP3   OH215377   5.538   0.862   5.129
 5138TIP3    H115378   5.479   0.925   5.087
 5138TIP3    H215379   5.485   0.784   5.142
 5139TIP3   OH215380   3.482   6.159   3.503
 5139TIP3    H115381   3.539   6.085   3.485
 5139TIP3    H215382   3.516   6.230   3.448
 5140TIP3   OH215383   5.012   3.357   2.572
 5140TIP3    H115384   5.022   3.344   2.477
 5140TIP3    H215385   5.003   3.268   2.607
 5141TIP3   OH215386   3.895   6.387   0.768
 5141TIP3    H115387   3.854   6.317   0.818
 5141TIP3    H215388   3.989   6.372   0.778
 5142TIP3   OH215389   6.877   4.685   4.381
 5142TIP3    H115390   6.805   4.708   4.323
 5142TIP3    H215391   6.837   4.633   4.450
 5143TIP3   OH215392   3.393   0.979   2.138
 5143TIP3    H115393   3.337   0.907   2.108
 5143TIP3    H215394   3.477   0.938   2.157
 5144TIP3   OH215395   6.432   0.427   2.123
 5144TIP3    H115396   6.521   0.454   2.100
 5144TIP3    H215397   6.386   0.508   2.141
 5145TIP3   OH215398   4.155   5.070   5.567
 5145TIP3    H115399   4.071   5.103   5.598
 5145TIP3    H215400   4.141   5.049   5.475
 5146TIP3   OH215401   3.552   6.025   3.259
 5146TIP3    H115402   3.615   5.959   3.287
 5146TIP3    H215403   3.600   6.080   3.197
 5147TIP3   OH215404   4.230   0.845   4.943
 5147TIP3    H115405   4.181   0.793   5.008
 5147TIP3    H215406   4.247   0.783   4.872
 5148TIP3   OH215407   3.352   1.312   0.552
 5148TIP3    H115408   3.440   1.282   0.574
 5148TIP3    H215409   3.365   1.381   0.487
 5149TIP3   OH215410   6.531   4.421   4.268
 5149TIP3    H115411   6.608   4.465   4.231
 5149TIP3    H215412   6.567   4.370   4.341
 5150TIP3   OH215413   2.800   1.630   1.977
 5150TIP3    H115414   2.762   1.713   2.006
 5150TIP3    H215415   2.821   1.644   1.885
 5151TIP3   OH215416   2.108   0.849   3.474
 5151TIP3    H115417   2.038   0.816   3.417
 5151TIP3    H215418   2.176   0.783   3.469
 5152TIP3   OH215419   1.082   3.914   2.878
 5152TIP3    H115420   1.080   3.826   2.841
 5152TIP3    H215421   1.171   3.924   2.912
 5153TIP3   OH215422   6.343   1.074   0.813
 5153TIP3    H115423   6.394   1.020   0.873
 5153TIP3    H215424   6.396   1.153   0.800
 5154TIP3   OH215425   4.294   6.627   0.597
 5154TIP3    H115426   4.215   6.649   0.646
 5154TIP3    H215427   4.350   6.582   0.661
 5155TIP3   OH215428   2.966   0.740   3.265
 5155TIP3    H115429   3.043   0.788   3.295
 5155TIP3    H215430   2.994   0.696   3.185
 5156TIP3   OH215431   5.087   0.680   2.420
 5156TIP3    H115432   5.091   0.604   2.361
 5156TIP3    H215433   5.155   0.739   2.388
 5157TIP3   OH215434   5.292   1.213   1.982
 5157TIP3    H115435   5.264   1.140   2.038
 5157TIP3    H215436   5.217   1.273   1.982
 5158TIP3   OH215437   5.972   4.578   4.585
 5158TIP3    H115438   5.919   4.562   4.507
 5158TIP3    H215439   5.932   4.655   4.626
 5159TIP3   OH215440   1.728   3.286   3.288
 5159TIP3    H115441   1.636   3.280   3.313
 5159TIP3    H215442   1.732   3.245   3.201
 5160TIP3   OH215443   0.600   2.536   3.710
 5160TIP3    H115444   0.675   2.576   3.754
 5160TIP3    H215445   0.559   2.608   3.662
 5161TIP3   OH215446   1.362   3.583   2.754
 5161TIP3    H115447   1.340   3.531   2.832
 5161TIP3    H215448   1.411   3.522   2.699
 5162TIP3   OH215449   4.612   6.627   0.443
 5162TIP3    H115450   4.688   6.663   0.397
 5162TIP3    H215451   4.538   6.679   0.410
 5163TIP3   OH215452   6.328   1.523   3.761
 5163TIP3    H115453   6.284   1.475   3.830
 5163TIP3    H215454   6.407   1.558   3.803
 5164TIP3   OH215455   0.347   5.038   2.381
 5164TIP3    H115456   0.442   5.042   2.375
 5164TIP3    H215457   0.330   5.024   2.474
 5165TIP3   OH215458   5.902   5.142   1.304
 5165TIP3    H115459   5.861   5.171   1.223
 5165TIP3    H215460   5.915   5.222   1.356
 5166TIP3   OH215461   1.433   0.650   2.577
 5166TIP3    H115462   1.377   0.609   2.511
 5166TIP3    H215463   1.511   0.595   2.580
 5167TIP3   OH215464   5.437   4.960   5.192
 5167TIP3    H115465   5.488   4.946   5.112
 5167TIP3    H215466   5.363   5.013   5.164
 5168TIP3   OH215467   4.703   6.360   1.278
 5168TIP3    H115468   4.626   6.359   1.335
 5168TIP3    H215469   4.769   6.410   1.326
 5169TIP3   OH215470   0.204   5.867   1.952
 5169TIP3    H115471   0.169   5.936   1.896
 5169TIP3    H215472   0.135   5.851   2.017
 5170TIP3   OH215473   5.957   5.161   3.823
 5170TIP3    H115474   5.985   5.073   3.798
 5170TIP3    H215475   6.032   5.199   3.868
 5171TIP3   OH215476   1.404   6.799   4.502
 5171TIP3    H115477   1.308   6.796   4.495
 5171TIP3    H215478   1.424   6.740   4.574
 5172TIP3   OH215479   7.228   4.202   3.903
 5172TIP3    H115480   7.190   4.125   3.945
 5172TIP3    H215481   7.262   4.255   3.976
 5173TIP3   OH215482   3.805   0.740   1.966
 5173TIP3    H115483   3.837   0.668   2.022
 5173TIP3    H215484   3.835   0.717   1.878
 5174TIP3   OH215485   4.018   3.088   0.723
 5174TIP3    H115486   4.061   3.164   0.683
 5174TIP3    H215487   3.943   3.070   0.666
 5175TIP3   OH215488   5.427   5.256   3.635
 5175TIP3    H115489   5.471   5.240   3.551
 5175TIP3    H215490   5.338   5.221   3.622
 5176TIP3   OH215491   4.978   2.510   2.206
 5176TIP3    H115492   4.890   2.531   2.175
 5176TIP3    H215493   5.005   2.587   2.254
 5177TIP3   OH215494   4.282   5.752   0.091
 5177TIP3    H115495   4.282   5.752  -0.004
 5177TIP3    H215496   4.364   5.796   0.115
 5178TIP3   OH215497   3.246   2.867   2.017
 5178TIP3    H115498   3.339   2.889   2.027
 5178TIP3    H215499   3.227   2.812   2.093
 5179TIP3   OH215500   5.656   3.177   4.676
 5179TIP3    H115501   5.651   3.268   4.706
 5179TIP3    H215502   5.649   3.126   4.757
 5180TIP3   OH215503   6.403   3.588   1.800
 5180TIP3    H115504   6.407   3.561   1.709
 5180TIP3    H215505   6.340   3.659   1.802
 5181TIP3   OH215506   4.115   1.943   0.798
 5181TIP3    H115507   4.153   2.030   0.791
 5181TIP3    H215508   4.167   1.899   0.865
 5182TIP3   OH215509   4.139   1.916   3.918
 5182TIP3    H115510   4.050   1.887   3.896
 5182TIP3    H215511   4.196   1.863   3.862
 5183TIP3   OH215512   0.707   4.468   4.753
 5183TIP3    H115513   0.680   4.540   4.695
 5183TIP3    H215514   0.738   4.511   4.832
 5184TIP3   OH215515   3.124   3.762   0.812
 5184TIP3    H115516   3.128   3.803   0.726
 5184TIP3    H215517   3.101   3.671   0.794
 5185TIP3   OH215518   3.528   5.427   4.243
 5185TIP3    H115519   3.439   5.456   4.263
 5185TIP3    H215520   3.518   5.367   4.169
 5186TIP3   OH215521   3.297   1.678   3.552
 5186TIP3    H115522   3.280   1.621   3.627
 5186TIP3    H215523   3.255   1.634   3.478
 5187TIP3   OH215524   1.233   5.590   4.296
 5187TIP3    H115525   1.169   5.574   4.228
 5187TIP3    H215526   1.264   5.679   4.281
 5188TIP3   OH215527   4.930   1.339   2.670
 5188TIP3    H115528   4.891   1.259   2.705
 5188TIP3    H215529   4.970   1.382   2.745
 5189TIP3   OH215530   4.932   2.585   3.496
 5189TIP3    H115531   4.912   2.562   3.587
 5189TIP3    H215532   5.028   2.589   3.493
 5190TIP3   OH215533   6.853   0.562   5.210
 5190TIP3    H115534   6.779   0.502   5.216
 5190TIP3    H215535   6.849   0.612   5.292
 5191TIP3   OH215536   2.318   0.265   1.714
 5191TIP3    H115537   2.259   0.328   1.755
 5191TIP3    H215538   2.349   0.309   1.635
 5192TIP3   OH215539   1.129   2.174   5.540
 5192TIP3    H115540   1.196   2.111   5.565
 5192TIP3    H215541   1.048   2.124   5.537
 5193TIP3   OH215542   3.659   6.055   0.134
 5193TIP3    H115543   3.567   6.075   0.119
 5193TIP3    H215544   3.694   6.034   0.048
 5194TIP3   OH215545   2.087   5.552   0.347
 5194TIP3    H115546   2.140   5.626   0.318
 5194TIP3    H215547   2.124   5.477   0.301
 5195TIP3   OH215548   0.771   2.692   2.122
 5195TIP3    H115549   0.743   2.780   2.095
 5195TIP3    H215550   0.707   2.666   2.188
 5196TIP3   OH215551   5.667   6.691   0.686
 5196TIP3    H115552   5.668   6.787   0.688
 5196TIP3    H215553   5.745   6.666   0.736
 5197TIP3   OH215554   6.060   0.585   2.620
 5197TIP3    H115555   5.967   0.564   2.605
 5197TIP3    H215556   6.091   0.617   2.535
 5198TIP3   OH215557   4.769   2.231   2.807
 5198TIP3    H115558   4.730   2.207   2.891
 5198TIP3    H215559   4.729   2.315   2.785
 5199TIP3   OH215560   0.785   2.308   4.976
 5199TIP3    H115561   0.827   2.387   4.942
 5199TIP3    H215562   0.856   2.254   5.007
 5200TIP3   OH215563   4.249   2.143   4.671
 5200TIP3    H115564   4.171   2.126   4.724
 5200TIP3    H215565   4.233   2.095   4.590
 5201TIP3   OH215566   3.069   6.340   4.274
 5201TIP3    H115567   3.100   6.259   4.315
 5201TIP3    H215568   2.985   6.358   4.318
 5202TIP3   OH215569   3.725   3.016   5.457
 5202TIP3    H115570   3.679   3.023   5.540
 5202TIP3    H215571   3.656   2.998   5.393
 5203TIP3   OH215572   1.787   4.538   3.042
 5203TIP3    H115573   1.860   4.476   3.046
 5203TIP3    H215574   1.761   4.550   3.133
 5204TIP3   OH215575   5.752   2.754   4.019
 5204TIP3    H115576   5.834   2.791   4.052
 5204TIP3    H215577   5.685   2.818   4.043
 5205TIP3   OH215578   4.455   5.624   4.677
 5205TIP3    H115579   4.493   5.697   4.727
 5205TIP3    H215580   4.519   5.607   4.608
 5206TIP3   OH215581   1.423   6.329   0.404
 5206TIP3    H115582   1.362   6.393   0.368
 5206TIP3    H215583   1.415   6.253   0.347
 5207TIP3   OH215584   3.334   3.388   2.580
 5207TIP3    H115585   3.317   3.480   2.600
 5207TIP3    H215586   3.310   3.341   2.660
 5208TIP3   OH215587   2.825   5.698   5.487
 5208TIP3    H115588   2.828   5.775   5.431
 5208TIP3    H215589   2.780   5.632   5.435
 5209TIP3   OH215590   5.079   0.668   5.487
 5209TIP3    H115591   5.133   0.617   5.548
 5209TIP3    H215592   5.108   0.758   5.499
 5210TIP3   OH215593   1.115   5.508   4.527
 5210TIP3    H115594   1.116   5.412   4.526
 5210TIP3    H215595   1.138   5.533   4.437
 5211TIP3   OH215596   1.084   2.426   0.309
 5211TIP3    H115597   1.078   2.331   0.314
 5211TIP3    H215598   1.068   2.456   0.399
 5212TIP3   OH215599   4.237   4.257   3.010
 5212TIP3    H115600   4.206   4.242   3.099
 5212TIP3    H215601   4.157   4.257   2.957
 5213TIP3   OH215602   6.987   0.536   2.455
 5213TIP3    H115603   7.064   0.541   2.512
 5213TIP3    H215604   6.953   0.448   2.468
 5214TIP3   OH215605   3.887   4.101   1.352
 5214TIP3    H115606   3.950   4.093   1.423
 5214TIP3    H215607   3.937   4.084   1.272
 5215TIP3   OH215608   3.346   2.464   5.717
 5215TIP3    H115609   3.351   2.418   5.634
 5215TIP3    H215610   3.258   2.501   5.719
 5216TIP3   OH215611   5.485   4.995   3.328
 5216TIP3    H115612   5.516   5.079   3.362
 5216TIP3    H215613   5.401   4.982   3.372
 5217TIP3   OH215614   0.472   3.613   2.713
 5217TIP3    H115615   0.525   3.684   2.676
 5217TIP3    H215616   0.527   3.535   2.704
 5218TIP3   OH215617   1.209   3.129   2.246
 5218TIP3    H115618   1.215   3.061   2.312
 5218TIP3    H215619   1.298   3.161   2.235
 5219TIP3   OH215620   3.831   4.009   2.611
 5219TIP3    H115621   3.787   4.075   2.664
 5219TIP3    H215622   3.875   3.952   2.674
 5220TIP3   OH215623  -0.001   4.691   4.612
 5220TIP3    H115624   0.076   4.661   4.660
 5220TIP3    H215625  -0.024   4.619   4.554
 5221TIP3   OH215626   4.279   0.595   3.174
 5221TIP3    H115627   4.184   0.600   3.189
 5221TIP3    H215628   4.293   0.510   3.132
 5222TIP3   OH215629   2.627   1.979   4.980
 5222TIP3    H115630   2.625   2.035   4.902
 5222TIP3    H215631   2.618   2.040   5.053
 5223TIP3   OH215632   1.035   4.507   3.845
 5223TIP3    H115633   1.066   4.506   3.755
 5223TIP3    H215634   1.009   4.416   3.862
 5224TIP3   OH215635   1.107   3.122   3.898
 5224TIP3    H115636   1.170   3.155   3.834
 5224TIP3    H215637   1.150   3.045   3.935
 5225TIP3   OH215638   3.275   6.738   4.648
 5225TIP3    H115639   3.244   6.720   4.737
 5225TIP3    H215640   3.329   6.816   4.657
 5226TIP3   OH215641   2.431   4.335   5.255
 5226TIP3    H115642   2.368   4.394   5.214
 5226TIP3    H215643   2.493   4.314   5.184
 5227TIP3   OH215644   3.244   0.959   1.483
 5227TIP3    H115645   3.189   1.031   1.512
 5227TIP3    H215646   3.233   0.957   1.388
 5228TIP3   OH215647   3.873   1.910   1.501
 5228TIP3    H115648   3.920   1.937   1.580
 5228TIP3    H215649   3.782   1.931   1.519
 5229TIP3   OH215650   1.544   0.219   1.789
 5229TIP3    H115651   1.557   0.239   1.696
 5229TIP3    H215652   1.528   0.125   1.791
 5230TIP3   OH215653   7.216   6.120   0.479
 5230TIP3    H115654   7.212   6.202   0.430
 5230TIP3    H215655   7.306   6.090   0.470
 5231TIP3   OH215656   6.945   0.874   3.747
 5231TIP3    H115657   6.860   0.872   3.704
 5231TIP3    H215658   6.937   0.811   3.819
 5232TIP3   OH215659   0.523   5.775   2.555
 5232TIP3    H115660   0.604   5.826   2.560
 5232TIP3    H215661   0.522   5.740   2.466
 5233TIP3   OH215662   1.818   1.636   1.164
 5233TIP3    H115663   1.766   1.652   1.243
 5233TIP3    H215664   1.892   1.582   1.194
 5234TIP3   OH215665   5.993   6.246   0.105
 5234TIP3    H115666   5.962   6.332   0.135
 5234TIP3    H215667   5.914   6.194   0.094
 5235TIP3   OH215668   4.320   3.346   5.043
 5235TIP3    H115669   4.387   3.328   4.976
 5235TIP3    H215670   4.279   3.428   5.014
 5236TIP3   OH215671   0.046   1.854   4.837
 5236TIP3    H115672   0.136   1.828   4.857
 5236TIP3    H215673   0.001   1.773   4.814
 5237TIP3   OH215674   7.047   3.440   5.644
 5237TIP3    H115675   7.014   3.357   5.679
 5237TIP3    H215676   7.050   3.427   5.549
 5238TIP3   OH215677   7.173   4.956   2.382
 5238TIP3    H115678   7.253   4.905   2.371
 5238TIP3    H215679   7.138   4.966   2.293
 5239TIP3   OH215680   1.559   1.911   0.945
 5239TIP3    H115681   1.545   1.818   0.925
 5239TIP3    H215682   1.545   1.918   1.039
 5240TIP3   OH215683   5.720   4.779   2.314
 5240TIP3    H115684   5.778   4.739   2.250
 5240TIP3    H215685   5.773   4.847   2.356
 5241TIP3   OH215686   4.952   1.730   0.499
 5241TIP3    H115687   4.918   1.697   0.582
 5241TIP3    H215688   5.047   1.735   0.513
 5242TIP3   OH215689   2.787   2.928   0.428
 5242TIP3    H115690   2.701   2.964   0.406
 5242TIP3    H215691   2.849   2.981   0.379
 5243TIP3   OH215692   6.499   1.640   2.015
 5243TIP3    H115693   6.441   1.587   1.960
 5243TIP3    H215694   6.543   1.699   1.954
 5244TIP3   OH215695   2.062   0.737   1.647
 5244TIP3    H115696   2.091   0.783   1.725
 5244TIP3    H215697   1.980   0.780   1.622
 5245TIP3   OH215698   4.432   5.441   3.321
 5245TIP3    H115699   4.397   5.530   3.309
 5245TIP3    H215700   4.367   5.397   3.375
 5246TIP3   OH215701   6.484   4.887   0.120
 5246TIP3    H115702   6.529   4.904   0.038
 5246TIP3    H215703   6.439   4.804   0.105
 5247TIP3   OH215704   5.624   1.202   5.367
 5247TIP3    H115705   5.657   1.257   5.438
 5247TIP3    H215706   5.545   1.161   5.404
 5248TIP3   OH215707   1.564   5.529   4.133
 5248TIP3    H115708   1.604   5.583   4.201
 5248TIP3    H215709   1.569   5.440   4.167
 5249TIP3   OH215710   4.628   3.079   4.672
 5249TIP3    H115711   4.644   3.022   4.747
 5249TIP3    H215712   4.715   3.101   4.639
 5250TIP3   OH215713   5.328   1.726   1.616
 5250TIP3    H115714   5.259   1.791   1.599
 5250TIP3    H215715   5.302   1.683   1.697
 5251TIP3   OH215716   3.696   5.499   2.382
 5251TIP3    H115717   3.719   5.562   2.450
 5251TIP3    H215718   3.781   5.469   2.348
 5252TIP3   OH215719   0.310   4.565   1.160
 5252TIP3    H115720   0.236   4.613   1.123
 5252TIP3    H215721   0.271   4.513   1.231
 5253TIP3   OH215722   6.300   0.629   1.153
 5253TIP3    H115723   6.235   0.698   1.168
 5253TIP3    H215724   6.256   0.548   1.179
 5254TIP3   OH215725   2.775   0.113   4.704
 5254TIP3    H115726   2.828   0.090   4.627
 5254TIP3    H215727   2.819   0.070   4.777
 5255TIP3   OH215728   2.666   2.272   2.641
 5255TIP3    H115729   2.581   2.315   2.655
 5255TIP3    H215730   2.671   2.260   2.546
 5256TIP3   OH215731   2.661   6.029   2.293
 5256TIP3    H115732   2.612   5.994   2.219
 5256TIP3    H215733   2.712   5.955   2.325
 5257TIP3   OH215734   5.611   3.994   2.088
 5257TIP3    H115735   5.559   4.033   2.017
 5257TIP3    H215736   5.574   3.906   2.099
 5258TIP3   OH215737   5.932   4.946   2.336
 5258TIP3    H115738   5.936   5.031   2.380
 5258TIP3    H215739   6.016   4.905   2.356
 5259TIP3   OH215740   3.000   2.830   3.653
 5259TIP3    H115741   3.082   2.856   3.695
 5259TIP3    H215742   2.946   2.909   3.656
 5260TIP3   OH215743   2.295   3.205   0.650
 5260TIP3    H115744   2.377   3.198   0.601
 5260TIP3    H215745   2.277   3.116   0.679
 5261TIP3   OH215746   0.358   5.404   4.733
 5261TIP3    H115747   0.395   5.316   4.726
 5261TIP3    H215748   0.395   5.440   4.814
 5262TIP3   OH215749   3.702   2.371   0.167
 5262TIP3    H115750   3.707   2.288   0.216
 5262TIP3    H215751   3.609   2.393   0.165
 5263TIP3   OH215752   5.146   2.100   0.968
 5263TIP3    H115753   5.118   2.174   1.021
 5263TIP3    H215754   5.225   2.131   0.923
 5264TIP3   OH215755   6.510   4.165   4.881
 5264TIP3    H115756   6.506   4.238   4.819
 5264TIP3    H215757   6.426   4.120   4.870
 5265TIP3   OH215758   6.309   4.722   4.058
 5265TIP3    H115759   6.390   4.741   4.107
 5265TIP3    H215760   6.321   4.767   3.975
 5266TIP3   OH215761   1.755   3.679   4.492
 5266TIP3    H115762   1.810   3.723   4.557
 5266TIP3    H215763   1.812   3.667   4.416
 5267TIP3   OH215764   1.776   6.808   0.832
 5267TIP3    H115765   1.865   6.820   0.865
 5267TIP3    H215766   1.765   6.714   0.825
 5268TIP3   OH215767   0.414   5.022   4.985
 5268TIP3    H115768   0.328   5.063   4.991
 5268TIP3    H215769   0.444   5.015   5.075
 5269TIP3   OH215770   1.059   2.475   3.898
 5269TIP3    H115771   1.100   2.553   3.859
 5269TIP3    H215772   1.116   2.403   3.873
 5270TIP3   OH215773   3.874   6.250   0.401
 5270TIP3    H115774   3.823   6.183   0.446
 5270TIP3    H215775   3.811   6.318   0.378
 5271TIP3   OH215776   2.847   6.043   1.900
 5271TIP3    H115777   2.756   6.017   1.913
 5271TIP3    H215778   2.857   6.053   1.805
 5272TIP3   OH215779   2.589   5.561   3.376
 5272TIP3    H115780   2.573   5.654   3.361
 5272TIP3    H215781   2.606   5.554   3.470
 5273TIP3   OH215782   6.383   1.529   2.849
 5273TIP3    H115783   6.440   1.494   2.918
 5273TIP3    H215784   6.320   1.584   2.896
 5274TIP3   OH215785   3.750   5.277   4.013
 5274TIP3    H115786   3.678   5.337   3.998
 5274TIP3    H215787   3.805   5.321   4.078
 5275TIP3   OH215788   1.394   4.693   0.721
 5275TIP3    H115789   1.463   4.757   0.704
 5275TIP3    H215790   1.428   4.611   0.685
 5276TIP3   OH215791   1.636   5.940   2.021
 5276TIP3    H115792   1.597   6.024   2.043
 5276TIP3    H215793   1.598   5.916   1.937
 5277TIP3   OH215794   4.332   5.183   3.826
 5277TIP3    H115795   4.252   5.235   3.817
 5277TIP3    H215796   4.366   5.176   3.737
 5278TIP3   OH215797   3.068   3.253   2.368
 5278TIP3    H115798   3.075   3.345   2.395
 5278TIP3    H215799   2.975   3.233   2.376
 5279TIP3   OH215800   1.364   1.234   3.515
 5279TIP3    H115801   1.380   1.188   3.597
 5279TIP3    H215802   1.386   1.170   3.447
 5280TIP3   OH215803   1.169   1.577   1.993
 5280TIP3    H115804   1.124   1.504   1.951
 5280TIP3    H215805   1.262   1.563   1.972
 5281TIP3   OH215806   4.769   6.483   5.073
 5281TIP3    H115807   4.747   6.524   4.989
 5281TIP3    H215808   4.684   6.458   5.111
 5282TIP3   OH215809   6.273   4.199   1.697
 5282TIP3    H115810   6.300   4.290   1.687
 5282TIP3    H215811   6.323   4.152   1.630
 5283TIP3   OH215812   4.551   5.488   2.307
 5283TIP3    H115813   4.473   5.436   2.327
 5283TIP3    H215814   4.549   5.498   2.212
 5284TIP3   OH215815   3.551   5.625   0.693
 5284TIP3    H115816   3.600   5.641   0.612
 5284TIP3    H215817   3.472   5.578   0.664
 5285TIP3   OH215818   2.544   1.363   4.120
 5285TIP3    H115819   2.493   1.286   4.094
 5285TIP3    H215820   2.484   1.437   4.108
 5286TIP3   OH215821   3.555   3.873   1.285
 5286TIP3    H115822   3.504   3.934   1.231
 5286TIP3    H215823   3.589   3.928   1.356
 5287TIP3   OH215824   0.784   2.418   5.289
 5287TIP3    H115825   0.700   2.450   5.255
 5287TIP3    H215826   0.809   2.483   5.355
 5288TIP3   OH215827   1.248   5.040   3.150
 5288TIP3    H115828   1.223   5.096   3.076
 5288TIP3    H215829   1.342   5.028   3.141
 5289TIP3   OH215830   3.776   2.566   3.522
 5289TIP3    H115831   3.761   2.580   3.428
 5289TIP3    H215832   3.799   2.653   3.555
 5290TIP3   OH215833   2.108   4.743   1.325
 5290TIP3    H115834   2.123   4.820   1.270
 5290TIP3    H215835   2.056   4.685   1.271
 5291TIP3   OH215836   3.800   0.146   2.362
 5291TIP3    H115837   3.711   0.162   2.330
 5291TIP3    H215838   3.828   0.230   2.397
 5292TIP3   OH215839   1.899   4.475   5.036
 5292TIP3    H115840   1.954   4.404   5.069
 5292TIP3    H215841   1.810   4.447   5.054
 5293TIP3   OH215842   4.654   3.185   2.462
 5293TIP3    H115843   4.573   3.136   2.449
 5293TIP3    H215844   4.713   3.124   2.507
 5294TIP3   OH215845   7.044   4.835   4.795
 5294TIP3    H115846   7.088   4.829   4.710
 5294TIP3    H215847   7.028   4.928   4.807
 5295TIP3   OH215848   4.857   1.152   2.000
 5295TIP3    H115849   4.900   1.209   1.937
 5295TIP3    H215850   4.901   1.068   1.991
 5296TIP3   OH215851   3.301   1.264   0.251
 5296TIP3    H115852   3.308   1.285   0.344
 5296TIP3    H215853   3.208   1.246   0.237
 5297TIP3   OH215854   2.252   2.963   2.289
 5297TIP3    H115855   2.211   2.958   2.203
 5297TIP3    H215856   2.227   3.049   2.322
 5298TIP3   OH215857   2.959   1.403   3.906
 5298TIP3    H115858   2.938   1.466   3.974
 5298TIP3    H215859   2.878   1.395   3.855
 5299TIP3   OH215860   2.261   0.266   0.215
 5299TIP3    H115861   2.175   0.231   0.194
 5299TIP3    H215862   2.311   0.191   0.247
 5300TIP3   OH215863   7.124   0.225   2.847
 5300TIP3    H115864   7.040   0.271   2.856
 5300TIP3    H215865   7.121   0.187   2.759
 5301TIP3   OH215866   0.950   5.016   5.388
 5301TIP3    H115867   0.961   4.924   5.367
 5301TIP3    H215868   0.889   5.049   5.322
 5302TIP3   OH215869   3.837   4.651   5.373
 5302TIP3    H115870   3.773   4.652   5.445
 5302TIP3    H215871   3.783   4.637   5.294
 5303TIP3   OH215872   4.995   3.521   2.808
 5303TIP3    H115873   4.935   3.494   2.877
 5303TIP3    H215874   4.990   3.451   2.743
 5304TIP3   OH215875   1.948   2.504   2.564
 5304TIP3    H115876   1.959   2.486   2.470
 5304TIP3    H215877   1.913   2.593   2.567
 5305TIP3   OH215878   3.353   1.881   4.901
 5305TIP3    H115879   3.399   1.965   4.899
 5305TIP3    H215880   3.266   1.902   4.937
 5306TIP3   OH215881   5.623   5.958   0.383
 5306TIP3    H115882   5.581   5.915   0.309
 5306TIP3    H215883   5.578   5.923   0.460
 5307TIP3   OH215884   4.974   4.343   1.703
 5307TIP3    H115885   5.029   4.391   1.641
 5307TIP3    H215886   4.920   4.411   1.745
 5308TIP3   OH215887   5.843   3.394   2.998
 5308TIP3    H115888   5.845   3.300   3.018
 5308TIP3    H215889   5.847   3.437   3.084
 5309TIP3   OH215890   2.555   2.385   5.049
 5309TIP3    H115891   2.630   2.416   4.997
 5309TIP3    H215892   2.493   2.458   5.048
 5310TIP3   OH215893   0.485   4.657   0.952
 5310TIP3    H115894   0.407   4.627   0.999
 5310TIP3    H215895   0.542   4.694   1.020
 5311TIP3   OH215896   2.254   3.188   5.744
 5311TIP3    H115897   2.248   3.094   5.730
 5311TIP3    H215898   2.217   3.202   5.832
 5312TIP3   OH215899   0.651   2.751   2.730
 5312TIP3    H115900   0.718   2.734   2.664
 5312TIP3    H215901   0.657   2.678   2.790
 5313TIP3   OH215902   0.436   5.418   4.015
 5313TIP3    H115903   0.365   5.433   4.078
 5313TIP3    H215904   0.417   5.331   3.978
 5314TIP3   OH215905   7.012   3.319   1.615
 5314TIP3    H115906   6.930   3.366   1.606
 5314TIP3    H215907   7.039   3.335   1.706
 5315TIP3   OH215908   3.041   0.627   4.542
 5315TIP3    H115909   2.998   0.562   4.487
 5315TIP3    H215910   2.974   0.692   4.560
 5316TIP3   OH215911   3.504   2.061   5.487
 5316TIP3    H115912   3.596   2.084   5.499
 5316TIP3    H215913   3.483   2.004   5.561
 5317TIP3   OH215914   5.040   5.839   2.219
 5317TIP3    H115915   5.048   5.829   2.313
 5317TIP3    H215916   5.002   5.756   2.189
 5318TIP3   OH215917   0.682   6.589   4.364
 5318TIP3    H115918   0.589   6.578   4.347
 5318TIP3    H215919   0.688   6.660   4.428
 5319TIP3   OH215920   3.925   3.343   3.269
 5319TIP3    H115921   3.941   3.277   3.336
 5319TIP3    H215922   3.834   3.368   3.281
 5320TIP3   OH215923   1.209   5.294   3.604
 5320TIP3    H115924   1.187   5.347   3.527
 5320TIP3    H215925   1.180   5.206   3.581
 5321TIP3   OH215926   2.719   4.318   3.434
 5321TIP3    H115927   2.674   4.244   3.393
 5321TIP3    H215928   2.681   4.323   3.522
 5322TIP3   OH215929   2.322   3.217   3.843
 5322TIP3    H115930   2.335   3.308   3.816
 5322TIP3    H215931   2.313   3.168   3.761
 5323TIP3   OH215932   2.018   5.040   3.322
 5323TIP3    H115933   2.094   5.076   3.277
 5323TIP3    H215934   2.021   4.946   3.302
 5324TIP3   OH215935   5.847   0.468   4.223
 5324TIP3    H115936   5.913   0.439   4.160
 5324TIP3    H215937   5.896   0.483   4.304
 5325TIP3   OH215938   6.329   5.391   2.607
 5325TIP3    H115939   6.327   5.484   2.632
 5325TIP3    H215940   6.267   5.349   2.667
 5326TIP3   OH215941   1.432   3.487   0.557
 5326TIP3    H115942   1.353   3.460   0.509
 5326TIP3    H215943   1.409   3.571   0.595
 5327TIP3   OH215944   5.449   4.809   1.572
 5327TIP3    H115945   5.398   4.736   1.606
 5327TIP3    H215946   5.528   4.768   1.536
 5328TIP3   OH215947   2.008   2.042   0.391
 5328TIP3    H115948   2.031   2.098   0.317
 5328TIP3    H215949   2.046   1.957   0.369
 5329TIP3   OH215950   4.604   5.576   0.816
 5329TIP3    H115951   4.563   5.636   0.879
 5329TIP3    H215952   4.558   5.493   0.828
 5330TIP3   OH215953   3.025   2.146   2.991
 5330TIP3    H115954   2.961   2.079   3.013
 5330TIP3    H215955   2.989   2.190   2.914
 5331TIP3   OH215956   5.617   6.372   2.883
 5331TIP3    H115957   5.536   6.377   2.832
 5331TIP3    H215958   5.681   6.423   2.832
 5332TIP3   OH215959   3.639   0.478   2.463
 5332TIP3    H115960   3.690   0.438   2.392
 5332TIP3    H215961   3.658   0.423   2.539
 5333TIP3   OH215962   0.929   5.544   3.284
 5333TIP3    H115963   0.885   5.487   3.220
 5333TIP3    H215964   1.015   5.561   3.246
 5334TIP3   OH215965   1.072   1.541   1.435
 5334TIP3    H115966   1.080   1.538   1.340
 5334TIP3    H215967   1.072   1.450   1.462
 5335TIP3   OH215968   4.876   6.055   2.225
 5335TIP3    H115969   4.934   5.982   2.202
 5335TIP3    H215970   4.876   6.056   2.321
 5336TIP3   OH215971   2.988   5.979   2.132
 5336TIP3    H115972   2.927   5.992   2.059
 5336TIP3    H215973   3.023   6.066   2.150
 5337TIP3   OH215974   7.015   0.952   5.826
 5337TIP3    H115975   7.086   0.970   5.764
 5337TIP3    H215976   6.981   1.039   5.848
 5338TIP3   OH215977   6.102   0.834   3.292
 5338TIP3    H115978   6.055   0.806   3.370
 5338TIP3    H215979   6.101   0.929   3.296
 5339TIP3   OH215980   4.615   4.642   4.230
 5339TIP3    H115981   4.688   4.581   4.238
 5339TIP3    H215982   4.600   4.649   4.136
 5340TIP3   OH215983   6.012   1.457   5.770
 5340TIP3    H115984   5.997   1.423   5.858
 5340TIP3    H215985   6.107   1.464   5.763
 5341TIP3   OH215986   0.703   6.568   2.207
 5341TIP3    H115987   0.741   6.514   2.276
 5341TIP3    H215988   0.768   6.567   2.137
 5342TIP3   OH215989   1.998   1.882   4.311
 5342TIP3    H115990   2.014   1.788   4.303
 5342TIP3    H215991   2.013   1.916   4.222
 5343TIP3   OH215992   5.082   2.700   4.240
 5343TIP3    H115993   5.125   2.665   4.162
 5343TIP3    H215994   5.000   2.738   4.207
 5344TIP3   OH215995   3.463   3.930   3.158
 5344TIP3    H115996   3.534   3.889   3.109
 5344TIP3    H215997   3.479   4.024   3.150
 5345TIP3   OH215998   0.902   2.385   2.735
 5345TIP3    H115999   0.996   2.398   2.725
 5345TIP3    H216000   0.894   2.321   2.806
 5346TIP3   OH216001   2.248   5.762   3.298
 5346TIP3    H116002   2.236   5.849   3.338
 5346TIP3    H216003   2.175   5.710   3.331
 5347TIP3   OH216004   5.927   2.404   2.422
 5347TIP3    H116005   5.977   2.324   2.442
 5347TIP3    H216006   5.861   2.409   2.491
 5348TIP3   OH216007   7.148   6.119   4.931
 5348TIP3    H116008   7.220   6.177   4.955
 5348TIP3    H216009   7.069   6.169   4.950
 5349TIP3   OH216010   6.760   2.603   3.897
 5349TIP3    H116011   6.735   2.558   3.977
 5349TIP3    H216012   6.782   2.533   3.836
 5350TIP3   OH216013   7.019   5.203   1.651
 5350TIP3    H116014   7.094   5.153   1.681
 5350TIP3    H216015   7.020   5.194   1.555
 5351TIP3   OH216016   0.970   1.813   4.688
 5351TIP3    H116017   0.933   1.805   4.600
 5351TIP3    H216018   1.027   1.890   4.684
 5352TIP3   OH216019   2.184   2.128   5.630
 5352TIP3    H116020   2.249   2.191   5.599
 5352TIP3    H216021   2.130   2.109   5.553
 5353TIP3   OH216022   5.505   5.742   0.750
 5353TIP3    H116023   5.496   5.761   0.657
 5353TIP3    H216024   5.528   5.649   0.754
 5354TIP3   OH216025   6.391   2.304   2.157
 5354TIP3    H116026   6.441   2.298   2.076
 5354TIP3    H216027   6.364   2.396   2.162
 5355TIP3   OH216028   1.783   0.878   4.230
 5355TIP3    H116029   1.712   0.928   4.271
 5355TIP3    H216030   1.747   0.847   4.147
 5356TIP3   OH216031   3.147   0.734   5.765
 5356TIP3    H116032   3.078   0.788   5.805
 5356TIP3    H216033   3.228   0.781   5.784
 5357TIP3   OH216034   4.016   3.839   2.737
 5357TIP3    H116035   4.059   3.829   2.822
 5357TIP3    H216036   4.086   3.833   2.673
 5358TIP3   OH216037   6.877   2.089   3.267
 5358TIP3    H116038   6.928   2.164   3.299
 5358TIP3    H216039   6.825   2.124   3.195
 5359TIP3   OH216040   7.211   3.682   1.843
 5359TIP3    H116041   7.139   3.619   1.844
 5359TIP3    H216042   7.246   3.676   1.754
 5360TIP3   OH216043   2.213   3.226   1.603
 5360TIP3    H116044   2.163   3.186   1.674
 5360TIP3    H216045   2.180   3.315   1.597
 5361TIP3   OH216046   5.016   5.250   0.710
 5361TIP3    H116047   5.040   5.229   0.801
 5361TIP3    H216048   4.960   5.328   0.718
 5362TIP3   OH216049   0.515   4.680   5.401
 5362TIP3    H116050   0.432   4.716   5.370
 5362TIP3    H216051   0.513   4.588   5.373
 5363TIP3   OH216052   6.445   3.198   1.023
 5363TIP3    H116053   6.439   3.136   0.950
 5363TIP3    H216054   6.536   3.224   1.025
 5364TIP3   OH216055   4.873   1.552   5.645
 5364TIP3    H116056   4.779   1.566   5.639
 5364TIP3    H216057   4.890   1.478   5.587
 5365TIP3   OH216058   1.482   4.409   4.556
 5365TIP3    H116059   1.533   4.448   4.485
 5365TIP3    H216060   1.405   4.371   4.512
 5366TIP3   OH216061   4.300   4.803   2.993
 5366TIP3    H116062   4.258   4.876   3.036
 5366TIP3    H216063   4.348   4.758   3.063
 5367TIP3   OH216064   3.694   3.334   4.079
 5367TIP3    H116065   3.726   3.254   4.121
 5367TIP3    H216066   3.673   3.307   3.990
 5368TIP3   OH216067   4.297   1.918   5.024
 5368TIP3    H116068   4.216   1.948   4.984
 5368TIP3    H216069   4.310   1.830   4.989
 5369TIP3   OH216070   4.749   6.244   5.534
 5369TIP3    H116071   4.687   6.199   5.592
 5369TIP3    H216072   4.799   6.173   5.493
 5370TIP3   OH216073   2.016   2.727   1.141
 5370TIP3    H116074   2.004   2.814   1.104
 5370TIP3    H216075   2.027   2.741   1.235
 5371TIP3   OH216076   4.657   5.960   5.359
 5371TIP3    H116077   4.577   5.961   5.412
 5371TIP3    H216078   4.727   5.946   5.423
 5372TIP3   OH216079   2.979   0.266   5.185
 5372TIP3    H116080   3.072   0.254   5.167
 5372TIP3    H216081   2.965   0.226   5.271
 5373TIP3   OH216082   4.464   4.412   1.100
 5373TIP3    H116083   4.477   4.446   1.011
 5373TIP3    H216084   4.431   4.487   1.150
 5374TIP3   OH216085   6.564   1.486   3.081
 5374TIP3    H116086   6.576   1.443   3.166
 5374TIP3    H216087   6.623   1.561   3.084
 5375TIP3   OH216088   6.000   2.239   4.130
 5375TIP3    H116089   5.924   2.195   4.093
 5375TIP3    H216090   5.966   2.321   4.165
 5376TIP3   OH216091   7.042   1.383   2.575
 5376TIP3    H116092   7.112   1.369   2.639
 5376TIP3    H216093   7.019   1.295   2.546
 5377TIP3   OH216094   0.422   2.310   3.355
 5377TIP3    H116095   0.381   2.236   3.399
 5377TIP3    H216096   0.516   2.292   3.360
 5378TIP3   OH216097   6.846   2.131   3.687
 5378TIP3    H116098   6.794   2.160   3.611
 5378TIP3    H216099   6.905   2.065   3.651
 5379TIP3   OH216100   7.041   5.079   3.667
 5379TIP3    H116101   6.966   5.091   3.609
 5379TIP3    H216102   7.012   5.112   3.752
 5380TIP3   OH216103   3.641   0.115   1.543
 5380TIP3    H116104   3.670   0.051   1.478
 5380TIP3    H216105   3.715   0.122   1.604
 5381TIP3   OH216106   6.104   2.931   2.265
 5381TIP3    H116107   6.054   2.914   2.185
 5381TIP3    H216108   6.125   2.843   2.299
 5382TIP3   OH216109   0.894   5.390   5.140
 5382TIP3    H116110   0.817   5.445   5.156
 5382TIP3    H216111   0.860   5.313   5.095
 5383TIP3   OH216112   1.490   5.081   2.999
 5383TIP3    H116113   1.544   5.020   2.948
 5383TIP3    H216114   1.508   5.166   2.961
 5384TIP3   OH216115   5.203   4.278   0.217
 5384TIP3    H116116   5.247   4.264   0.301
 5384TIP3    H216117   5.122   4.324   0.240
 5385TIP3   OH216118   4.177   3.905   0.927
 5385TIP3    H116119   4.157   3.827   0.978
 5385TIP3    H216120   4.269   3.896   0.904
 5386TIP3   OH216121   2.382   1.377   3.872
 5386TIP3    H116122   2.408   1.285   3.868
 5386TIP3    H216123   2.379   1.406   3.781
 5387TIP3   OH216124   5.378   6.690   0.337
 5387TIP3    H116125   5.286   6.691   0.313
 5387TIP3    H216126   5.382   6.636   0.416
 5388TIP3   OH216127   6.555   0.282   3.321
 5388TIP3    H116128   6.518   0.269   3.408
 5388TIP3    H216129   6.610   0.360   3.329
 5389TIP3   OH216130   6.311   2.364   4.142
 5389TIP3    H116131   6.286   2.302   4.073
 5389TIP3    H216132   6.369   2.314   4.199
 5390TIP3   OH216133   0.726   5.686   0.479
 5390TIP3    H116134   0.661   5.621   0.451
 5390TIP3    H216135   0.678   5.768   0.481
 5391TIP3   OH216136   6.408   6.253   3.679
 5391TIP3    H116137   6.447   6.185   3.734
 5391TIP3    H216138   6.397   6.210   3.594
 5392TIP3   OH216139   4.102   5.522   4.008
 5392TIP3    H116140   4.031   5.580   4.036
 5392TIP3    H216141   4.178   5.550   4.059
 5393TIP3   OH216142   3.420   1.516   2.549
 5393TIP3    H116143   3.424   1.611   2.561
 5393TIP3    H216144   3.339   1.501   2.500
 5394TIP3   OH216145   6.857   1.218   4.039
 5394TIP3    H116146   6.922   1.213   3.969
 5394TIP3    H216147   6.774   1.200   3.995
 5395TIP3   OH216148   0.931   3.268   5.346
 5395TIP3    H116149   0.896   3.266   5.435
 5395TIP3    H216150   0.879   3.334   5.301
 5396TIP3   OH216151   6.231   4.597   4.640
 5396TIP3    H116152   6.269   4.510   4.625
 5396TIP3    H216153   6.140   4.588   4.610
 5397TIP3   OH216154   4.881   3.293   1.762
 5397TIP3    H116155   4.806   3.238   1.738
 5397TIP3    H216156   4.956   3.250   1.723
 5398TIP3   OH216157   3.046   6.306   3.616
 5398TIP3    H116158   3.116   6.240   3.620
 5398TIP3    H216159   2.985   6.279   3.685
 5399TIP3   OH216160   3.872   6.561   4.676
 5399TIP3    H116161   3.906   6.598   4.594
 5399TIP3    H216162   3.804   6.622   4.703
 5400TIP3   OH216163   2.176   6.600   1.029
 5400TIP3    H116164   2.163   6.695   1.022
 5400TIP3    H216165   2.216   6.588   1.115
 5401TIP3   OH216166   1.260   6.033   4.123
 5401TIP3    H116167   1.338   5.992   4.086
 5401TIP3    H216168   1.190   5.970   4.107
 5402TIP3   OH216169   1.357   0.766   0.387
 5402TIP3    H116170   1.297   0.741   0.458
 5402TIP3    H216171   1.440   0.783   0.431
 5403TIP3   OH216172   1.202   3.899   4.960
 5403TIP3    H116173   1.246   3.898   5.045
 5403TIP3    H216174   1.152   3.817   4.958
 5404TIP3   OH216175   5.687   1.722   0.500
 5404TIP3    H116176   5.771   1.677   0.499
 5404TIP3    H216177   5.677   1.755   0.411
 5405TIP3   OH216178   5.157   0.623   0.783
 5405TIP3    H116179   5.135   0.641   0.692
 5405TIP3    H216180   5.087   0.663   0.833
 5406TIP3   OH216181   5.009   2.374   4.289
 5406TIP3    H116182   4.941   2.438   4.312
 5406TIP3    H216183   5.072   2.379   4.360
 5407TIP3   OH216184   1.861   0.674   5.217
 5407TIP3    H116185   1.838   0.592   5.260
 5407TIP3    H216186   1.863   0.738   5.287
 5408TIP3   OH216187   6.953   1.542   1.277
 5408TIP3    H116188   6.930   1.531   1.185
 5408TIP3    H216189   6.991   1.457   1.302
 5409TIP3   OH216190   3.543   2.291   5.804
 5409TIP3    H116191   3.619   2.324   5.757
 5409TIP3    H216192   3.471   2.348   5.778
 5410TIP3   OH216193   4.417   0.385   2.812
 5410TIP3    H116194   4.504   0.363   2.847
 5410TIP3    H216195   4.356   0.352   2.878
 5411TIP3   OH216196   1.485   6.704   3.220
 5411TIP3    H116197   1.500   6.798   3.217
 5411TIP3    H216198   1.395   6.695   3.252
 5412TIP3   OH216199   1.241   2.364   2.782
 5412TIP3    H116200   1.322   2.321   2.754
 5412TIP3    H216201   1.209   2.408   2.703
 5413TIP3   OH216202   3.126   5.101   2.981
 5413TIP3    H116203   3.120   5.195   2.995
 5413TIP3    H216204   3.214   5.088   2.946
 5414TIP3   OH216205   2.813   2.823   1.954
 5414TIP3    H116206   2.787   2.909   1.988
 5414TIP3    H216207   2.894   2.841   1.906
 5415TIP3   OH216208   3.758   6.700   4.968
 5415TIP3    H116209   3.800   6.781   4.942
 5415TIP3    H216210   3.829   6.636   4.975
 5416TIP3   OH216211   6.505   4.109   3.697
 5416TIP3    H116212   6.572   4.176   3.685
 5416TIP3    H216213   6.425   4.149   3.664
 5417TIP3   OH216214   0.112   5.080   2.866
 5417TIP3    H116215   0.033   5.043   2.905
 5417TIP3    H216216   0.080   5.153   2.813
 5418TIP3   OH216217   0.764   1.903   1.358
 5418TIP3    H116218   0.733   1.827   1.407
 5418TIP3    H216219   0.743   1.977   1.415
 5419TIP3   OH216220   5.054   5.729   4.602
 5419TIP3    H116221   4.960   5.744   4.614
 5419TIP3    H216222   5.064   5.714   4.509
 5420TIP3   OH216223   4.545   4.017   3.155
 5420TIP3    H116224   4.544   4.038   3.061
 5420TIP3    H216225   4.624   4.060   3.188
 5421TIP3   OH216226   0.681   4.393   4.012
 5421TIP3    H116227   0.775   4.410   4.017
 5421TIP3    H216228   0.674   4.300   3.992
 5422TIP3   OH216229   0.436   0.291   3.152
 5422TIP3    H116230   0.363   0.287   3.214
 5422TIP3    H216231   0.420   0.372   3.102
 5423TIP3   OH216232   2.909   6.382   4.837
 5423TIP3    H116233   2.955   6.433   4.770
 5423TIP3    H216234   2.829   6.352   4.795
 5424TIP3   OH216235   3.480   2.140   1.699
 5424TIP3    H116236   3.569   2.119   1.672
 5424TIP3    H216237   3.476   2.236   1.694
 5425TIP3   OH216238   5.953   0.194   2.994
 5425TIP3    H116239   5.987   0.181   2.906
 5425TIP3    H216240   5.945   0.105   3.030
 5426TIP3   OH216241   5.593   3.058   0.772
 5426TIP3    H116242   5.503   3.040   0.744
 5426TIP3    H216243   5.642   2.980   0.745
 5427TIP3   OH216244   3.429   3.881   2.721
 5427TIP3    H116245   3.388   3.810   2.772
 5427TIP3    H216246   3.521   3.858   2.718
 5428TIP3   OH216247   7.138   6.064   5.252
 5428TIP3    H116248   7.056   6.109   5.231
 5428TIP3    H216249   7.119   5.971   5.235
 5429TIP3   OH216250   3.569   5.480   3.906
 5429TIP3    H116251   3.485   5.503   3.945
 5429TIP3    H216252   3.560   5.506   3.814
 5430TIP3   OH216253   5.770   0.142   1.743
 5430TIP3    H116254   5.841   0.174   1.686
 5430TIP3    H216255   5.815   0.105   1.819
 5431TIP3   OH216256   6.789   1.278   1.932
 5431TIP3    H116257   6.727   1.234   1.874
 5431TIP3    H216258   6.744   1.284   2.016
 5432TIP3   OH216259   5.086   4.625   3.571
 5432TIP3    H116260   5.161   4.586   3.617
 5432TIP3    H216261   5.090   4.718   3.593
 5433TIP3   OH216262   1.020   5.615   1.464
 5433TIP3    H116263   0.978   5.687   1.417
 5433TIP3    H216264   0.950   5.579   1.519
 5434TIP3   OH216265   2.451   4.796   1.689
 5434TIP3    H116266   2.400   4.725   1.650
 5434TIP3    H216267   2.424   4.874   1.642
 5435TIP3   OH216268   4.904   1.031   3.927
 5435TIP3    H116269   4.860   1.104   3.971
 5435TIP3    H216270   4.979   1.011   3.984
 5436TIP3   OH216271   1.909   0.933   0.353
 5436TIP3    H116272   1.860   1.006   0.313
 5436TIP3    H216273   1.997   0.942   0.318
 5437TIP3   OH216274   3.156   6.478   1.525
 5437TIP3    H116275   3.130   6.497   1.435
 5437TIP3    H216276   3.189   6.562   1.559
 5438TIP3   OH216277   6.698   0.326   1.478
 5438TIP3    H116278   6.660   0.242   1.505
 5438TIP3    H216279   6.633   0.363   1.419
 5439TIP3   OH216280   1.907   0.449   5.470
 5439TIP3    H116281   1.859   0.445   5.553
 5439TIP3    H216282   1.994   0.479   5.495
 5440TIP3   OH216283   4.955   1.420   4.219
 5440TIP3    H116284   4.915   1.485   4.161
 5440TIP3    H216285   4.885   1.356   4.234
 5441TIP3   OH216286   2.422   4.854   2.440
 5441TIP3    H116287   2.328   4.851   2.455
 5441TIP3    H216288   2.437   4.791   2.369
 5442TIP3   OH216289   7.066   0.064   3.945
 5442TIP3    H116290   6.973   0.070   3.965
 5442TIP3    H216291   7.070   0.050   3.850
 5443TIP3   OH216292   1.747   1.304   5.222
 5443TIP3    H116293   1.723   1.361   5.295
 5443TIP3    H216294   1.834   1.334   5.195
 5444TIP3   OH216295   2.803   3.502   1.790
 5444TIP3    H116296   2.822   3.428   1.849
 5444TIP3    H216297   2.869   3.568   1.813
 5445TIP3   OH216298   7.111   1.615   4.649
 5445TIP3    H116299   7.162   1.538   4.623
 5445TIP3    H216300   7.076   1.650   4.566
 5446TIP3   OH216301   1.259   0.078   4.670
 5446TIP3    H116302   1.174   0.120   4.678
 5446TIP3    H216303   1.246  -0.008   4.710
 5447TIP3   OH216304   5.512   0.439   5.246
 5447TIP3    H116305   5.494   0.405   5.334
 5447TIP3    H216306   5.570   0.513   5.261
 5448TIP3   OH216307   2.842   2.029   0.909
 5448TIP3    H116308   2.853   1.999   0.999
 5448TIP3    H216309   2.755   1.997   0.883
 5449TIP3   OH216310   3.927   4.737   3.737
 5449TIP3    H116311   3.877   4.660   3.710
 5449TIP3    H216312   3.865   4.790   3.786
 5450TIP3   OH216313   0.826   2.701   0.076
 5450TIP3    H116314   0.762   2.765   0.045
 5450TIP3    H216315   0.794   2.617   0.041
 5451TIP3   OH216316   5.391   5.985   3.238
 5451TIP3    H116317   5.401   5.996   3.332
 5451TIP3    H216318   5.307   6.025   3.218
 5452TIP3   OH216319   0.326   4.133   4.810
 5452TIP3    H116320   0.251   4.155   4.865
 5452TIP3    H216321   0.381   4.212   4.812
 5453TIP3   OH216322   2.616   6.638   0.998
 5453TIP3    H116323   2.577   6.552   1.017
 5453TIP3    H216324   2.612   6.645   0.902
 5454TIP3   OH216325   2.677   4.969   4.281
 5454TIP3    H116326   2.740   4.992   4.350
 5454TIP3    H216327   2.721   4.900   4.231
 5455TIP3   OH216328   1.677   1.482   4.262
 5455TIP3    H116329   1.758   1.484   4.211
 5455TIP3    H216330   1.617   1.540   4.214
 5456TIP3   OH216331   6.616   2.205   3.559
 5456TIP3    H116332   6.599   2.264   3.485
 5456TIP3    H216333   6.543   2.143   3.558
 5457TIP3   OH216334   4.998   4.816   2.659
 5457TIP3    H116335   4.988   4.749   2.726
 5457TIP3    H216336   5.089   4.809   2.632
 5458TIP3   OH216337   2.941   0.619   0.785
 5458TIP3    H116338   2.875   0.555   0.760
 5458TIP3    H216339   2.969   0.658   0.702
 5459TIP3   OH216340   4.543   0.841   4.923
 5459TIP3    H116341   4.587   0.773   4.871
 5459TIP3    H216342   4.451   0.815   4.921
 5460TIP3   OH216343   3.311   5.538   3.407
 5460TIP3    H116344   3.275   5.573   3.325
 5460TIP3    H216345   3.276   5.449   3.411
 5461TIP3   OH216346   1.127   5.012   5.654
 5461TIP3    H116347   1.169   4.955   5.719
 5461TIP3    H216348   1.040   4.974   5.641
 5462TIP3   OH216349   3.086   3.920   4.996
 5462TIP3    H116350   3.080   3.825   4.995
 5462TIP3    H216351   3.179   3.939   4.983
 5463TIP3   OH216352   3.302   4.911   3.526
 5463TIP3    H116353   3.317   4.991   3.577
 5463TIP3    H216354   3.389   4.883   3.499
 5464TIP3   OH216355   0.252   4.726   0.504
 5464TIP3    H116356   0.219   4.643   0.468
 5464TIP3    H216357   0.176   4.765   0.547
 5465TIP3   OH216358   3.304   5.362   5.609
 5465TIP3    H116359   3.235   5.342   5.673
 5465TIP3    H216360   3.345   5.441   5.642
 5466TIP3   OH216361   2.196   6.339   0.967
 5466TIP3    H116362   2.122   6.287   0.997
 5466TIP3    H216363   2.164   6.429   0.967
 5467TIP3   OH216364   6.386   5.215   2.007
 5467TIP3    H116365   6.376   5.120   2.008
 5467TIP3    H216366   6.297   5.248   2.018
 5468TIP3   OH216367   6.453   1.470   4.682
 5468TIP3    H116368   6.496   1.414   4.746
 5468TIP3    H216369   6.395   1.526   4.734
 5469TIP3   OH216370   4.041   4.317   0.551
 5469TIP3    H116371   3.975   4.298   0.618
 5469TIP3    H216372   4.114   4.358   0.599
 5470TIP3   OH216373   0.919   4.404   2.238
 5470TIP3    H116374   0.848   4.433   2.296
 5470TIP3    H216375   0.875   4.376   2.158
 5471TIP3   OH216376   1.772   6.280   5.760
 5471TIP3    H116377   1.792   6.193   5.795
 5471TIP3    H216378   1.682   6.296   5.787
 5472TIP3   OH216379   4.877   1.366   5.449
 5472TIP3    H116380   4.817   1.352   5.376
 5472TIP3    H216381   4.961   1.389   5.408
 5473TIP3   OH216382   2.314   0.751   0.501
 5473TIP3    H116383   2.309   0.698   0.421
 5473TIP3    H216384   2.305   0.841   0.471
 5474TIP3   OH216385   2.652   2.283   1.564
 5474TIP3    H116386   2.558   2.267   1.566
 5474TIP3    H216387   2.681   2.271   1.655
 5475TIP3   OH216388   0.491   2.644   1.776
 5475TIP3    H116389   0.513   2.570   1.719
 5475TIP3    H216390   0.528   2.720   1.731
 5476TIP3   OH216391   1.066   0.331   1.236
 5476TIP3    H116392   0.981   0.293   1.260
 5476TIP3    H216393   1.044   0.410   1.187
 5477TIP3   OH216394   4.767   3.456   4.377
 5477TIP3    H116395   4.688   3.506   4.354
 5477TIP3    H216396   4.808   3.507   4.447
 5478TIP3   OH216397   1.729  -0.063   4.382
 5478TIP3    H116398   1.671  -0.062   4.459
 5478TIP3    H216399   1.813  -0.095   4.416
 5479TIP3   OH216400   2.482   0.240   4.291
 5479TIP3    H116401   2.388   0.250   4.274
 5479TIP3    H216402   2.513   0.328   4.311
 5480TIP3   OH216403   5.286   3.711   1.983
 5480TIP3    H116404   5.327   3.627   1.964
 5480TIP3    H216405   5.314   3.732   2.072
 5481TIP3   OH216406   4.464   1.141   1.498
 5481TIP3    H116407   4.455   1.231   1.529
 5481TIP3    H216408   4.411   1.089   1.559
 5482TIP3   OH216409   6.990   5.187   4.789
 5482TIP3    H116410   7.058   5.200   4.723
 5482TIP3    H216411   6.908   5.196   4.741
 5483TIP3   OH216412   5.024   0.034   3.870
 5483TIP3    H116413   5.047   0.065   3.957
 5483TIP3    H216414   4.932   0.061   3.859
 5484TIP3   OH216415   7.182   2.248   0.392
 5484TIP3    H116416   7.120   2.321   0.401
 5484TIP3    H216417   7.197   2.219   0.482
 5485TIP3   OH216418   3.470   0.646   2.778
 5485TIP3    H116419   3.454   0.653   2.683
 5485TIP3    H216420   3.385   0.624   2.815
 5486TIP3   OH216421   2.577   0.708   1.184
 5486TIP3    H116422   2.632   0.776   1.221
 5486TIP3    H216423   2.622   0.681   1.104
 5487TIP3   OH216424   4.331   0.572   3.932
 5487TIP3    H116425   4.407   0.619   3.967
 5487TIP3    H216426   4.318   0.500   3.993
 5488TIP3   OH216427   6.017   4.053   2.627
 5488TIP3    H116428   5.997   3.966   2.662
 5488TIP3    H216429   6.090   4.084   2.680
 5489TIP3   OH216430   1.288   2.415   1.147
 5489TIP3    H116431   1.370   2.408   1.099
 5489TIP3    H216432   1.313   2.438   1.236
 5490TIP3   OH216433   5.962   3.298   1.292
 5490TIP3    H116434   5.872   3.299   1.325
 5490TIP3    H216435   5.953   3.309   1.197
 5491TIP3   OH216436   1.960   0.041   2.017
 5491TIP3    H116437   1.956   0.010   2.108
 5491TIP3    H216438   2.019  -0.021   1.974
 5492TIP3   OH216439   5.740   0.700   4.751
 5492TIP3    H116440   5.787   0.783   4.760
 5492TIP3    H216441   5.647   0.726   4.750
 5493TIP3   OH216442   2.649   6.003   0.755
 5493TIP3    H116443   2.742   6.024   0.764
 5493TIP3    H216444   2.635   5.930   0.815
 5494TIP3   OH216445   6.282   0.029   3.190
 5494TIP3    H116446   6.315   0.115   3.164
 5494TIP3    H216447   6.356  -0.011   3.237
 5495TIP3   OH216448   5.648   2.764   5.750
 5495TIP3    H116449   5.610   2.840   5.794
 5495TIP3    H216450   5.661   2.793   5.660
 5496TIP3   OH216451   4.736   0.036   3.929
 5496TIP3    H116452   4.707   0.116   3.886
 5496TIP3    H216453   4.761   0.064   4.017
 5497TIP3   OH216454   0.866   5.802   1.368
 5497TIP3    H116455   0.849   5.773   1.278
 5497TIP3    H216456   0.952   5.844   1.363
 5498TIP3   OH216457   3.291   6.691   5.371
 5498TIP3    H116458   3.269   6.707   5.279
 5498TIP3    H216459   3.301   6.596   5.376
 5499TIP3   OH216460   3.547   4.864   4.345
 5499TIP3    H116461   3.640   4.849   4.330
 5499TIP3    H216462   3.541   4.957   4.366
 5500TIP3   OH216463   5.230   3.975   0.562
 5500TIP3    H116464   5.163   3.927   0.514
 5500TIP3    H216465   5.206   3.965   0.654
 5501TIP3   OH216466   4.353   0.419   2.271
 5501TIP3    H116467   4.382   0.349   2.329
 5501TIP3    H216468   4.428   0.437   2.215
 5502TIP3   OH216469   0.126   4.274   0.584
 5502TIP3    H116470   0.183   4.254   0.511
 5502TIP3    H216471   0.092   4.362   0.565
 5503TIP3   OH216472   1.994   2.115   2.092
 5503TIP3    H116473   1.981   2.023   2.067
 5503TIP3    H216474   2.081   2.137   2.057
 5504TIP3   OH216475   0.260   3.035   2.043
 5504TIP3    H116476   0.217   2.950   2.047
 5504TIP3    H216477   0.262   3.057   1.950
 5505TIP3   OH216478   3.037   0.281   4.517
 5505TIP3    H116479   2.957   0.318   4.478
 5505TIP3    H216480   3.025   0.186   4.510
 5506TIP3   OH216481   1.943   4.794   0.246
 5506TIP3    H116482   1.970   4.881   0.217
 5506TIP3    H216483   2.026   4.747   0.259
 5507TIP3   OH216484   1.623   4.490   0.324
 5507TIP3    H116485   1.686   4.528   0.263
 5507TIP3    H216486   1.620   4.397   0.301
 5508TIP3   OH216487   6.110   5.850   0.530
 5508TIP3    H116488   6.029   5.890   0.497
 5508TIP3    H216489   6.180   5.898   0.486
 5509TIP3   OH216490   3.651   3.515   0.456
 5509TIP3    H116491   3.647   3.463   0.537
 5509TIP3    H216492   3.577   3.575   0.463
 5510TIP3   OH216493   3.899   6.195   3.853
 5510TIP3    H116494   3.987   6.181   3.816
 5510TIP3    H216495   3.857   6.257   3.793
 5511TIP3   OH216496   5.838   0.977   4.778
 5511TIP3    H116497   5.909   1.025   4.820
 5511TIP3    H216498   5.761   1.033   4.788
 5512TIP3   OH216499   1.703   4.429   5.409
 5512TIP3    H116500   1.648   4.485   5.463
 5512TIP3    H216501   1.654   4.347   5.400
 5513TIP3   OH216502   2.191   5.161   2.790
 5513TIP3    H116503   2.157   5.230   2.847
 5513TIP3    H216504   2.239   5.207   2.722
 5514TIP3   OH216505   5.152   6.368   0.725
 5514TIP3    H116506   5.064   6.340   0.750
 5514TIP3    H216507   5.167   6.325   0.640
 5515TIP3   OH216508   4.368   3.929   1.278
 5515TIP3    H116509   4.454   3.961   1.304
 5515TIP3    H216510   4.382   3.882   1.196
 5516TIP3   OH216511   6.879   1.257   5.119
 5516TIP3    H116512   6.937   1.311   5.172
 5516TIP3    H216513   6.900   1.167   5.144
 5517TIP3   OH216514   6.163   4.571   5.358
 5517TIP3    H116515   6.243   4.620   5.378
 5517TIP3    H216516   6.141   4.526   5.440
 5518TIP3   OH216517   4.228   2.778   1.854
 5518TIP3    H116518   4.165   2.812   1.789
 5518TIP3    H216519   4.290   2.727   1.802
 5519TIP3   OH216520   4.824   3.423   1.092
 5519TIP3    H116521   4.848   3.425   0.999
 5519TIP3    H216522   4.737   3.383   1.094
 5520TIP3   OH216523   2.581   1.552   2.874
 5520TIP3    H116524   2.507   1.604   2.845
 5520TIP3    H216525   2.543   1.486   2.932
 5521TIP3   OH216526   3.615   5.822   2.624
 5521TIP3    H116527   3.592   5.915   2.629
 5521TIP3    H216528   3.611   5.801   2.531
 5522TIP3   OH216529   5.605   0.056   5.580
 5522TIP3    H116530   5.515   0.025   5.592
 5522TIP3    H216531   5.629   0.024   5.493
 5523TIP3   OH216532   3.212   3.132   0.805
 5523TIP3    H116533   3.119   3.149   0.794
 5523TIP3    H216534   3.216   3.047   0.848
 5524TIP3   OH216535   5.540   2.870   5.161
 5524TIP3    H116536   5.610   2.869   5.226
 5524TIP3    H216537   5.506   2.959   5.162
 5525TIP3   OH216538   6.046   4.370   5.163
 5525TIP3    H116539   6.097   4.413   5.231
 5525TIP3    H216540   5.990   4.439   5.127
 5526TIP3   OH216541   5.514   0.390   1.048
 5526TIP3    H116542   5.481   0.321   1.106
 5526TIP3    H216543   5.537   0.344   0.967
 5527TIP3   OH216544   3.677   1.081  -0.004
 5527TIP3    H116545   3.719   1.003  -0.041
 5527TIP3    H216546   3.629   1.049   0.073
 5528TIP3   OH216547   0.954   0.585   2.359
 5528TIP3    H116548   0.917   0.631   2.434
 5528TIP3    H216549   0.916   0.497   2.364
 5529TIP3   OH216550   3.700   4.488   0.559
 5529TIP3    H116551   3.644   4.438   0.500
 5529TIP3    H216552   3.726   4.565   0.507
 5530TIP3   OH216553   2.320   4.630   3.564
 5530TIP3    H116554   2.314   4.663   3.654
 5530TIP3    H216555   2.348   4.539   3.574
 5531TIP3   OH216556   2.285   1.381  -0.015
 5531TIP3    H116557   2.301   1.348   0.073
 5531TIP3    H216558   2.221   1.452  -0.002
 5532TIP3   OH216559   3.704   4.673   3.923
 5532TIP3    H116560   3.697   4.619   3.844
 5532TIP3    H216561   3.614   4.676   3.957
 5533TIP3   OH216562   7.057   0.213   4.675
 5533TIP3    H116563   7.051   0.308   4.670
 5533TIP3    H216564   7.086   0.196   4.765
 5534TIP3   OH216565   4.294   4.527   2.571
 5534TIP3    H116566   4.205   4.533   2.536
 5534TIP3    H216567   4.291   4.453   2.632
 5535TIP3   OH216568   4.385   4.599   2.231
 5535TIP3    H116569   4.402   4.562   2.144
 5535TIP3    H216570   4.450   4.557   2.287
 5536TIP3   OH216571   2.469   2.364   2.071
 5536TIP3    H116572   2.477   2.442   2.126
 5536TIP3    H216573   2.559   2.339   2.050
 5537TIP3   OH216574   1.808   2.806   4.764
 5537TIP3    H116575   1.741   2.873   4.751
 5537TIP3    H216576   1.777   2.755   4.839
 5538TIP3   OH216577   4.219   5.344   5.381
 5538TIP3    H116578   4.174   5.260   5.382
 5538TIP3    H216579   4.260   5.348   5.295
 5539TIP3   OH216580   2.445   2.698   5.333
 5539TIP3    H116581   2.360   2.713   5.291
 5539TIP3    H216582   2.499   2.772   5.305
 5540TIP3   OH216583   1.237   4.634   4.477
 5540TIP3    H116584   1.201   4.547   4.459
 5540TIP3    H216585   1.219   4.649   4.569
 5541TIP3   OH216586   6.516   2.904   4.000
 5541TIP3    H116587   6.601   2.917   4.044
 5541TIP3    H216588   6.459   2.870   4.069
 5542TIP3   OH216589   1.557   1.311   0.278
 5542TIP3    H116590   1.492   1.256   0.235
 5542TIP3    H216591   1.511   1.393   0.295
 5543TIP3   OH216592   0.344   4.157   1.854
 5543TIP3    H116593   0.433   4.127   1.833
 5543TIP3    H216594   0.355   4.210   1.933
 5544TIP3   OH216595   1.506   2.525   4.157
 5544TIP3    H116596   1.586   2.563   4.193
 5544TIP3    H216597   1.439   2.544   4.222
 5545TIP3   OH216598   2.757   2.432   5.500
 5545TIP3    H116599   2.790   2.359   5.553
 5545TIP3    H216600   2.677   2.398   5.460
 5546TIP3   OH216601   3.503   3.712   5.349
 5546TIP3    H116602   3.574   3.699   5.412
 5546TIP3    H216603   3.455   3.629   5.350
 5547TIP3   OH216604   3.813   4.542   4.471
 5547TIP3    H116605   3.797   4.456   4.434
 5547TIP3    H216606   3.908   4.553   4.465
 5548TIP3   OH216607   2.828   3.478   5.457
 5548TIP3    H116608   2.737   3.489   5.485
 5548TIP3    H216609   2.834   3.386   5.431
 5549TIP3   OH216610   1.175   5.915   0.867
 5549TIP3    H116611   1.089   5.907   0.827
 5549TIP3    H216612   1.236   5.910   0.794
 5550TIP3   OH216613   5.031   3.855   4.443
 5550TIP3    H116614   5.038   3.950   4.455
 5550TIP3    H216615   5.038   3.819   4.532
 5551TIP3   OH216616   2.170   6.399   5.696
 5551TIP3    H116617   2.137   6.446   5.772
 5551TIP3    H216618   2.216   6.466   5.645
 5552TIP3   OH216619   3.360   5.213   2.283
 5552TIP3    H116620   3.325   5.127   2.261
 5552TIP3    H216621   3.352   5.218   2.378
 5553TIP3   OH216622   4.506   6.365   3.365
 5553TIP3    H116623   4.440   6.417   3.409
 5553TIP3    H216624   4.481   6.366   3.273
 5554TIP3   OH216625   0.666   5.413   0.405
 5554TIP3    H116626   0.691   5.407   0.313
 5554TIP3    H216627   0.592   5.353   0.415
 5555TIP3   OH216628   2.261   4.190   0.557
 5555TIP3    H116629   2.349   4.153   0.566
 5555TIP3    H216630   2.242   4.226   0.644
 5556TIP3   OH216631   2.265   2.657   3.200
 5556TIP3    H116632   2.296   2.667   3.110
 5556TIP3    H216633   2.169   2.657   3.192
 5557TIP3   OH216634   1.442   2.791   5.336
 5557TIP3    H116635   1.369   2.801   5.397
 5557TIP3    H216636   1.429   2.861   5.272
 5558TIP3   OH216637   2.774   4.722   1.244
 5558TIP3    H116638   2.839   4.750   1.309
 5558TIP3    H216639   2.823   4.664   1.185
 5559TIP3   OH216640   5.406   4.599   1.948
 5559TIP3    H116641   5.479   4.556   1.904
 5559TIP3    H216642   5.430   4.692   1.948
 5560TIP3   OH216643   1.359   6.652   1.379
 5560TIP3    H116644   1.416   6.690   1.312
 5560TIP3    H216645   1.275   6.640   1.336
 5561TIP3   OH216646   5.958   1.829   3.117
 5561TIP3    H116647   5.934   1.841   3.209
 5561TIP3    H216648   5.992   1.915   3.090
 5562TIP3   OH216649   2.473   3.977   0.935
 5562TIP3    H116650   2.422   3.900   0.910
 5562TIP3    H216651   2.553   3.971   0.882
 5563TIP3   OH216652   4.689   5.018   3.102
 5563TIP3    H116653   4.713   5.030   3.010
 5563TIP3    H216654   4.598   4.989   3.100
 5564TIP3   OH216655   2.153   0.222   5.671
 5564TIP3    H116656   2.186   0.241   5.584
 5564TIP3    H216657   2.064   0.188   5.656
 5565TIP3   OH216658   2.881   1.255   5.395
 5565TIP3    H116659   2.974   1.245   5.415
 5565TIP3    H216660   2.858   1.340   5.432
 5566TIP3   OH216661   0.584   4.335   1.296
 5566TIP3    H116662   0.564   4.262   1.237
 5566TIP3    H216663   0.591   4.295   1.382
 5567TIP3   OH216664   3.323   6.078   3.927
 5567TIP3    H116665   3.242   6.129   3.931
 5567TIP3    H216666   3.302   5.995   3.969
 5568TIP3   OH216667   6.880   3.335   4.281
 5568TIP3    H116668   6.792   3.330   4.244
 5568TIP3    H216669   6.867   3.332   4.376
 5569TIP3   OH216670   0.158   2.940   5.585
 5569TIP3    H116671   0.110   3.003   5.638
 5569TIP3    H216672   0.171   2.984   5.501
 5570TIP3   OH216673   4.416   4.955   1.456
 5570TIP3    H116674   4.390   4.926   1.543
 5570TIP3    H216675   4.362   5.032   1.440
 5571TIP3   OH216676   1.543   1.833   2.383
 5571TIP3    H116677   1.534   1.928   2.393
 5571TIP3    H216678   1.612   1.823   2.317
 5572TIP3   OH216679   6.245   4.118   2.232
 5572TIP3    H116680   6.193   4.194   2.207
 5572TIP3    H216681   6.182   4.058   2.273
 5573TIP3   OH216682   2.100   5.008   0.342
 5573TIP3    H116683   2.089   5.046   0.429
 5573TIP3    H216684   2.081   5.080   0.281
 5574TIP3   OH216685   4.554   5.068   5.346
 5574TIP3    H116686   4.502   5.109   5.415
 5574TIP3    H216687   4.625   5.023   5.392
 5575TIP3   OH216688   3.511   1.103   5.840
 5575TIP3    H116689   3.558   1.170   5.790
 5575TIP3    H216690   3.548   1.108   5.928
 5576TIP3   OH216691   1.964   5.304   2.378
 5576TIP3    H116692   1.942   5.328   2.468
 5576TIP3    H216693   2.060   5.298   2.378
 5577TIP3   OH216694   2.816   3.839   0.327
 5577TIP3    H116695   2.802   3.847   0.233
 5577TIP3    H216696   2.748   3.778   0.357
 5578TIP3   OH216697   2.184   0.334   3.893
 5578TIP3    H116698   2.108   0.380   3.856
 5578TIP3    H216699   2.148   0.252   3.926
 5579TIP3   OH216700   3.434   4.439   2.663
 5579TIP3    H116701   3.526   4.457   2.681
 5579TIP3    H216702   3.396   4.422   2.749
 5580TIP3   OH216703   5.551   2.501   5.568
 5580TIP3    H116704   5.515   2.541   5.489
 5580TIP3    H216705   5.610   2.567   5.604
 5581TIP3   OH216706   6.941   2.927   4.824
 5581TIP3    H116707   6.907   2.849   4.780
 5581TIP3    H216708   7.004   2.964   4.762
 5582TIP3   OH216709   5.234   3.936   5.465
 5582TIP3    H116710   5.201   4.021   5.437
 5582TIP3    H216711   5.254   3.948   5.558
 5583TIP3   OH216712   1.442   6.070   5.118
 5583TIP3    H116713   1.527   6.064   5.160
 5583TIP3    H216714   1.404   5.982   5.128
 5584TIP3   OH216715   1.465   2.580   3.259
 5584TIP3    H116716   1.417   2.501   3.286
 5584TIP3    H216717   1.510   2.609   3.338
 5585TIP3   OH216718   0.996   5.381   4.255
 5585TIP3    H116719   1.031   5.452   4.201
 5585TIP3    H216720   0.949   5.325   4.194
 5586TIP3   OH216721   3.288   4.143   4.238
 5586TIP3    H116722   3.270   4.221   4.291
 5586TIP3    H216723   3.356   4.096   4.286
 5587TIP3   OH216724   7.219   0.896   4.923
 5587TIP3    H116725   7.135   0.924   4.885
 5587TIP3    H216726   7.207   0.803   4.942
 5588TIP3   OH216727   4.465   0.925   2.129
 5588TIP3    H116728   4.530   0.894   2.067
 5588TIP3    H216729   4.420   0.996   2.083
 5589TIP3   OH216730   7.157   4.833   0.888
 5589TIP3    H116731   7.167   4.855   0.795
 5589TIP3    H216732   7.141   4.918   0.930
 5590TIP3   OH216733   4.233   5.475   4.878
 5590TIP3    H116734   4.299   5.540   4.902
 5590TIP3    H216735   4.227   5.418   4.955
 5591TIP3   OH216736   2.167   4.503   2.034
 5591TIP3    H116737   2.129   4.415   2.039
 5591TIP3    H216738   2.142   4.535   1.948
 5592TIP3   OH216739   5.334   1.242   2.371
 5592TIP3    H116740   5.361   1.300   2.442
 5592TIP3    H216741   5.409   1.240   2.312
 5593TIP3   OH216742   4.218   3.277   2.588
 5593TIP3    H116743   4.279   3.330   2.639
 5593TIP3    H216744   4.260   3.191   2.583
 5594TIP3   OH216745   5.426   1.869   0.888
 5594TIP3    H116746   5.462   1.858   0.800
 5594TIP3    H216747   5.353   1.806   0.892
 5595TIP3   OH216748   4.880   3.301   4.605
 5595TIP3    H116749   4.883   3.396   4.595
 5595TIP3    H216750   4.918   3.267   4.524
 5596TIP3   OH216751   0.195   3.137   0.361
 5596TIP3    H116752   0.238   3.150   0.446
 5596TIP3    H216753   0.212   3.045   0.340
 5597TIP3   OH216754   7.196   3.879   3.687
 5597TIP3    H116755   7.213   3.795   3.730
 5597TIP3    H216756   7.245   3.873   3.604
 5598TIP3   OH216757   0.190   3.706   1.340
 5598TIP3    H116758   0.210   3.694   1.247
 5598TIP3    H216759   0.191   3.801   1.352
 5599TIP3   OH216760   5.298   6.529   5.200
 5599TIP3    H116761   5.245   6.514   5.278
 5599TIP3    H216762   5.312   6.624   5.199
 5600TIP3   OH216763   2.813   5.171   3.615
 5600TIP3    H116764   2.758   5.108   3.568
 5600TIP3    H216765   2.752   5.220   3.670
 5601TIP3   OH216766   1.888   4.967   1.693
 5601TIP3    H116767   1.809   5.004   1.652
 5601TIP3    H216768   1.932   4.920   1.622
 5602TIP3   OH216769   1.326   5.117   5.382
 5602TIP3    H116770   1.236   5.085   5.375
 5602TIP3    H216771   1.328   5.196   5.329
 5603TIP3   OH216772   4.060   5.687   3.223
 5603TIP3    H116773   3.996   5.735   3.170
 5603TIP3    H216774   4.057   5.598   3.189
 5604TIP3   OH216775   1.806   5.146   3.143
 5604TIP3    H116776   1.885   5.125   3.193
 5604TIP3    H216777   1.742   5.082   3.173
 5605TIP3   OH216778   6.185   6.627   3.235
 5605TIP3    H116779   6.235   6.699   3.273
 5605TIP3    H216780   6.094   6.645   3.258
 5606TIP3   OH216781   4.514   2.606   4.588
 5606TIP3    H116782   4.440   2.628   4.531
 5606TIP3    H216783   4.533   2.514   4.569
 5607TIP3   OH216784   6.498   3.794   4.762
 5607TIP3    H116785   6.490   3.797   4.667
 5607TIP3    H216786   6.409   3.783   4.794
 5608TIP3   OH216787   3.144   1.363   2.515
 5608TIP3    H116788   3.181   1.382   2.429
 5608TIP3    H216789   3.112   1.273   2.508
 5609TIP3   OH216790   5.799   1.515   3.492
 5609TIP3    H116791   5.791   1.580   3.561
 5609TIP3    H216792   5.737   1.446   3.518
 5610TIP3   OH216793   5.422   3.146   2.319
 5610TIP3    H116794   5.397   3.232   2.286
 5610TIP3    H216795   5.386   3.143   2.408
 5611TIP3   OH216796   7.084   2.223   3.477
 5611TIP3    H116797   7.136   2.262   3.547
 5611TIP3    H216798   7.137   2.236   3.398
 5612TIP3   OH216799   3.211   5.681   5.533
 5612TIP3    H116800   3.233   5.622   5.461
 5612TIP3    H216801   3.268   5.653   5.605
 5613TIP3   OH216802   5.144   5.163   1.334
 5613TIP3    H116803   5.216   5.102   1.317
 5613TIP3    H216804   5.065   5.111   1.317
 5614TIP3   OH216805   2.672   2.777   0.062
 5614TIP3    H116806   2.627   2.696   0.036
 5614TIP3    H216807   2.638   2.843   0.002
 5615TIP3   OH216808   4.003   5.862   0.558
 5615TIP3    H116809   4.060   5.879   0.482
 5615TIP3    H216810   3.978   5.770   0.548
 5616TIP3   OH216811   6.905   1.860   0.320
 5616TIP3    H116812   6.932   1.831   0.407
 5616TIP3    H216813   6.968   1.929   0.297
 5617TIP3   OH216814   2.996   6.511   1.076
 5617TIP3    H116815   3.048   6.501   1.156
 5617TIP3    H216816   2.927   6.445   1.084
 5618TIP3   OH216817   0.337   5.997   1.099
 5618TIP3    H116818   0.245   6.015   1.116
 5618TIP3    H216819   0.379   6.083   1.102
 5619TIP3   OH216820   0.728   0.251   0.064
 5619TIP3    H116821   0.733   0.177   0.125
 5619TIP3    H216822   0.656   0.229   0.005
 5620TIP3   OH216823   6.955   0.046   1.347
 5620TIP3    H116824   6.922   0.125   1.391
 5620TIP3    H216825   7.044   0.069   1.322
 5621TIP3   OH216826   0.841   0.309   5.303
 5621TIP3    H116827   0.762   0.362   5.317
 5621TIP3    H216828   0.904   0.342   5.367
 5622TIP3   OH216829   0.472   0.947   2.966
 5622TIP3    H116830   0.414   0.888   3.014
 5622TIP3    H216831   0.543   0.891   2.936
 5623TIP3   OH216832   5.335   1.552   1.390
 5623TIP3    H116833   5.326   1.597   1.474
 5623TIP3    H216834   5.246   1.545   1.356
 5624TIP3   OH216835   0.838   3.257   0.618
 5624TIP3    H116836   0.846   3.186   0.554
 5624TIP3    H216837   0.863   3.336   0.571
 5625TIP3   OH216838   6.627   5.459   0.782
 5625TIP3    H116839   6.711   5.505   0.774
 5625TIP3    H216840   6.602   5.471   0.874
 5626TIP3   OH216841   1.511   4.481   5.777
 5626TIP3    H116842   1.550   4.408   5.825
 5626TIP3    H216843   1.416   4.471   5.790
 5627TIP3   OH216844   6.176   2.979   0.628
 5627TIP3    H116845   6.252   2.938   0.588
 5627TIP3    H216846   6.177   3.069   0.593
 5628TIP3   OH216847   3.819   0.895   5.454
 5628TIP3    H116848   3.868   0.838   5.514
 5628TIP3    H216849   3.792   0.838   5.382
 5629TIP3   OH216850   2.763   5.719   0.963
 5629TIP3    H116851   2.695   5.693   0.900
 5629TIP3    H216852   2.794   5.803   0.932
 5630TIP3   OH216853   6.083   2.247   1.888
 5630TIP3    H116854   6.081   2.161   1.846
 5630TIP3    H216855   6.104   2.229   1.979
 5631TIP3   OH216856   3.456   3.064   2.883
 5631TIP3    H116857   3.530   3.071   2.943
 5631TIP3    H216858   3.418   3.152   2.881
 5632TIP3   OH216859   0.382   1.756   1.422
 5632TIP3    H116860   0.347   1.758   1.511
 5632TIP3    H216861   0.474   1.732   1.433
 5633TIP3   OH216862   5.925   0.071   5.491
 5633TIP3    H116863   5.988   0.012   5.450
 5633TIP3    H216864   5.854   0.014   5.520
 5634TIP3   OH216865   4.977   2.338   5.421
 5634TIP3    H116866   4.974   2.283   5.343
 5634TIP3    H216867   4.976   2.427   5.388
 5635TIP3   OH216868   6.612   5.420   4.274
 5635TIP3    H116869   6.532   5.402   4.224
 5635TIP3    H216870   6.596   5.506   4.314
 5636TIP3   OH216871   1.096   4.034   4.755
 5636TIP3    H116872   1.115   3.985   4.835
 5636TIP3    H216873   1.000   4.030   4.747
 5637TIP3   OH216874   4.967   5.773   4.331
 5637TIP3    H116875   4.935   5.701   4.277
 5637TIP3    H216876   4.889   5.807   4.374
 5638TIP3   OH216877   3.010   0.357   3.121
 5638TIP3    H116878   3.037   0.267   3.142
 5638TIP3    H216879   3.090   0.398   3.087
 5639TIP3   OH216880   4.553   1.702   0.788
 5639TIP3    H116881   4.564   1.723   0.881
 5639TIP3    H216882   4.491   1.629   0.787
 5640TIP3   OH216883   3.541   0.846   4.818
 5640TIP3    H116884   3.546   0.760   4.860
 5640TIP3    H216885   3.627   0.858   4.778
 5641TIP3   OH216886   5.679   5.230   1.845
 5641TIP3    H116887   5.762   5.216   1.799
 5641TIP3    H216888   5.618   5.169   1.803
 5642TIP3   OH216889   4.755   2.531   3.308
 5642TIP3    H116890   4.834   2.539   3.360
 5642TIP3    H216891   4.714   2.618   3.313
 5643TIP3   OH216892   6.893   2.326   5.132
 5643TIP3    H116893   6.987   2.311   5.124
 5643TIP3    H216894   6.876   2.322   5.226
 5644TIP3   OH216895   3.082   6.287   5.829
 5644TIP3    H116896   3.037   6.294   5.744
 5644TIP3    H216897   3.073   6.375   5.867
 5645TIP3   OH216898   2.440   0.507   5.154
 5645TIP3    H116899   2.374   0.571   5.180
 5645TIP3    H216900   2.424   0.431   5.209
 5646TIP3   OH216901   4.184   3.994   1.867
 5646TIP3    H116902   4.143   4.023   1.949
 5646TIP3    H216903   4.274   4.024   1.874
 5647TIP3   OH216904   0.972   2.687   1.801
 5647TIP3    H116905   1.028   2.764   1.794
 5647TIP3    H216906   0.974   2.665   1.894
 5648TIP3   OH216907   0.574   3.365   2.765
 5648TIP3    H116908   0.536   3.304   2.702
 5648TIP3    H216909   0.667   3.342   2.766
 5649TIP3   OH216910   2.764   3.440   4.654
 5649TIP3    H116911   2.749   3.501   4.581
 5649TIP3    H216912   2.825   3.486   4.711
 5650TIP3   OH216913   3.863   6.011   3.201
 5650TIP3    H116914   3.840   5.919   3.183
 5650TIP3    H216915   3.913   6.038   3.124
 5651TIP3   OH216916   5.773   3.865   3.194
 5651TIP3    H116917   5.840   3.807   3.157
 5651TIP3    H216918   5.705   3.869   3.126
 5652TIP3   OH216919   6.377   4.209   0.941
 5652TIP3    H116920   6.461   4.242   0.908
 5652TIP3    H216921   6.323   4.288   0.951
 5653TIP3   OH216922   0.519   4.068   1.143
 5653TIP3    H116923   0.423   4.062   1.135
 5653TIP3    H216924   0.545   3.983   1.179
 5654TIP3   OH216925   6.476   4.089   1.564
 5654TIP3    H116926   6.517   4.008   1.596
 5654TIP3    H216927   6.548   4.152   1.559
 5655TIP3   OH216928   2.598   5.299   1.567
 5655TIP3    H116929   2.642   5.214   1.557
 5655TIP3    H216930   2.560   5.317   1.482
 5656TIP3   OH216931   5.449   3.533   0.202
 5656TIP3    H116932   5.443   3.554   0.296
 5656TIP3    H216933   5.517   3.466   0.197
 5657TIP3   OH216934   2.889   4.720   5.636
 5657TIP3    H116935   2.899   4.648   5.698
 5657TIP3    H216936   2.795   4.720   5.616
 5658TIP3   OH216937   1.340   0.662   1.049
 5658TIP3    H116938   1.251   0.673   1.015
 5658TIP3    H216939   1.330   0.671   1.144
 5659TIP3   OH216940   1.088   1.079   5.836
 5659TIP3    H116941   1.159   1.134   5.870
 5659TIP3    H216942   1.130   1.021   5.773
 5660TIP3   OH216943   6.104   4.955   0.368
 5660TIP3    H116944   6.043   4.930   0.437
 5660TIP3    H216945   6.077   5.044   0.343
 5661TIP3   OH216946   3.119   2.743   0.368
 5661TIP3    H116947   3.086   2.750   0.458
 5661TIP3    H216948   3.047   2.702   0.319
 5662TIP3   OH216949   5.572   4.373   4.414
 5662TIP3    H116950   5.538   4.284   4.404
 5662TIP3    H216951   5.528   4.407   4.492
 5663TIP3   OH216952   0.329   4.677   3.179
 5663TIP3    H116953   0.258   4.702   3.119
 5663TIP3    H216954   0.284   4.643   3.256
 5664TIP3   OH216955   0.714   2.585   5.541
 5664TIP3    H116956   0.674   2.566   5.626
 5664TIP3    H216957   0.691   2.676   5.523
 5665TIP3   OH216958   2.708   3.256   5.585
 5665TIP3    H116959   2.627   3.235   5.633
 5665TIP3    H216960   2.763   3.301   5.650
 5666TIP3   OH216961   2.454   3.246   1.216
 5666TIP3    H116962   2.404   3.191   1.155
 5666TIP3    H216963   2.389   3.307   1.252
 5667TIP3   OH216964   0.901   1.676   4.245
 5667TIP3    H116965   0.843   1.644   4.176
 5667TIP3    H216966   0.986   1.686   4.202
 5668TIP3   OH216967   4.881   5.831   0.144
 5668TIP3    H116968   4.793   5.828   0.181
 5668TIP3    H216969   4.914   5.742   0.154
 5669TIP3   OH216970   3.869   3.772   3.950
 5669TIP3    H116971   3.875   3.690   3.999
 5669TIP3    H216972   3.796   3.758   3.890
 5670TIP3   OH216973   6.961   6.608   1.876
 5670TIP3    H116974   7.056   6.609   1.865
 5670TIP3    H216975   6.945   6.543   1.944
 5671TIP3   OH216976   4.134   3.421   4.153
 5671TIP3    H116977   4.174   3.451   4.072
 5671TIP3    H216978   4.204   3.424   4.218
 5672TIP3   OH216979   4.328   3.486   4.341
 5672TIP3    H116980   4.398   3.549   4.321
 5672TIP3    H216981   4.274   3.530   4.406
 5673TIP3   OH216982   3.498   2.543   0.681
 5673TIP3    H116983   3.530   2.553   0.592
 5673TIP3    H216984   3.429   2.609   0.690
 5674TIP3   OH216985   2.573   3.590   0.917
 5674TIP3    H116986   2.557   3.533   0.842
 5674TIP3    H216987   2.516   3.666   0.902
 5675TIP3   OH216988   5.950   4.040   0.212
 5675TIP3    H116989   5.928   4.127   0.245
 5675TIP3    H216990   6.041   4.046   0.185
 5676TIP3   OH216991   1.766   0.128   4.672
 5676TIP3    H116992   1.804   0.105   4.757
 5676TIP3    H216993   1.677   0.092   4.675
 5677TIP3   OH216994   0.944   1.187   5.620
 5677TIP3    H116995   0.928   1.256   5.685
 5677TIP3    H216996   0.983   1.115   5.671
 5678TIP3   OH216997   2.830   3.178   2.978
 5678TIP3    H116998   2.911   3.149   3.020
 5678TIP3    H216999   2.792   3.098   2.940
 5679TIP3   OH217000   3.812   1.159   4.064
 5679TIP3    H117001   3.730   1.135   4.107
 5679TIP3    H217002   3.864   1.079   4.068
 5680TIP3   OH217003   6.994   2.397   2.989
 5680TIP3    H117004   6.930   2.413   2.920
 5680TIP3    H217005   7.006   2.302   2.991
 5681TIP3   OH217006   0.920   3.259   4.641
 5681TIP3    H117007   0.921   3.270   4.546
 5681TIP3    H217008   0.833   3.227   4.661
 5682TIP3   OH217009   4.784   5.199   2.487
 5682TIP3    H117010   4.709   5.172   2.540
 5682TIP3    H217011   4.859   5.159   2.530
 5683TIP3   OH217012   3.552   0.978   4.419
 5683TIP3    H117013   3.463   0.984   4.385
 5683TIP3    H217014   3.605   0.955   4.343
 5684TIP3   OH217015   5.534   3.797   1.833
 5684TIP3    H117016   5.594   3.723   1.845
 5684TIP3    H217017   5.459   3.777   1.889
 5685TIP3   OH217018   0.199   0.900   1.844
 5685TIP3    H117019   0.140   0.970   1.814
 5685TIP3    H217020   0.223   0.926   1.933
 5686TIP3   OH217021   0.317   5.058   2.123
 5686TIP3    H117022   0.329   5.053   2.218
 5686TIP3    H217023   0.364   5.137   2.097
 5687TIP3   OH217024   4.470   0.801   5.679
 5687TIP3    H117025   4.392   0.806   5.625
 5687TIP3    H217026   4.442   0.832   5.765
 5688TIP3   OH217027   2.246   1.866   5.422
 5688TIP3    H117028   2.240   1.773   5.398
 5688TIP3    H217029   2.340   1.884   5.427
 5689TIP3   OH217030   3.686   5.396   1.671
 5689TIP3    H117031   3.679   5.430   1.582
 5689TIP3    H217032   3.599   5.406   1.708
 5690TIP3   OH217033   6.867   3.905   2.135
 5690TIP3    H117034   6.906   3.819   2.120
 5690TIP3    H217035   6.796   3.889   2.197
 5691TIP3   OH217036   5.379   6.631   5.564
 5691TIP3    H117037   5.429   6.612   5.643
 5691TIP3    H217038   5.318   6.557   5.556
 5692TIP3   OH217039   6.281   0.321   2.719
 5692TIP3    H117040   6.317   0.246   2.767
 5692TIP3    H217041   6.350   0.387   2.723
 5693TIP3   OH217042   1.936   4.595   5.362
 5693TIP3    H117043   1.923   4.679   5.316
 5693TIP3    H217044   1.852   4.550   5.354
 5694TIP3   OH217045   0.679   3.771   2.620
 5694TIP3    H117046   0.734   3.839   2.660
 5694TIP3    H217047   0.738   3.697   2.608
 5695TIP3   OH217048   1.721   2.065   1.720
 5695TIP3    H117049   1.711   2.030   1.631
 5695TIP3    H217050   1.746   2.157   1.707
 5696TIP3   OH217051   7.245   5.287   2.711
 5696TIP3    H117052   7.316   5.342   2.678
 5696TIP3    H217053   7.213   5.334   2.789
 5697TIP3   OH217054   5.517   2.996   3.317
 5697TIP3    H117055   5.561   3.004   3.232
 5697TIP3    H217056   5.425   3.015   3.298
 5698TIP3   OH217057   7.001   6.076   4.668
 5698TIP3    H117058   7.078   6.027   4.639
 5698TIP3    H217059   7.000   6.065   4.763
 5699TIP3   OH217060   5.507   2.167   0.339
 5699TIP3    H117061   5.579   2.114   0.306
 5699TIP3    H217062   5.543   2.255   0.347
 5700TIP3   OH217063   5.641   2.729   4.797
 5700TIP3    H117064   5.652   2.793   4.726
 5700TIP3    H217065   5.557   2.687   4.778
 5701TIP3   OH217066   2.912   0.306   5.634
 5701TIP3    H117067   2.928   0.301   5.728
 5701TIP3    H217068   2.949   0.225   5.599
 5702TIP3   OH217069   4.836   6.571   1.440
 5702TIP3    H117070   4.893   6.598   1.368
 5702TIP3    H217071   4.849   6.637   1.507
 5703TIP3   OH217072   0.253   1.551   1.211
 5703TIP3    H117073   0.285   1.615   1.275
 5703TIP3    H217074   0.323   1.545   1.146
 5704TIP3   OH217075   3.195   6.345   1.236
 5704TIP3    H117076   3.233   6.273   1.285
 5704TIP3    H217077   3.211   6.324   1.144
 5705TIP3   OH217078   2.543   5.748   2.154
 5705TIP3    H117079   2.468   5.719   2.102
 5705TIP3    H217080   2.514   5.741   2.245
 5706TIP3   OH217081   2.720   6.743   5.196
 5706TIP3    H117082   2.682   6.656   5.208
 5706TIP3    H217083   2.661   6.801   5.245
 5707TIP3   OH217084   6.578   2.906   2.968
 5707TIP3    H117085   6.667   2.933   2.990
 5707TIP3    H217086   6.570   2.920   2.874
 5708TIP3   OH217087   4.248   2.198   3.545
 5708TIP3    H117088   4.292   2.252   3.479
 5708TIP3    H217089   4.187   2.257   3.589
 5709TIP3   OH217090   5.481   1.534   4.166
 5709TIP3    H117091   5.470   1.598   4.096
 5709TIP3    H217092   5.393   1.514   4.195
 5710TIP3   OH217093   6.929   4.389   4.145
 5710TIP3    H117094   7.017   4.390   4.108
 5710TIP3    H217095   6.930   4.316   4.207
 5711TIP3   OH217096   4.652   4.858   3.560
 5711TIP3    H117097   4.652   4.938   3.509
 5711TIP3    H217098   4.655   4.887   3.651
 5712TIP3   OH217099   4.274   6.438   5.430
 5712TIP3    H117100   4.241   6.385   5.358
 5712TIP3    H217101   4.331   6.379   5.479
 5713TIP3   OH217102   4.162   1.593   3.544
 5713TIP3    H117103   4.192   1.525   3.604
 5713TIP3    H217104   4.070   1.608   3.569
 5714TIP3   OH217105   4.886   4.730  -0.015
 5714TIP3    H117106   4.930   4.801  -0.062
 5714TIP3    H217107   4.943   4.711   0.060
 5715TIP3   OH217108   2.567   3.268   0.669
 5715TIP3    H117109   2.586   3.175   0.656
 5715TIP3    H217110   2.653   3.308   0.681
 5716TIP3   OH217111   6.374   5.777   5.484
 5716TIP3    H117112   6.446   5.723   5.517
 5716TIP3    H217113   6.410   5.866   5.480
 5717TIP3   OH217114   2.341   4.576   2.514
 5717TIP3    H117115   2.421   4.558   2.562
 5717TIP3    H217116   2.280   4.608   2.581
 5718TIP3   OH217117   1.723   3.487   2.965
 5718TIP3    H117118   1.806   3.477   2.918
 5718TIP3    H217119   1.656   3.482   2.896
 5719TIP3   OH217120   1.060   5.582   4.073
 5719TIP3    H117121   0.983   5.558   4.023
 5719TIP3    H217122   1.113   5.635   4.014
 5720TIP3   OH217123   4.494  -0.013   0.602
 5720TIP3    H117124   4.454   0.019   0.683
 5720TIP3    H217125   4.584  -0.034   0.626
 5721TIP3   OH217126   6.501   3.083   5.390
 5721TIP3    H117127   6.416   3.090   5.347
 5721TIP3    H217128   6.528   2.992   5.377
 5722TIP3   OH217129   4.425   1.923   0.321
 5722TIP3    H117130   4.487   1.894   0.388
 5722TIP3    H217131   4.375   1.993   0.363
 5723TIP3   OH217132   3.583   6.094   1.368
 5723TIP3    H117133   3.547   6.101   1.279
 5723TIP3    H217134   3.511   6.121   1.425
 5724TIP3   OH217135   3.034   1.791   0.398
 5724TIP3    H117136   3.115   1.802   0.348
 5724TIP3    H217137   3.062   1.755   0.482
 5725TIP3   OH217138   5.872   2.420   0.182
 5725TIP3    H117139   5.897   2.469   0.103
 5725TIP3    H217140   5.955   2.400   0.225
 5726TIP3   OH217141   7.184   1.329   0.471
 5726TIP3    H117142   7.241   1.364   0.403
 5726TIP3    H217143   7.150   1.407   0.516
 5727TIP3   OH217144   5.080   1.311   5.232
 5727TIP3    H117145   5.040   1.388   5.192
 5727TIP3    H217146   5.173   1.320   5.214
 5728TIP3   OH217147   0.387   4.231   0.164
 5728TIP3    H117148   0.320   4.200   0.103
 5728TIP3    H217149   0.448   4.280   0.109
 5729TIP3   OH217150   1.339   0.571   4.822
 5729TIP3    H117151   1.290   0.596   4.900
 5729TIP3    H217152   1.315   0.636   4.756
 5730TIP3   OH217153   6.560   1.718   1.566
 5730TIP3    H117154   6.644   1.717   1.520
 5730TIP3    H217155   6.533   1.626   1.569
 5731TIP3   OH217156   0.445   5.619   2.795
 5731TIP3    H117157   0.517   5.635   2.733
 5731TIP3    H217158   0.489   5.612   2.880
 5732TIP3   OH217159   2.237   2.612   5.834
 5732TIP3    H117160   2.312   2.584   5.781
 5732TIP3    H217161   2.168   2.629   5.770
 5733TIP3   OH217162   3.601   0.563   5.422
 5733TIP3    H117163   3.508   0.573   5.400
 5733TIP3    H217164   3.617   0.469   5.420
 5734TIP3   OH217165   6.435   4.482   3.123
 5734TIP3    H117166   6.402   4.396   3.149
 5734TIP3    H217167   6.365   4.520   3.070
 5735TIP3   OH217168   5.404   4.141   2.936
 5735TIP3    H117169   5.476   4.204   2.941
 5735TIP3    H217170   5.376   4.143   2.844
 5736TIP3   OH217171   6.977   4.028   5.328
 5736TIP3    H117172   6.888   3.995   5.315
 5736TIP3    H217173   7.022   4.007   5.246
 5737TIP3   OH217174   3.486   6.141   4.716
 5737TIP3    H117175   3.480   6.127   4.621
 5737TIP3    H217176   3.550   6.210   4.726
 5738TIP3   OH217177   3.689   5.172   0.865
 5738TIP3    H117178   3.593   5.176   0.861
 5738TIP3    H217179   3.715   5.262   0.886
 5739TIP3   OH217180   2.144   2.466   2.814
 5739TIP3    H117181   2.057   2.507   2.813
 5739TIP3    H217182   2.127   2.374   2.797
 5740TIP3   OH217183   3.665   0.327   3.232
 5740TIP3    H117184   3.632   0.301   3.146
 5740TIP3    H217185   3.751   0.285   3.239
 5741TIP3   OH217186   2.642   0.214   5.487
 5741TIP3    H117187   2.721   0.185   5.441
 5741TIP3    H217188   2.617   0.140   5.541
 5742TIP3   OH217189   5.248   2.855   2.166
 5742TIP3    H117190   5.199   2.917   2.112
 5742TIP3    H217191   5.253   2.776   2.113
 5743TIP3   OH217192   5.557   6.463   1.427
 5743TIP3    H117193   5.577   6.522   1.354
 5743TIP3    H217194   5.536   6.380   1.384
 5744TIP3   OH217195   3.157   2.964   5.107
 5744TIP3    H117196   3.197   2.976   5.193
 5744TIP3    H217197   3.120   3.049   5.086
 5745TIP3   OH217198   0.872   4.904   0.737
 5745TIP3    H117199   0.813   4.864   0.800
 5745TIP3    H217200   0.943   4.841   0.728
 5746TIP3   OH217201   6.159   3.858   3.378
 5746TIP3    H117202   6.199   3.919   3.440
 5746TIP3    H217203   6.149   3.908   3.297
 5747TIP3   OH217204   3.059   5.223   1.559
 5747TIP3    H117205   3.003   5.293   1.594
 5747TIP3    H217206   3.015   5.142   1.585
 5748TIP3   OH217207   0.379   2.704   5.426
 5748TIP3    H117208   0.319   2.642   5.467
 5748TIP3    H217209   0.356   2.702   5.333
 5749TIP3   OH217210   5.351   1.004   4.778
 5749TIP3    H117211   5.337   1.032   4.688
 5749TIP3    H217212   5.388   0.916   4.770
 5750TIP3   OH217213   0.098   0.557   2.845
 5750TIP3    H117214   0.064   0.562   2.756
 5750TIP3    H217215   0.022   0.536   2.899
 5751TIP3   OH217216   0.957   3.075   5.156
 5751TIP3    H117217   0.962   3.124   5.238
 5751TIP3    H217218   0.863   3.068   5.138
 5752TIP3   OH217219   3.161   2.215   0.595
 5752TIP3    H117220   3.075   2.197   0.633
 5752TIP3    H217221   3.190   2.296   0.637
 5753TIP3   OH217222   1.332   3.767   2.031
 5753TIP3    H117223   1.240   3.739   2.024
 5753TIP3    H217224   1.327   3.854   2.071
 5754TIP3   OH217225   3.560   5.441   2.646
 5754TIP3    H117226   3.566   5.534   2.624
 5754TIP3    H217227   3.646   5.419   2.681
 5755TIP3   OH217228   6.090   2.840   1.175
 5755TIP3    H117229   6.108   2.922   1.222
 5755TIP3    H217230   6.169   2.826   1.122
 5756TIP3   OH217231   0.313   4.283   5.421
 5756TIP3    H117232   0.220   4.262   5.418
 5756TIP3    H217233   0.352   4.212   5.472
 5757TIP3   OH217234   6.182   5.945   5.599
 5757TIP3    H117235   6.273   5.928   5.575
 5757TIP3    H217236   6.141   5.977   5.519
 5758TIP3   OH217237   2.369   2.647   4.533
 5758TIP3    H117238   2.320   2.638   4.451
 5758TIP3    H217239   2.439   2.709   4.512
 5759TIP3   OH217240   6.062   2.164   4.910
 5759TIP3    H117241   6.003   2.221   4.860
 5759TIP3    H217242   6.148   2.203   4.897
 5760TIP3   OH217243   4.117   6.472   4.474
 5760TIP3    H117244   4.082   6.479   4.385
 5760TIP3    H217245   4.098   6.557   4.514
 5761TIP3   OH217246   5.406   2.049   0.078
 5761TIP3    H117247   5.499   2.026   0.082
 5761TIP3    H217248   5.365   1.995   0.145
 5762TIP3   OH217249   6.213   6.787   2.453
 5762TIP3    H117250   6.139   6.830   2.411
 5762TIP3    H217251   6.282   6.785   2.386
 5763TIP3   OH217252   6.871   2.523   1.028
 5763TIP3    H117253   6.916   2.522   1.112
 5763TIP3    H217254   6.804   2.591   1.037
 5764TIP3   OH217255   4.236   6.732   5.813
 5764TIP3    H117256   4.145   6.728   5.784
 5764TIP3    H217257   4.287   6.708   5.736
 5765TIP3   OH217258   0.087   2.390   2.660
 5765TIP3    H117259  -0.001   2.354   2.670
 5765TIP3    H217260   0.115   2.362   2.573
 5766TIP3   OH217261   4.708   4.553   5.045
 5766TIP3    H117262   4.686   4.467   5.008
 5766TIP3    H217263   4.681   4.615   4.977
 5767TIP3   OH217264   0.546   5.916   3.647
 5767TIP3    H117265   0.506   5.873   3.572
 5767TIP3    H217266   0.496   5.996   3.659
 5768TIP3   OH217267   4.419   5.808   5.806
 5768TIP3    H117268   4.462   5.799   5.892
 5768TIP3    H217269   4.332   5.843   5.826
 5769TIP3   OH217270   3.700   5.681   5.057
 5769TIP3    H117271   3.743   5.596   5.048
 5769TIP3    H217272   3.607   5.660   5.064
 5770TIP3   OH217273   4.487   0.008   2.530
 5770TIP3    H117274   4.398  -0.020   2.552
 5770TIP3    H217275   4.542  -0.067   2.554
 5771TIP3   OH217276   6.381   6.357   5.355
 5771TIP3    H117277   6.311   6.303   5.318
 5771TIP3    H217278   6.352   6.376   5.444
 5772TIP3   OH217279   2.132   4.990   5.018
 5772TIP3    H117280   2.070   4.935   4.969
 5772TIP3    H217281   2.078   5.036   5.082
 5773TIP3   OH217282   4.676   2.922   4.004
 5773TIP3    H117283   4.602   2.981   4.020
 5773TIP3    H217284   4.752   2.979   4.006
 5774TIP3   OH217285   1.024   4.800   2.430
 5774TIP3    H117286   0.939   4.800   2.386
 5774TIP3    H217287   1.045   4.707   2.443
 5775TIP3   OH217288   1.373   5.673   2.301
 5775TIP3    H117289   1.299   5.615   2.282
 5775TIP3    H217290   1.437   5.617   2.345
 5776TIP3   OH217291   7.057   3.983   0.061
 5776TIP3    H117292   7.080   4.075   0.056
 5776TIP3    H217293   7.050   3.954  -0.030
 5777TIP3   OH217294   0.612   0.300   3.383
 5777TIP3    H117295   0.565   0.267   3.306
 5777TIP3    H217296   0.547   0.300   3.453
 5778TIP3   OH217297   3.689   2.744   0.235
 5778TIP3    H117298   3.600   2.709   0.243
 5778TIP3    H217299   3.700   2.799   0.312
 5779TIP3   OH217300   3.326   6.672   2.871
 5779TIP3    H117301   3.322   6.767   2.875
 5779TIP3    H217302   3.345   6.652   2.779
 5780TIP3   OH217303   0.846   5.077   1.204
 5780TIP3    H117304   0.883   5.099   1.290
 5780TIP3    H217305   0.754   5.101   1.211
 5781TIP3   OH217306   3.191   3.901   1.580
 5781TIP3    H117307   3.143   3.831   1.625
 5781TIP3    H217308   3.124   3.946   1.529
 5782TIP3   OH217309   5.167   2.483   1.787
 5782TIP3    H117310   5.140   2.392   1.797
 5782TIP3    H217311   5.187   2.492   1.694
 5783TIP3   OH217312   4.295   1.506   3.889
 5783TIP3    H117313   4.331   1.508   3.800
 5783TIP3    H217314   4.201   1.517   3.877
 5784TIP3   OH217315   1.704   4.937   2.813
 5784TIP3    H117316   1.782   4.975   2.773
 5784TIP3    H217317   1.648   4.914   2.739
 5785TIP3   OH217318   5.641   3.961   0.922
 5785TIP3    H117319   5.624   3.936   0.832
 5785TIP3    H217320   5.733   3.987   0.923
 5786TIP3   OH217321   3.253   2.782   4.027
 5786TIP3    H117322   3.231   2.699   4.069
 5786TIP3    H217323   3.295   2.834   4.096
 5787TIP3   OH217324   1.977   1.232   0.460
 5787TIP3    H117325   2.031   1.177   0.404
 5787TIP3    H217326   2.034   1.254   0.534
 5788TIP3   OH217327   1.409   4.447   5.136
 5788TIP3    H117328   1.387   4.371   5.189
 5788TIP3    H217329   1.500   4.435   5.112
 5789TIP3   OH217330   2.423   1.647   3.397
 5789TIP3    H117331   2.382   1.732   3.408
 5789TIP3    H217332   2.483   1.658   3.323
 5790TIP3   OH217333   1.811   4.081  -0.022
 5790TIP3    H117334   1.749   4.009  -0.011
 5790TIP3    H217335   1.778   4.130  -0.097
 5791TIP3   OH217336   5.923   2.193   4.456
 5791TIP3    H117337   5.972   2.245   4.519
 5791TIP3    H217338   5.963   2.106   4.460
 5792TIP3   OH217339   3.526   4.076   4.778
 5792TIP3    H117340   3.439   4.041   4.759
 5792TIP3    H217341   3.587   4.009   4.748
 5793TIP3   OH217342   0.211   4.564   4.734
 5793TIP3    H117343   0.245   4.477   4.714
 5793TIP3    H217344   0.278   4.604   4.788
 5794TIP3   OH217345   1.890   2.572   4.138
 5794TIP3    H117346   1.832   2.638   4.176
 5794TIP3    H217347   1.925   2.524   4.213
 5795TIP3   OH217348   5.373   4.692   3.923
 5795TIP3    H117349   5.373   4.722   4.014
 5795TIP3    H217350   5.463   4.704   3.894
 5796TIP3   OH217351   3.302   1.283   4.882
 5796TIP3    H117352   3.357   1.205   4.897
 5796TIP3    H217353   3.267   1.304   4.969
 5797TIP3   OH217354   3.016   5.975   4.149
 5797TIP3    H117355   3.012   6.058   4.101
 5797TIP3    H217356   2.956   5.917   4.101
 5798TIP3   OH217357   0.294   1.961   5.568
 5798TIP3    H117358   0.361   1.951   5.501
 5798TIP3    H217359   0.261   2.050   5.556
 5799TIP3   OH217360   5.864   6.581   5.000
 5799TIP3    H117361   5.914   6.503   4.977
 5799TIP3    H217362   5.925   6.654   4.986
 5800TIP3   OH217363   7.165   5.480   5.105
 5800TIP3    H117364   7.108   5.432   5.045
 5800TIP3    H217365   7.116   5.484   5.187
 5801TIP3   OH217366   0.410   3.700  -0.012
 5801TIP3    H117367   0.430   3.776   0.042
 5801TIP3    H217368   0.445   3.626   0.037
 5802TIP3   OH217369   1.525   6.218   0.057
 5802TIP3    H117370   1.481   6.292   0.017
 5802TIP3    H217371   1.477   6.141   0.025
 5803TIP3   OH217372   0.183   1.047   2.672
 5803TIP3    H117373   0.146   1.105   2.739
 5803TIP3    H217374   0.141   0.962   2.688
 5804TIP3   OH217375   3.749   0.234   4.823
 5804TIP3    H117376   3.668   0.201   4.784
 5804TIP3    H217377   3.790   0.286   4.754
 5805TIP3   OH217378  -0.006   0.137   1.247
 5805TIP3    H117379   0.032   0.212   1.201
 5805TIP3    H217380   0.069   0.085   1.274
 5806TIP3   OH217381   0.465   3.460   4.839
 5806TIP3    H117382   0.386   3.445   4.787
 5806TIP3    H217383   0.533   3.408   4.795
 5807TIP3   OH217384   5.067   1.401   1.985
 5807TIP3    H117385   5.122   1.422   2.061
 5807TIP3    H217386   5.000   1.469   1.985
 5808TIP3   OH217387   6.632   4.920   3.318
 5808TIP3    H117388   6.570   4.989   3.343
 5808TIP3    H217389   6.680   4.901   3.399
 5809TIP3   OH217390   4.685   0.614   0.195
 5809TIP3    H117391   4.594   0.616   0.225
 5809TIP3    H217392   4.679   0.604   0.100
 5810TIP3   OH217393   0.582   3.820   4.555
 5810TIP3    H117394   0.617   3.795   4.470
 5810TIP3    H217395   0.629   3.765   4.618
 5811TIP3   OH217396   6.114   2.523   4.992
 5811TIP3    H117397   6.029   2.552   4.960
 5811TIP3    H217398   6.095   2.474   5.071
 5812TIP3   OH217399   3.294   1.312   1.419
 5812TIP3    H117400   3.368   1.264   1.381
 5812TIP3    H217401   3.290   1.280   1.509
 5813TIP3   OH217402   3.799   2.892   5.813
 5813TIP3    H117403   3.714   2.873   5.853
 5813TIP3    H217404   3.842   2.807   5.807
 5814TIP3   OH217405   6.487   5.190   1.717
 5814TIP3    H117406   6.426   5.125   1.684
 5814TIP3    H217407   6.456   5.209   1.806
 5815TIP3   OH217408   2.730   5.744   2.720
 5815TIP3    H117409   2.821   5.740   2.693
 5815TIP3    H217410   2.712   5.838   2.731
 5816TIP3   OH217411   6.311   2.874   4.205
 5816TIP3    H117412   6.262   2.941   4.158
 5816TIP3    H217413   6.337   2.916   4.287
 5817TIP3   OH217414   0.845   3.169   1.551
 5817TIP3    H117415   0.853   3.075   1.534
 5817TIP3    H217416   0.812   3.174   1.641
 5818TIP3   OH217417   4.856   0.135   2.340
 5818TIP3    H117418   4.933   0.090   2.307
 5818TIP3    H217419   4.809   0.163   2.261
 5819TIP3   OH217420   5.751   0.354   3.063
 5819TIP3    H117421   5.824   0.297   3.035
 5819TIP3    H217422   5.761   0.361   3.157
 5820TIP3   OH217423   5.297   1.683   5.461
 5820TIP3    H117424   5.364   1.654   5.400
 5820TIP3    H217425   5.327   1.769   5.490
 5821TIP3   OH217426   4.281   3.566   2.612
 5821TIP3    H117427   4.280   3.534   2.522
 5821TIP3    H217428   4.189   3.571   2.636
 5822TIP3   OH217429   1.622   2.382   1.754
 5822TIP3    H117430   1.665   2.460   1.790
 5822TIP3    H217431   1.599   2.407   1.664
 5823TIP3   OH217432   2.385   4.627   4.578
 5823TIP3    H117433   2.388   4.721   4.596
 5823TIP3    H217434   2.465   4.609   4.529
 5824TIP3   OH217435   6.694   4.584   5.335
 5824TIP3    H117436   6.630   4.513   5.338
 5824TIP3    H217437   6.779   4.540   5.345
 5825TIP3   OH217438   2.993   0.269   1.967
 5825TIP3    H117439   3.015   0.177   1.983
 5825TIP3    H217440   3.021   0.284   1.876
 5826TIP3   OH217441   2.543   0.178   2.622
 5826TIP3    H117442   2.509   0.187   2.533
 5826TIP3    H217443   2.559   0.268   2.650
 5827TIP3   OH217444   4.217   0.621   2.412
 5827TIP3    H117445   4.149   0.648   2.351
 5827TIP3    H217446   4.268   0.555   2.365
 5828TIP3   OH217447   3.388   3.661   0.422
 5828TIP3    H117448   3.420   3.696   0.339
 5828TIP3    H217449   3.424   3.720   0.489
 5829TIP3   OH217450   0.097   5.422   4.080
 5829TIP3    H117451   0.103   5.331   4.051
 5829TIP3    H217452   0.014   5.426   4.128
 5830TIP3   OH217453   3.687   2.834   4.248
 5830TIP3    H117454   3.754   2.781   4.290
 5830TIP3    H217455   3.638   2.872   4.320
 5831TIP3   OH217456   0.156   3.233   1.352
 5831TIP3    H117457   0.202   3.168   1.404
 5831TIP3    H217458   0.225   3.277   1.302
 5832TIP3   OH217459   1.385   5.400   0.479
 5832TIP3    H117460   1.384   5.451   0.398
 5832TIP3    H217461   1.296   5.410   0.515
 5833TIP3   OH217462   7.165   0.555   1.006
 5833TIP3    H117463   7.081   0.597   1.027
 5833TIP3    H217464   7.151   0.462   1.025
 5834TIP3   OH217465   6.880   5.675   4.853
 5834TIP3    H117466   6.832   5.711   4.778
 5834TIP3    H217467   6.892   5.749   4.912
 5835TIP3   OH217468   6.209   1.878   4.768
 5835TIP3    H117469   6.272   1.927   4.715
 5835TIP3    H217470   6.124   1.911   4.739
 5836TIP3   OH217471   0.174   4.091   1.614
 5836TIP3    H117472   0.243   4.134   1.665
 5836TIP3    H217473   0.141   4.021   1.671
 5837TIP3   OH217474   4.534   0.301   4.669
 5837TIP3    H117475   4.579   0.219   4.651
 5837TIP3    H217476   4.514   0.298   4.763
 5838TIP3   OH217477   5.988   6.195   1.865
 5838TIP3    H117478   5.896   6.211   1.841
 5838TIP3    H217479   6.009   6.265   1.927
 5839TIP3   OH217480   5.787   0.939   0.549
 5839TIP3    H117481   5.790   0.845   0.562
 5839TIP3    H217482   5.780   0.976   0.637
 5840TIP3   OH217483   6.881   2.813   1.023
 5840TIP3    H117484   6.945   2.745   1.003
 5840TIP3    H217485   6.927   2.871   1.085
 5841TIP3   OH217486   0.544   2.422   4.045
 5841TIP3    H117487   0.620   2.395   3.994
 5841TIP3    H217488   0.469   2.389   3.997
 5842TIP3   OH217489   3.585   2.493   5.037
 5842TIP3    H117490   3.566   2.458   4.950
 5842TIP3    H217491   3.624   2.420   5.085
 5843TIP3   OH217492   5.972   3.900   2.943
 5843TIP3    H117493   6.033   3.830   2.921
 5843TIP3    H217494   5.886   3.862   2.926
 5844TIP3   OH217495   4.021   3.203   5.320
 5844TIP3    H117496   4.006   3.201   5.415
 5844TIP3    H217497   4.110   3.237   5.311
 5845TIP3   OH217498   1.099   2.216   4.447
 5845TIP3    H117499   1.083   2.303   4.410
 5845TIP3    H217500   1.051   2.156   4.389
 5846TIP3   OH217501   5.343   5.320   2.772
 5846TIP3    H117502   5.418   5.278   2.813
 5846TIP3    H217503   5.381   5.371   2.700
 5847TIP3   OH217504   6.318   1.753   5.524
 5847TIP3    H117505   6.328   1.704   5.606
 5847TIP3    H217506   6.286   1.839   5.552
 5848TIP3   OH217507   0.279   1.806   3.945
 5848TIP3    H117508   0.324   1.866   3.886
 5848TIP3    H217509   0.202   1.854   3.974
 5849TIP3   OH217510   1.067   3.610   0.243
 5849TIP3    H117511   1.146   3.664   0.241
 5849TIP3    H217512   0.995   3.673   0.245
 5850TIP3   OH217513   6.604   5.306   0.569
 5850TIP3    H117514   6.618   5.380   0.629
 5850TIP3    H217515   6.632   5.230   0.620
 5851TIP3   OH217516   3.698   3.699   1.893
 5851TIP3    H117517   3.701   3.773   1.832
 5851TIP3    H217518   3.689   3.739   1.979
 5852TIP3   OH217519   3.352   0.560   3.378
 5852TIP3    H117520   3.349   0.566   3.282
 5852TIP3    H217521   3.377   0.648   3.406
 5853TIP3   OH217522   4.908   0.513   1.667
 5853TIP3    H117523   4.877   0.526   1.577
 5853TIP3    H217524   4.912   0.601   1.705
 5854TIP3   OH217525   4.087   0.932   4.500
 5854TIP3    H117526   4.047   0.961   4.582
 5854TIP3    H217527   4.181   0.942   4.514
 5855TIP3   OH217528   3.919   6.107   4.785
 5855TIP3    H117529   3.840   6.150   4.752
 5855TIP3    H217530   3.975   6.179   4.814
 5856TIP3   OH217531   3.480   0.344   3.798
 5856TIP3    H117532   3.415   0.381   3.858
 5856TIP3    H217533   3.491   0.411   3.730
 5857TIP3   OH217534   1.486   6.511   3.455
 5857TIP3    H117535   1.461   6.574   3.522
 5857TIP3    H217536   1.526   6.565   3.386
 5858TIP3   OH217537   3.922   0.122   5.621
 5858TIP3    H117538   3.847   0.090   5.572
 5858TIP3    H217539   3.889   0.136   5.710
 5859TIP3   OH217540   5.296   4.815   3.613
 5859TIP3    H117541   5.347   4.880   3.660
 5859TIP3    H217542   5.352   4.738   3.609
 5860TIP3   OH217543   3.807   1.562   5.030
 5860TIP3    H117544   3.746   1.561   5.104
 5860TIP3    H217545   3.764   1.508   4.963
 5861TIP3   OH217546   0.497   4.193   3.808
 5861TIP3    H117547   0.415   4.159   3.775
 5861TIP3    H217548   0.559   4.120   3.801
 5862TIP3   OH217549   5.030   1.410   3.558
 5862TIP3    H117550   4.998   1.329   3.598
 5862TIP3    H217551   4.958   1.438   3.501
 5863TIP3   OH217552   0.819   2.905   1.488
 5863TIP3    H117553   0.813   2.916   1.393
 5863TIP3    H217554   0.848   2.814   1.499
 5864TIP3   OH217555   5.400   2.596   5.359
 5864TIP3    H117556   5.327   2.654   5.379
 5864TIP3    H217557   5.422   2.615   5.268
 5865TIP3   OH217558   7.038   1.822   0.035
 5865TIP3    H117559   7.069   1.834   0.125
 5865TIP3    H217560   7.116   1.797  -0.015
 5866TIP3   OH217561   4.039   2.742   5.737
 5866TIP3    H117562   4.033   2.647   5.743
 5866TIP3    H217563   4.056   2.771   5.826
 5867TIP3   OH217564   4.335   5.989   3.453
 5867TIP3    H117565   4.301   6.076   3.474
 5867TIP3    H217566   4.374   5.999   3.366
 5868TIP3   OH217567   6.566   4.043   0.219
 5868TIP3    H117568   6.618   4.042   0.299
 5868TIP3    H217569   6.630   4.048   0.148
 5869TIP3   OH217570   2.369   0.717   3.453
 5869TIP3    H117571   2.408   0.797   3.417
 5869TIP3    H217572   2.443   0.667   3.487
 5870TIP3   OH217573   2.513   4.975   1.984
 5870TIP3    H117574   2.551   4.931   2.060
 5870TIP3    H217575   2.432   4.927   1.967
 5871TIP3   OH217576   3.427   2.135   2.159
 5871TIP3    H117577   3.483   2.163   2.231
 5871TIP3    H217578   3.480   2.073   2.109
 5872TIP3   OH217579   5.042   6.221   3.782
 5872TIP3    H117580   5.004   6.295   3.829
 5872TIP3    H217581   4.967   6.163   3.764
 5873TIP3   OH217582   0.797   0.041   0.229
 5873TIP3    H117583   0.824   0.090   0.306
 5873TIP3    H217584   0.742  -0.029   0.263
 5874TIP3   OH217585   3.392   4.319   4.765
 5874TIP3    H117586   3.467   4.259   4.769
 5874TIP3    H217587   3.430   4.406   4.778
 5875TIP3   OH217588   2.755   5.072   1.884
 5875TIP3    H117589   2.660   5.062   1.887
 5875TIP3    H217590   2.788   4.998   1.935
 5876TIP3   OH217591   4.582   0.656   4.034
 5876TIP3    H117592   4.643   0.706   3.980
 5876TIP3    H217593   4.638   0.603   4.091
 5877TIP3   OH217594   5.640   5.040   5.411
 5877TIP3    H117595   5.583   5.056   5.486
 5877TIP3    H217596   5.580   5.012   5.341
 5878TIP3   OH217597   6.956   0.296   1.487
 5878TIP3    H117598   7.006   0.370   1.454
 5878TIP3    H217599   6.864   0.324   1.482
 5879TIP3   OH217600   0.566   1.266   3.951
 5879TIP3    H117601   0.580   1.174   3.930
 5879TIP3    H217602   0.635   1.287   4.014
 5880TIP3   OH217603   2.185   0.657   5.226
 5880TIP3    H117604   2.228   0.732   5.268
 5880TIP3    H217605   2.092   0.672   5.239
 5881TIP3   OH217606   1.921   2.995   0.506
 5881TIP3    H117607   2.010   2.974   0.479
 5881TIP3    H217608   1.924   2.997   0.602
 5882TIP3   OH217609   2.119   4.002   5.512
 5882TIP3    H117610   2.038   4.048   5.488
 5882TIP3    H217611   2.184   4.071   5.520
 5883TIP3   OH217612   2.842   5.802   3.209
 5883TIP3    H117613   2.898   5.838   3.278
 5883TIP3    H217614   2.817   5.715   3.242
 5884TIP3   OH217615   3.298   4.688   1.570
 5884TIP3    H117616   3.309   4.759   1.633
 5884TIP3    H217617   3.344   4.614   1.609
 5885TIP3   OH217618   2.161   3.747   3.033
 5885TIP3    H117619   2.104   3.717   2.963
 5885TIP3    H217620   2.229   3.680   3.039
 5886TIP3   OH217621   5.532   3.325   5.028
 5886TIP3    H117622   5.579   3.386   5.085
 5886TIP3    H217623   5.561   3.348   4.940
 5887TIP3   OH217624   3.233   5.236   5.319
 5887TIP3    H117625   3.228   5.164   5.256
 5887TIP3    H217626   3.239   5.194   5.404
 5888TIP3   OH217627   1.256   0.912   3.193
 5888TIP3    H117628   1.325   0.889   3.130
 5888TIP3    H217629   1.265   1.006   3.205
 5889TIP3   OH217630   0.036   3.312   3.446
 5889TIP3    H117631  -0.003   3.389   3.403
 5889TIP3    H217632  -0.031   3.244   3.438
 5890TIP3   OH217633   2.445   5.311   4.767
 5890TIP3    H117634   2.387   5.237   4.751
 5890TIP3    H217635   2.529   5.272   4.788
 5891TIP3   OH217636   2.266   6.517   1.280
 5891TIP3    H117637   2.233   6.427   1.285
 5891TIP3    H217638   2.251   6.553   1.367
 5892TIP3   OH217639   6.033   2.583   1.073
 5892TIP3    H117640   6.043   2.670   1.111
 5892TIP3    H217641   5.977   2.536   1.134
 5893TIP3   OH217642   0.939   5.403   3.528
 5893TIP3    H117643   0.971   5.439   3.445
 5893TIP3    H217644   0.957   5.472   3.592
 5894TIP3   OH217645   0.629   4.444   1.957
 5894TIP3    H117646   0.543   4.415   1.987
 5894TIP3    H217647   0.687   4.370   1.976
 5895TIP3   OH217648   6.872   5.332   2.812
 5895TIP3    H117649   6.886   5.415   2.766
 5895TIP3    H217650   6.840   5.273   2.744
 5896TIP3   OH217651   6.986   4.317   5.362
 5896TIP3    H117652   7.039   4.243   5.330
 5896TIP3    H217653   6.905   4.312   5.310
 5897TIP3   OH217654   3.563   0.819   1.771
 5897TIP3    H117655   3.648   0.829   1.815
 5897TIP3    H217656   3.560   0.890   1.707
 5898TIP3   OH217657   2.055   0.630   0.921
 5898TIP3    H117658   2.132   0.646   0.865
 5898TIP3    H217659   2.019   0.718   0.936
 5899TIP3   OH217660   5.745   3.454   5.306
 5899TIP3    H117661   5.734   3.544   5.278
 5899TIP3    H217662   5.782   3.461   5.394
 5900TIP3   OH217663   1.782   0.321   5.226
 5900TIP3    H117664   1.785   0.227   5.245
 5900TIP3    H217665   1.808   0.363   5.308
 5901TIP3   OH217666   3.607   0.780   1.339
 5901TIP3    H117667   3.549   0.848   1.307
 5901TIP3    H217668   3.550   0.705   1.357
 5902TIP3   OH217669   1.567   1.022   1.120
 5902TIP3    H117670   1.562   1.043   1.027
 5902TIP3    H217671   1.477   1.002   1.145
 5903TIP3   OH217672   4.876   2.814   0.889
 5903TIP3    H117673   4.896   2.879   0.956
 5903TIP3    H217674   4.781   2.813   0.884
 5904TIP3   OH217675   5.466   2.063   2.467
 5904TIP3    H117676   5.546   2.111   2.442
 5904TIP3    H217677   5.471   1.982   2.417
 5905TIP3   OH217678   5.331   3.301   4.738
 5905TIP3    H117679   5.348   3.388   4.772
 5905TIP3    H217680   5.340   3.243   4.814
 5906TIP3   OH217681   6.926   2.421   3.728
 5906TIP3    H117682   6.940   2.326   3.732
 5906TIP3    H217683   6.904   2.438   3.636
 5907TIP3   OH217684   6.584   0.925   0.269
 5907TIP3    H117685   6.572   0.833   0.291
 5907TIP3    H217686   6.534   0.938   0.188
 5908TIP3   OH217687   0.961   5.263   1.005
 5908TIP3    H117688   0.987   5.223   0.922
 5908TIP3    H217689   0.905   5.197   1.046
 5909TIP3   OH217690   5.354   4.011   1.055
 5909TIP3    H117691   5.338   3.919   1.078
 5909TIP3    H217692   5.442   4.011   1.017
 5910TIP3   OH217693   3.395   5.353   2.875
 5910TIP3    H117694   3.445   5.400   2.809
 5910TIP3    H217695   3.362   5.276   2.829
 5911TIP3   OH217696   0.889   5.090   1.479
 5911TIP3    H117697   0.833   5.047   1.544
 5911TIP3    H217698   0.944   5.148   1.530
 5912TIP3   OH217699   0.230   3.580   3.720
 5912TIP3    H117700   0.260   3.494   3.693
 5912TIP3    H217701   0.311   3.630   3.733
 5913TIP3   OH217702   6.826   3.005   1.633
 5913TIP3    H117703   6.807   3.037   1.721
 5913TIP3    H217704   6.765   2.933   1.620
 5914TIP3   OH217705   5.264   1.408   3.684
 5914TIP3    H117706   5.170   1.403   3.670
 5914TIP3    H217707   5.302   1.406   3.596
 5915TIP3   OH217708   0.600   5.938   4.815
 5915TIP3    H117709   0.538   6.004   4.848
 5915TIP3    H217710   0.572   5.921   4.726
 5916TIP3   OH217711   2.271   5.695   5.064
 5916TIP3    H117712   2.178   5.712   5.073
 5916TIP3    H217713   2.277   5.605   5.032
 5917TIP3   OH217714   1.707   4.081   4.268
 5917TIP3    H117715   1.760   4.159   4.255
 5917TIP3    H217716   1.682   4.084   4.360
 5918TIP3   OH217717   4.493   5.849   2.256
 5918TIP3    H117718   4.532   5.932   2.228
 5918TIP3    H217719   4.520   5.786   2.190
 5919TIP3   OH217720   2.517   3.510   2.224
 5919TIP3    H117721   2.514   3.417   2.245
 5919TIP3    H217722   2.502   3.554   2.307
 5920TIP3   OH217723   3.891   5.894   5.785
 5920TIP3    H117724   3.889   5.956   5.712
 5920TIP3    H217725   3.801   5.892   5.818
 5921TIP3   OH217726   1.578   1.836   1.594
 5921TIP3    H117727   1.602   1.791   1.513
 5921TIP3    H217728   1.495   1.879   1.574
 5922TIP3   OH217729   4.656   5.657   2.041
 5922TIP3    H117730   4.696   5.739   2.012
 5922TIP3    H217731   4.729   5.603   2.070
 5923TIP3   OH217732   3.435   5.484   4.924
 5923TIP3    H117733   3.446   5.501   4.830
 5923TIP3    H217734   3.444   5.389   4.933
 5924TIP3   OH217735   6.863   6.070   5.887
 5924TIP3    H117736   6.800   6.028   5.946
 5924TIP3    H217737   6.811   6.100   5.813
 5925TIP3   OH217738   3.399   1.565   4.944
 5925TIP3    H117739   3.305   1.572   4.929
 5925TIP3    H217740   3.439   1.590   4.861
 5926TIP3   OH217741   5.306   4.162   4.442
 5926TIP3    H117742   5.314   4.145   4.348
 5926TIP3    H217743   5.213   4.176   4.456
 5927TIP3   OH217744   6.147   5.163   3.528
 5927TIP3    H117745   6.228   5.187   3.571
 5927TIP3    H217746   6.144   5.067   3.535
 5928TIP3   OH217747   4.407   1.651   5.051
 5928TIP3    H117748   4.421   1.622   5.141
 5928TIP3    H217749   4.378   1.572   5.005
 5929TIP3   OH217750   0.271   3.622   0.304
 5929TIP3    H117751   0.188   3.587   0.338
 5929TIP3    H217752   0.313   3.547   0.262
 5930TIP3   OH217753   5.153   0.538   3.776
 5930TIP3    H117754   5.163   0.444   3.764
 5930TIP3    H217755   5.064   0.557   3.746
 5931TIP3   OH217756   6.063   5.414   3.465
 5931TIP3    H117757   6.103   5.341   3.512
 5931TIP3    H217758   6.022   5.467   3.533
 5932TIP3   OH217759   4.644   2.923   4.373
 5932TIP3    H117760   4.627   2.915   4.467
 5932TIP3    H217761   4.685   3.008   4.363
 5933TIP3   OH217762   0.402   2.925   0.401
 5933TIP3    H117763   0.436   2.861   0.338
 5933TIP3    H217764   0.480   2.956   0.447
 5934TIP3   OH217765   2.658   6.527   3.791
 5934TIP3    H117766   2.678   6.592   3.859
 5934TIP3    H217767   2.628   6.578   3.716
 5935TIP3   OH217768   2.780   2.265   4.587
 5935TIP3    H117769   2.779   2.173   4.615
 5935TIP3    H217770   2.688   2.285   4.569
 5936TIP3   OH217771   4.427   2.352   3.359
 5936TIP3    H117772   4.397   2.442   3.355
 5936TIP3    H217773   4.374   2.306   3.295
 5937TIP3   OH217774   6.485   4.704   5.665
 5937TIP3    H117775   6.575   4.723   5.690
 5937TIP3    H217776   6.443   4.675   5.746
 5938TIP3   OH217777   1.432   2.284   3.998
 5938TIP3    H117778   1.460   2.365   4.040
 5938TIP3    H217779   1.485   2.215   4.039
 5939TIP3   OH217780   2.254   1.111   2.226
 5939TIP3    H117781   2.316   1.183   2.219
 5939TIP3    H217782   2.194   1.138   2.295
 5940TIP3   OH217783   3.829   4.168   4.795
 5940TIP3    H117784   3.781   4.226   4.736
 5940TIP3    H217785   3.858   4.225   4.866
 5941TIP3   OH217786   1.352   0.782   5.817
 5941TIP3    H117787   1.372   0.716   5.883
 5941TIP3    H217788   1.429   0.839   5.815
 5942TIP3   OH217789   0.019   0.476   1.435
 5942TIP3    H117790   0.088   0.439   1.490
 5942TIP3    H217791   0.054   0.474   1.347
 5943TIP3   OH217792   5.784   2.180   1.567
 5943TIP3    H117793   5.789   2.232   1.647
 5943TIP3    H217794   5.705   2.127   1.577
 5944TIP3   OH217795   2.596   1.762   0.399
 5944TIP3    H117796   2.664   1.809   0.351
 5944TIP3    H217797   2.631   1.750   0.487
 5945TIP3   OH217798   0.314   5.140   3.651
 5945TIP3    H117799   0.384   5.100   3.600
 5945TIP3    H217800   0.240   5.080   3.642
 5946TIP3   OH217801   4.869   4.708   5.509
 5946TIP3    H117802   4.780   4.744   5.502
 5946TIP3    H217803   4.888   4.674   5.422
 5947TIP3   OH217804   2.718   3.985   3.954
 5947TIP3    H117805   2.638   3.938   3.979
 5947TIP3    H217806   2.784   3.917   3.944
 5948TIP3   OH217807   2.917   3.605   5.770
 5948TIP3    H117808   2.830   3.628   5.802
 5948TIP3    H217809   2.927   3.657   5.690
 5949TIP3   OH217810   2.945   6.761   5.581
 5949TIP3    H117811   2.956   6.791   5.491
 5949TIP3    H217812   2.850   6.764   5.597
 5950TIP3   OH217813   5.492   5.721   2.744
 5950TIP3    H117814   5.464   5.813   2.740
 5950TIP3    H217815   5.573   5.723   2.795
 5951TIP3   OH217816   2.231   6.585   3.967
 5951TIP3    H117817   2.302   6.646   3.945
 5951TIP3    H217818   2.225   6.588   4.062
 5952TIP3   OH217819   4.760   3.891   4.598
 5952TIP3    H117820   4.716   3.886   4.513
 5952TIP3    H217821   4.825   3.960   4.588
 5953TIP3   OH217822   5.493   4.484   5.694
 5953TIP3    H117823   5.508   4.524   5.608
 5953TIP3    H217824   5.536   4.543   5.756
 5954TIP3   OH217825   5.087   4.845   5.917
 5954TIP3    H117826   5.136   4.817   5.840
 5954TIP3    H217827   4.996   4.829   5.896
 5955TIP3   OH217828   6.706   2.578   5.814
 5955TIP3    H117829   6.682   2.491   5.781
 5955TIP3    H217830   6.784   2.562   5.868
 5956TIP3   OH217831   0.341   2.733   4.274
 5956TIP3    H117832   0.314   2.659   4.330
 5956TIP3    H217833   0.432   2.750   4.298
 5957TIP3   OH217834   6.066   4.328   0.622
 5957TIP3    H117835   5.994   4.375   0.581
 5957TIP3    H217836   6.129   4.396   0.646
 5958TIP3   OH217837   1.249   3.185   0.047
 5958TIP3    H117838   1.274   3.114   0.106
 5958TIP3    H217839   1.270   3.152  -0.041
 5959TIP3   OH217840   6.347   4.824   0.366
 5959TIP3    H117841   6.416   4.866   0.314
 5959TIP3    H217842   6.266   4.859   0.331
 5960TIP3   OH217843   4.621   5.108   4.464
 5960TIP3    H117844   4.551   5.165   4.432
 5960TIP3    H217845   4.647   5.057   4.388
 5961TIP3   OH217846   4.800   6.302   2.514
 5961TIP3    H117847   4.750   6.346   2.583
 5961TIP3    H217848   4.860   6.369   2.480
 5962TIP3   OH217849   6.122   6.108   5.384
 5962TIP3    H117850   6.198   6.084   5.331
 5962TIP3    H217851   6.048   6.106   5.323
 5963TIP3   OH217852   1.499   3.625   1.010
 5963TIP3    H117853   1.421   3.574   1.032
 5963TIP3    H217854   1.500   3.696   1.074
 5964TIP3   OH217855   0.408   0.321   1.058
 5964TIP3    H117856   0.465   0.278   0.993
 5964TIP3    H217857   0.462   0.391   1.095
 5965TIP3   OH217858   4.508   1.528   3.076
 5965TIP3    H117859   4.504   1.433   3.066
 5965TIP3    H217860   4.536   1.542   3.167
 5966TIP3   OH217861   6.656   5.663   1.183
 5966TIP3    H117862   6.723   5.703   1.127
 5966TIP3    H217863   6.682   5.571   1.187
 5967TIP3   OH217864   3.417   2.444   1.430
 5967TIP3    H117865   3.457   2.521   1.390
 5967TIP3    H217866   3.325   2.449   1.407
 5968TIP3   OH217867   3.398   6.759   3.840
 5968TIP3    H117868   3.348   6.786   3.762
 5968TIP3    H217869   3.391   6.664   3.841
 5969TIP3   OH217870   4.915   0.785   3.550
 5969TIP3    H117871   4.875   0.713   3.600
 5969TIP3    H217872   4.934   0.746   3.464
 5970TIP3   OH217873   3.889   2.250   5.040
 5970TIP3    H117874   3.925   2.338   5.052
 5970TIP3    H217875   3.811   2.249   5.096
 5971TIP3   OH217876   1.842   4.076   3.776
 5971TIP3    H117877   1.784   4.018   3.726
 5971TIP3    H217878   1.917   4.091   3.719
 5972TIP3   OH217879   0.767   0.764   2.526
 5972TIP3    H117880   0.848   0.814   2.513
 5972TIP3    H217881   0.698   0.822   2.496
 5973TIP3   OH217882   4.744   5.064   1.973
 5973TIP3    H117883   4.696   5.076   2.055
 5973TIP3    H217884   4.679   5.080   1.905
 5974TIP3   OH217885   2.096   4.457   2.798
 5974TIP3    H117886   2.150   4.526   2.836
 5974TIP3    H217887   2.109   4.382   2.855
 5975TIP3   OH217888   0.885   1.028   5.083
 5975TIP3    H117889   0.947   0.956   5.075
 5975TIP3    H217890   0.871   1.057   4.993
 5976TIP3   OH217891   3.669   6.487   1.407
 5976TIP3    H117892   3.615   6.522   1.336
 5976TIP3    H217893   3.759   6.504   1.380
 5977TIP3   OH217894   6.011   0.457   4.507
 5977TIP3    H117895   6.052   0.522   4.564
 5977TIP3    H217896   5.939   0.422   4.559
 5978TIP3   OH217897   7.070   2.575   2.501
 5978TIP3    H117898   7.071   2.630   2.579
 5978TIP3    H217899   7.073   2.485   2.534
 5979TIP3   OH217900   7.123   3.424   0.495
 5979TIP3    H117901   7.094   3.514   0.513
 5979TIP3    H217902   7.215   3.423   0.520
 5980TIP3   OH217903   0.439   4.249   4.245
 5980TIP3    H117904   0.469   4.201   4.168
 5980TIP3    H217905   0.514   4.302   4.271
 5981TIP3   OH217906   3.263   0.962   4.357
 5981TIP3    H117907   3.229   0.878   4.327
 5981TIP3    H217908   3.193   0.998   4.411
 5982TIP3   OH217909   5.865   5.539   4.535
 5982TIP3    H117910   5.919   5.599   4.484
 5982TIP3    H217911   5.818   5.596   4.596
 5983TIP3   OH217912   0.874   4.914   5.724
 5983TIP3    H117913   0.848   5.006   5.727
 5983TIP3    H217914   0.791   4.867   5.712
 5984TIP3   OH217915   4.001   2.871   3.311
 5984TIP3    H117916   3.989   2.945   3.252
 5984TIP3    H217917   4.080   2.893   3.361
 5985TIP3   OH217918   2.432   4.537   0.652
 5985TIP3    H117919   2.386   4.473   0.708
 5985TIP3    H217920   2.457   4.486   0.574
 5986TIP3   OH217921   3.081   4.315   0.617
 5986TIP3    H117922   3.008   4.348   0.565
 5986TIP3    H217923   3.040   4.259   0.683
 5987TIP3   OH217924   0.177   6.259   2.158
 5987TIP3    H117925   0.129   6.176   2.163
 5987TIP3    H217926   0.223   6.256   2.074
 5988TIP3   OH217927   5.862   6.366   3.423
 5988TIP3    H117928   5.915   6.331   3.352
 5988TIP3    H217929   5.777   6.324   3.413
 5989TIP3   OH217930   6.752   3.238   4.719
 5989TIP3    H117931   6.755   3.155   4.768
 5989TIP3    H217932   6.673   3.232   4.666
 5990TIP3   OH217933   4.513   4.202   5.753
 5990TIP3    H117934   4.515   4.217   5.847
 5990TIP3    H217935   4.588   4.251   5.720
 5991TIP3   OH217936   6.665   2.671   1.122
 5991TIP3    H117937   6.692   2.750   1.169
 5991TIP3    H217938   6.598   2.631   1.177
 5992TIP3   OH217939   2.080   0.939   4.837
 5992TIP3    H117940   2.072   0.844   4.830
 5992TIP3    H217941   2.161   0.961   4.792
 5993TIP3   OH217942   6.608   6.017   3.432
 5993TIP3    H117943   6.547   5.965   3.379
 5993TIP3    H217944   6.561   6.100   3.448
 5994TIP3   OH217945   2.000   5.217   4.638
 5994TIP3    H117946   1.935   5.166   4.687
 5994TIP3    H217947   2.006   5.173   4.553
 5995TIP3   OH217948   6.992   3.909   3.080
 5995TIP3    H117949   6.951   3.990   3.051
 5995TIP3    H217950   6.919   3.853   3.107
 5996TIP3   OH217951   5.010   3.099   5.313
 5996TIP3    H117952   4.971   3.170   5.363
 5996TIP3    H217953   4.954   3.023   5.330
 5997TIP3   OH217954   6.341   2.877   2.003
 5997TIP3    H117955   6.255   2.838   2.021
 5997TIP3    H217956   6.402   2.826   2.057
 5998TIP3   OH217957   1.674   2.119   2.481
 5998TIP3    H117958   1.730   2.095   2.407
 5998TIP3    H217959   1.702   2.208   2.504
 5999TIP3   OH217960   5.863   6.148   3.988
 5999TIP3    H117961   5.866   6.066   3.938
 5999TIP3    H217962   5.801   6.203   3.941
 6000TIP3   OH217963   5.417   2.928   4.179
 6000TIP3    H117964   5.445   2.938   4.088
 6000TIP3    H217965   5.474   2.987   4.228
 6001TIP3   OH217966   6.254   5.772   4.396
 6001TIP3    H117967   6.300   5.855   4.386
 6001TIP3    H217968   6.250   5.759   4.491
 6002TIP3   OH217969   0.090   6.434   0.144
 6002TIP3    H117970   0.015   6.375   0.154
 6002TIP3    H217971   0.061   6.498   0.079
 6003TIP3   OH217972   0.552   6.794   2.152
 6003TIP3    H117973   0.479   6.770   2.094
 6003TIP3    H217974   0.579   6.712   2.192
 6004TIP3   OH217975   2.225   1.589   2.075
 6004TIP3    H117976   2.279   1.661   2.110
 6004TIP3    H217977   2.193   1.621   1.991
 6005TIP3   OH217978   3.465   6.487   1.131
 6005TIP3    H117979   3.423   6.509   1.048
 6005TIP3    H217980   3.392   6.480   1.193
 6006TIP3   OH217981   3.445   6.128   0.820
 6006TIP3    H117982   3.460   6.040   0.855
 6006TIP3    H217983   3.508   6.183   0.865
 6007TIP3   OH217984   2.450   3.793   0.603
 6007TIP3    H117985   2.356   3.791   0.620
 6007TIP3    H217986   2.480   3.705   0.625
 6008TIP3   OH217987   0.886   2.764   4.442
 6008TIP3    H117988   0.875   2.686   4.496
 6008TIP3    H217989   0.942   2.736   4.369
 6009TIP3   OH217990   4.984   4.083   4.604
 6009TIP3    H117991   4.961   4.114   4.692
 6009TIP3    H217992   5.024   4.159   4.562
 6010TIP3   OH217993   3.003   5.496   5.573
 6010TIP3    H117994   2.935   5.561   5.556
 6010TIP3    H217995   3.085   5.545   5.574
 6011TIP3   OH217996   3.578   5.337   3.427
 6011TIP3    H117997   3.534   5.390   3.361
 6011TIP3    H217998   3.537   5.362   3.510
 6012TIP3   OH217999   1.628   4.641   5.598
 6012TIP3    H118000   1.577   4.583   5.655
 6012TIP3    H218001   1.620   4.727   5.639
 6013TIP3   OH218002   1.892   1.147   0.755
 6013TIP3    H118003   1.970   1.140   0.810
 6013TIP3    H218004   1.837   1.212   0.801
 6014TIP3   OH218005   2.625   0.488   4.359
 6014TIP3    H118006   2.550   0.541   4.388
 6014TIP3    H218007   2.651   0.528   4.276
 6015TIP3   OH218008   2.434   2.520   3.929
 6015TIP3    H118009   2.451   2.604   3.972
 6015TIP3    H218010   2.444   2.455   3.998
 6016TIP3   OH218011   0.353   1.051   0.939
 6016TIP3    H118012   0.404   0.975   0.912
 6016TIP3    H218013   0.272   1.013   0.974
 6017TIP3   OH218014   0.140   4.433   3.076
 6017TIP3    H118015   0.208   4.367   3.094
 6017TIP3    H218016   0.146   4.493   3.151
 6018TIP3   OH218017   1.057   4.969   5.060
 6018TIP3    H118018   1.028   4.878   5.057
 6018TIP3    H218019   0.982   5.019   5.029
 6019TIP3   OH218020   6.691   3.039   4.915
 6019TIP3    H118021   6.632   2.967   4.893
 6019TIP3    H218022   6.777   2.997   4.923
 6020TIP3   OH218023   0.348   3.784   5.660
 6020TIP3    H118024   0.402   3.747   5.731
 6020TIP3    H218025   0.387   3.870   5.643
 6021TIP3   OH218026   2.290   6.040   3.943
 6021TIP3    H118027   2.203   6.001   3.943
 6021TIP3    H218028   2.274   6.134   3.954
 6022TIP3   OH218029   4.125   1.281   3.618
 6022TIP3    H118030   4.147   1.196   3.657
 6022TIP3    H218031   4.064   1.260   3.547
 6023TIP3   OH218032   4.253   1.492   1.326
 6023TIP3    H118033   4.206   1.550   1.386
 6023TIP3    H218034   4.190   1.472   1.257
 6024TIP3   OH218035   7.034   5.453   0.788
 6024TIP3    H118036   7.022   5.471   0.882
 6024TIP3    H218037   7.123   5.481   0.770
 6025TIP3   OH218038   2.002   4.089   4.886
 6025TIP3    H118039   2.077   4.133   4.844
 6025TIP3    H218040   2.038   4.007   4.919
 6026TIP3   OH218041   5.492   5.911   1.396
 6026TIP3    H118042   5.549   5.871   1.331
 6026TIP3    H218043   5.404   5.906   1.359
 6027TIP3   OH218044   3.422   6.342   5.109
 6027TIP3    H118045   3.362   6.353   5.035
 6027TIP3    H218046   3.479   6.269   5.083
 6028TIP3   OH218047   6.454   6.509   0.174
 6028TIP3    H118048   6.364   6.525   0.204
 6028TIP3    H218049   6.505   6.501   0.255
 6029TIP3   OH218050   0.323   1.318   3.798
 6029TIP3    H118051   0.338   1.223   3.798
 6029TIP3    H218052   0.227   1.327   3.794
 6030TIP3   OH218053   3.117   0.086   4.286
 6030TIP3    H118054   3.134   0.061   4.195
 6030TIP3    H218055   3.031   0.129   4.283
 6031TIP3   OH218056   2.103   2.598   3.965
 6031TIP3    H118057   2.027   2.581   4.021
 6031TIP3    H218058   2.115   2.516   3.916
 6032TIP3   OH218059   0.374   3.210   4.167
 6032TIP3    H118060   0.393   3.123   4.133
 6032TIP3    H218061   0.347   3.261   4.091
 6033TIP3   OH218062   5.215   3.937   2.519
 6033TIP3    H118063   5.147   3.932   2.586
 6033TIP3    H218064   5.273   3.862   2.538
 6034TIP3   OH218065   6.521   5.829   0.358
 6034TIP3    H118066   6.440   5.799   0.399
 6034TIP3    H218067   6.590   5.792   0.413
 6035TIP3   OH218068   2.434   0.447   3.931
 6035TIP3    H118069   2.441   0.512   3.861
 6035TIP3    H218070   2.343   0.418   3.928
 6036TIP3   OH218071   1.184   6.413   3.559
 6036TIP3    H118072   1.180   6.508   3.551
 6036TIP3    H218073   1.201   6.382   3.470
 6037TIP3   OH218074   2.203   0.107   4.443
 6037TIP3    H118075   2.288   0.093   4.487
 6037TIP3    H218076   2.168   0.186   4.483
 6038TIP3   OH218077   2.102   3.583   3.333
 6038TIP3    H118078   2.180   3.638   3.330
 6038TIP3    H218079   2.063   3.592   3.246
 6039TIP3   OH218080   0.459   0.728   0.559
 6039TIP3    H118081   0.393   0.797   0.566
 6039TIP3    H218082   0.410   0.653   0.524
 6040TIP3   OH218083   4.485   0.557   3.386
 6040TIP3    H118084   4.494   0.558   3.291
 6040TIP3    H218085   4.445   0.472   3.405
 6041TIP3   OH218086   6.780   1.794   5.242
 6041TIP3    H118087   6.843   1.854   5.281
 6041TIP3    H218088   6.832   1.741   5.181
 6042TIP3   OH218089   5.975   3.103   5.661
 6042TIP3    H118090   5.946   3.182   5.705
 6042TIP3    H218091   5.894   3.053   5.646
 6043TIP3   OH218092   0.423   4.599   4.456
 6043TIP3    H118093   0.352   4.645   4.411
 6043TIP3    H218094   0.378   4.533   4.510
 6044TIP3   OH218095   1.741   2.042   0.805
 6044TIP3    H118096   1.700   2.107   0.748
 6044TIP3    H218097   1.667   1.996   0.845
 6045TIP3   OH218098   6.178   2.483   5.645
 6045TIP3    H118099   6.115   2.536   5.597
 6045TIP3    H218100   6.260   2.495   5.598
 6046TIP3   OH218101   4.415   1.312   2.562
 6046TIP3    H118102   4.488   1.374   2.552
 6046TIP3    H218103   4.343   1.365   2.597
 6047TIP3   OH218104   0.562   2.923   4.561
 6047TIP3    H118105   0.617   2.859   4.608
 6047TIP3    H218106   0.551   2.885   4.474
 6048TIP3   OH218107   4.983   2.176   5.656
 6048TIP3    H118108   4.911   2.117   5.632
 6048TIP3    H218109   4.992   2.234   5.580
 6049TIP3   OH218110   4.573   5.309   2.833
 6049TIP3    H118111   4.505   5.311   2.766
 6049TIP3    H218112   4.526   5.328   2.915
 6050TIP3   OH218113   0.639   4.149   0.910
 6050TIP3    H118114   0.614   4.135   1.001
 6050TIP3    H218115   0.556   4.161   0.864
 6051TIP3   OH218116   4.920   0.161   1.880
 6051TIP3    H118117   4.958   0.214   1.810
 6051TIP3    H218118   4.922   0.071   1.847
 6052TIP3   OH218119   5.755   1.736   1.794
 6052TIP3    H118120   5.730   1.713   1.705
 6052TIP3    H218121   5.707   1.674   1.849
 6053TIP3   OH218122   2.767   5.967   3.989
 6053TIP3    H118123   2.787   6.049   4.035
 6053TIP3    H218124   2.729   5.995   3.906
 6054TIP3   OH218125   3.585   0.269   4.449
 6054TIP3    H118126   3.550   0.191   4.407
 6054TIP3    H218127   3.508   0.324   4.464
 6055TIP3   OH218128   2.436   5.483   5.723
 6055TIP3    H118129   2.395   5.435   5.651
 6055TIP3    H218130   2.489   5.550   5.680
 6056TIP3   OH218131   2.027   3.176   1.822
 6056TIP3    H118132   2.020   3.084   1.845
 6056TIP3    H218133   1.953   3.192   1.763
 6057TIP3   OH218134   3.748   0.314   3.851
 6057TIP3    H118135   3.656   0.312   3.825
 6057TIP3    H218136   3.792   0.358   3.778
 6058TIP3   OH218137   2.287   5.516   2.900
 6058TIP3    H118138   2.220   5.582   2.917
 6058TIP3    H218139   2.364   5.547   2.947
 6059TIP3   OH218140   3.426   5.434   3.139
 6059TIP3    H118141   3.432   5.382   3.059
 6059TIP3    H218142   3.332   5.450   3.151
 6060TIP3   OH218143   5.265   3.564   2.557
 6060TIP3    H118144   5.208   3.528   2.625
 6060TIP3    H218145   5.341   3.598   2.605
 6061TIP3   OH218146   3.109   1.697   0.630
 6061TIP3    H118147   3.158   1.615   0.621
 6061TIP3    H218148   3.080   1.697   0.722
 6062TIP3   OH218149   5.441   6.450   1.717
 6062TIP3    H118150   5.487   6.442   1.634
 6062TIP3    H218151   5.483   6.524   1.761
 6063TIP3   OH218152   4.639   0.507   1.789
 6063TIP3    H118153   4.727   0.472   1.776
 6063TIP3    H218154   4.586   0.462   1.723
 6064TIP3   OH218155   1.889   3.592   1.738
 6064TIP3    H118156   1.917   3.683   1.738
 6064TIP3    H218157   1.971   3.542   1.735
 6065TIP3   OH218158   4.655   1.982   1.598
 6065TIP3    H118159   4.587   2.045   1.620
 6065TIP3    H218160   4.608   1.899   1.588
 6066TIP3   OH218161   3.536   2.872   0.612
 6066TIP3    H118162   3.600   2.804   0.632
 6066TIP3    H218163   3.507   2.852   0.523
 6067TIP3   OH218164   1.870   2.663   0.794
 6067TIP3    H118165   1.838   2.737   0.846
 6067TIP3    H218166   1.827   2.674   0.709
 6068TIP3   OH218167   1.820   5.891   1.425
 6068TIP3    H118168   1.827   5.883   1.330
 6068TIP3    H218169   1.741   5.943   1.439
 6069TIP3   OH218170   3.247   2.201   1.133
 6069TIP3    H118171   3.327   2.245   1.106
 6069TIP3    H218172   3.277   2.120   1.174
 6070TIP3   OH218173   2.750   4.367   4.768
 6070TIP3    H118174   2.701   4.286   4.750
 6070TIP3    H218175   2.810   4.376   4.693
 6071TIP3   OH218176   3.243   0.108   2.406
 6071TIP3    H118177   3.166   0.055   2.391
 6071TIP3    H218178   3.224   0.156   2.487
 6072TIP3   OH218179   3.676   6.350   4.383
 6072TIP3    H118180   3.677   6.445   4.370
 6072TIP3    H218181   3.696   6.314   4.297
 6073TIP3   OH218182   5.133   2.372   0.695
 6073TIP3    H118183   5.149   2.466   0.697
 6073TIP3    H218184   5.198   2.337   0.634
 6074TIP3   OH218185   3.258   4.811   1.329
 6074TIP3    H118186   3.327   4.875   1.346
 6074TIP3    H218187   3.280   4.736   1.385
 6075TIP3   OH218188   1.735   0.477   1.899
 6075TIP3    H118189   1.787   0.398   1.884
 6075TIP3    H218190   1.700   0.500   1.813
 6076TIP3   OH218191   6.109   4.746   2.353
 6076TIP3    H118192   6.131   4.685   2.424
 6076TIP3    H218193   6.050   4.695   2.297
 6077TIP3   OH218194   2.269   5.388   3.754
 6077TIP3    H118195   2.283   5.367   3.661
 6077TIP3    H218196   2.233   5.307   3.791
 6078TIP3   OH218197   5.468   2.953   5.827
 6078TIP3    H118198   5.433   2.934   5.740
 6078TIP3    H218199   5.394   2.942   5.886
 6079TIP3   OH218200   1.743   5.593   0.195
 6079TIP3    H118201   1.660   5.549   0.213
 6079TIP3    H218202   1.755   5.652   0.270
 6080TIP3   OH218203   5.602   1.627   1.582
 6080TIP3    H118204   5.511   1.655   1.576
 6080TIP3    H218205   5.598   1.533   1.600
 6081TIP3   OH218206   5.802   4.784   4.609
 6081TIP3    H118207   5.799   4.783   4.704
 6081TIP3    H218208   5.775   4.872   4.584
 6082TIP3   OH218209   4.237   6.346   1.894
 6082TIP3    H118210   4.157   6.398   1.904
 6082TIP3    H218211   4.207   6.257   1.880
 6083TIP3   OH218212   5.908   0.906   2.454
 6083TIP3    H118213   5.829   0.877   2.499
 6083TIP3    H218214   5.974   0.911   2.523
 6084TIP3   OH218215   1.584   4.929   4.908
 6084TIP3    H118216   1.492   4.910   4.890
 6084TIP3    H218217   1.614   4.855   4.961
 6085TIP3   OH218218   6.117   3.691   2.883
 6085TIP3    H118219   6.127   3.669   2.976
 6085TIP3    H218220   6.171   3.625   2.838
 6086TIP3   OH218221   3.760   3.990   1.784
 6086TIP3    H118222   3.752   3.949   1.870
 6086TIP3    H218223   3.793   4.078   1.801
 6087TIP3   OH218224   5.897   6.609   1.341
 6087TIP3    H118225   5.828   6.636   1.401
 6087TIP3    H218226   5.967   6.576   1.398
 6088TIP3   OH218227   5.293   4.427   0.538
 6088TIP3    H118228   5.259   4.516   0.524
 6088TIP3    H218229   5.345   4.434   0.618
 6089TIP3   OH218230   0.843   0.569   1.718
 6089TIP3    H118231   0.871   0.614   1.639
 6089TIP3    H218232   0.901   0.493   1.724
 6090TIP3   OH218233   6.417   5.968   3.742
 6090TIP3    H118234   6.385   5.901   3.682
 6090TIP3    H218235   6.349   5.973   3.810
 6091TIP3   OH218236   4.776   2.681   4.682
 6091TIP3    H118237   4.830   2.711   4.609
 6091TIP3    H218238   4.704   2.633   4.641
 6092TIP3   OH218239   6.468   1.863   2.688
 6092TIP3    H118240   6.552   1.821   2.704
 6092TIP3    H218241   6.443   1.834   2.600
 6093TIP3   OH218242   5.609   1.349   3.939
 6093TIP3    H118243   5.522   1.316   3.914
 6093TIP3    H218244   5.668   1.277   3.919
 6094TIP3   OH218245   5.327   1.599   0.868
 6094TIP3    H118246   5.386   1.581   0.795
 6094TIP3    H218247   5.313   1.514   0.909
 6095TIP3   OH218248   2.410   5.419   4.306
 6095TIP3    H118249   2.368   5.333   4.308
 6095TIP3    H218250   2.355   5.472   4.249
 6096TIP3   OH218251   4.591   6.722   5.877
 6096TIP3    H118252   4.563   6.636   5.845
 6096TIP3    H218253   4.639   6.761   5.804
 6097TIP3   OH218254   3.581   2.120   4.623
 6097TIP3    H118255   3.596   2.025   4.626
 6097TIP3    H218256   3.633   2.155   4.695
 6098TIP3   OH218257   2.158   2.462   2.057
 6098TIP3    H118258   2.247   2.438   2.029
 6098TIP3    H218259   2.164   2.556   2.073
 6099TIP3   OH218260   4.184   1.300   1.529
 6099TIP3    H118261   4.213   1.335   1.445
 6099TIP3    H218262   4.194   1.205   1.521
 6100TIP3   OH218263   4.127   0.790   2.916
 6100TIP3    H118264   4.179   0.756   2.844
 6100TIP3    H218265   4.056   0.838   2.874
 6101TIP3   OH218266   2.765   0.339   3.997
 6101TIP3    H118267   2.737   0.388   3.919
 6101TIP3    H218268   2.689   0.285   4.020
 6102TIP3   OH218269   7.018   5.286   4.371
 6102TIP3    H118270   6.932   5.297   4.412
 6102TIP3    H218271   7.016   5.344   4.295
 6103TIP3   OH218272  -0.014   6.172   2.485
 6103TIP3    H118273   0.076   6.151   2.458
 6103TIP3    H218274  -0.032   6.256   2.444
 6104TIP3   OH218275   1.192   0.736   1.905
 6104TIP3    H118276   1.222   0.685   1.830
 6104TIP3    H218277   1.126   0.680   1.947
 6105TIP3   OH218278   4.219   3.635   4.551
 6105TIP3    H118279   4.126   3.625   4.573
 6105TIP3    H218280   4.258   3.672   4.630
 6106TIP3   OH218281   5.409   0.185   2.714
 6106TIP3    H118282   5.495   0.158   2.684
 6106TIP3    H218283   5.372   0.235   2.642
 6107TIP3   OH218284   2.880   5.023   5.256
 6107TIP3    H118285   2.966   5.033   5.216
 6107TIP3    H218286   2.888   4.944   5.310
 6108TIP3   OH218287   6.663   5.631   0.002
 6108TIP3    H118288   6.604   5.701   0.031
 6108TIP3    H218289   6.633   5.553   0.048
 6109TIP3   OH218290   5.288   5.531   3.573
 6109TIP3    H118291   5.275   5.552   3.481
 6109TIP3    H218292   5.356   5.463   3.573
 6110TIP3   OH218293   2.422   5.280   0.443
 6110TIP3    H118294   2.504   5.249   0.405
 6110TIP3    H218295   2.362   5.284   0.369
 6111TIP3   OH218296   0.307   3.626   1.845
 6111TIP3    H118297   0.316   3.721   1.851
 6111TIP3    H218298   0.249   3.602   1.918
 6112TIP3   OH218299   4.501   1.318   3.915
 6112TIP3    H118300   4.447   1.266   3.975
 6112TIP3    H218301   4.439   1.377   3.872
 6113TIP3   OH218302   4.027   0.174   4.879
 6113TIP3    H118303   3.935   0.198   4.863
 6113TIP3    H218304   4.024   0.118   4.956
 6114TIP3   OH218305   3.124   5.508   3.151
 6114TIP3    H118306   3.033   5.500   3.181
 6114TIP3    H218307   3.127   5.459   3.070
 6115TIP3   OH218308   6.280   1.310   5.689
 6115TIP3    H118309   6.340   1.380   5.713
 6115TIP3    H218310   6.317   1.273   5.609
 6116TIP3   OH218311   0.040   2.683   5.559
 6116TIP3    H118312   0.099   2.758   5.552
 6116TIP3    H218313   0.013   2.682   5.651
 6117TIP3   OH218314   6.330   1.850   2.424
 6117TIP3    H118315   6.267   1.807   2.481
 6117TIP3    H218316   6.278   1.913   2.374
 6118TIP3   OH218317   2.873   0.801   5.255
 6118TIP3    H118318   2.949   0.774   5.308
 6118TIP3    H218319   2.810   0.730   5.266
 6119TIP3   OH218320   2.004   6.061   1.633
 6119TIP3    H118321   1.955   6.089   1.556
 6119TIP3    H218322   2.083   6.116   1.633
 6120TIP3   OH218323   6.923   6.737   2.490
 6120TIP3    H118324   6.910   6.647   2.519
 6120TIP3    H218325   7.016   6.742   2.469
 6121TIP3   OH218326   0.917   4.111   2.394
 6121TIP3    H118327   0.978   4.126   2.466
 6121TIP3    H218328   0.838   4.159   2.419
 6122TIP3   OH218329   2.110   6.497   0.512
 6122TIP3    H118330   2.189   6.526   0.557
 6122TIP3    H218331   2.076   6.576   0.469
 6123TIP3   OH218332   3.632   1.605   3.557
 6123TIP3    H118333   3.562   1.662   3.525
 6123TIP3    H218334   3.588   1.523   3.577
 6124TIP3   OH218335   6.790   0.707   4.986
 6124TIP3    H118336   6.821   0.649   5.055
 6124TIP3    H218337   6.728   0.765   5.029
 6125TIP3   OH218338   0.682   3.117   2.823
 6125TIP3    H118339   0.621   3.076   2.762
 6125TIP3    H218340   0.769   3.091   2.792
 6126TIP3   OH218341   0.638   1.017   2.520
 6126TIP3    H118342   0.565   1.046   2.575
 6126TIP3    H218343   0.611   1.039   2.431
 6127TIP3   OH218344   1.832   1.405   3.676
 6127TIP3    H118345   1.797   1.326   3.636
 6127TIP3    H218346   1.755   1.457   3.700
 6128TIP3   OH218347   3.143   2.333   2.797
 6128TIP3    H118348   3.084   2.260   2.777
 6128TIP3    H218349   3.124   2.398   2.731
 6129TIP3   OH218350   0.226   1.005   3.568
 6129TIP3    H118351   0.262   1.017   3.656
 6129TIP3    H218352   0.206   1.093   3.538
 6130TIP3   OH218353   4.020   0.398   5.798
 6130TIP3    H118354   4.065   0.373   5.878
 6130TIP3    H218355   4.084   0.383   5.728
 6131TIP3   OH218356   0.844   5.290   1.716
 6131TIP3    H118357   0.761   5.291   1.669
 6131TIP3    H218358   0.836   5.218   1.779
 6132TIP3   OH218359   4.086   6.297   4.921
 6132TIP3    H118360   4.108   6.385   4.891
 6132TIP3    H218361   4.028   6.311   4.996
 6133TIP3   OH218362   3.622   0.548   0.894
 6133TIP3    H118363   3.706   0.594   0.894
 6133TIP3    H218364   3.600   0.537   0.987
 6134TIP3   OH218365   1.101   6.705   2.264
 6134TIP3    H118366   1.080   6.638   2.198
 6134TIP3    H218367   1.064   6.786   2.228
 6135TIP3   OH218368   5.546   2.445   0.425
 6135TIP3    H118369   5.600   2.498   0.365
 6135TIP3    H218370   5.458   2.452   0.390
 6136TIP3   OH218371   5.642   6.768   5.611
 6136TIP3    H118372   5.585   6.762   5.535
 6136TIP3    H218373   5.603   6.837   5.665
 6137TIP3   OH218374   0.928   6.264   2.341
 6137TIP3    H118375   1.016   6.279   2.308
 6137TIP3    H218376   0.887   6.207   2.276
 6138TIP3   OH218377   3.506   0.996   1.584
 6138TIP3    H118378   3.437   0.968   1.524
 6138TIP3    H218379   3.551   1.067   1.538
 6139TIP3   OH218380   3.582   1.856   1.770
 6139TIP3    H118381   3.598   1.899   1.686
 6139TIP3    H218382   3.613   1.766   1.757
 6140TIP3   OH218383   0.402   2.393   4.529
 6140TIP3    H118384   0.358   2.363   4.608
 6140TIP3    H218385   0.494   2.400   4.554
 6141TIP3   OH218386   5.811   6.143   2.679
 6141TIP3    H118387   5.872   6.203   2.721
 6141TIP3    H218388   5.800   6.177   2.590
 6142TIP3   OH218389   3.649   3.530   2.635
 6142TIP3    H118390   3.626   3.551   2.545
 6142TIP3    H218391   3.655   3.615   2.679
 6143TIP3   OH218392   6.875   3.246   5.745
 6143TIP3    H118393   6.850   3.232   5.836
 6143TIP3    H218394   6.817   3.188   5.695
 6144TIP3   OH218395   1.328   5.721   0.151
 6144TIP3    H118396   1.382   5.792   0.117
 6144TIP3    H218397   1.300   5.672   0.074
 6145TIP3   OH218398   4.386   2.802   5.802
 6145TIP3    H118399   4.311   2.861   5.813
 6145TIP3    H218400   4.372   2.732   5.866
 6146TIP3   OH218401   0.770   1.122   4.370
 6146TIP3    H118402   0.716   1.048   4.344
 6146TIP3    H218403   0.771   1.118   4.466
 6147TIP3   OH218404   3.585   1.433   5.474
 6147TIP3    H118405   3.497   1.459   5.445
 6147TIP3    H218406   3.628   1.402   5.395
 6148TIP3   OH218407   5.746   3.669   2.952
 6148TIP3    H118408   5.682   3.636   3.015
 6148TIP3    H218409   5.776   3.591   2.906
 6149TIP3   OH218410   0.062   6.717   1.430
 6149TIP3    H118411   0.116   6.787   1.394
 6149TIP3    H218412   0.008   6.761   1.496
 6150TIP3   OH218413   5.792   6.469   0.046
 6150TIP3    H118414   5.823   6.552   0.082
 6150TIP3    H218415   5.697   6.474   0.052
 6151TIP3   OH218416   6.273   5.355   4.785
 6151TIP3    H118417   6.312   5.322   4.705
 6151TIP3    H218418   6.178   5.344   4.772
 6152TIP3   OH218419   6.713   6.050   4.735
 6152TIP3    H118420   6.681   6.131   4.694
 6152TIP3    H218421   6.803   6.040   4.702
 6153TIP3   OH218422   0.040   0.984   5.689
 6153TIP3    H118423  -0.008   1.010   5.611
 6153TIP3    H218424   0.130   1.013   5.674
 6154TIP3   OH218425   1.009   3.351   4.387
 6154TIP3    H118426   0.953   3.381   4.315
 6154TIP3    H218427   1.068   3.287   4.347
 6155TIP3   OH218428   3.863   3.904   3.483
 6155TIP3    H118429   3.849   3.995   3.510
 6155TIP3    H218430   3.894   3.860   3.562
 6156TIP3   OH218431   6.370   0.016   5.739
 6156TIP3    H118432   6.380  -0.008   5.831
 6156TIP3    H218433   6.367   0.112   5.739
 6157TIP3   OH218434   2.305   0.851   5.606
 6157TIP3    H118435   2.270   0.923   5.658
 6157TIP3    H218436   2.372   0.811   5.662
 6158TIP3   OH218437   6.778   3.717   2.870
 6158TIP3    H118438   6.685   3.695   2.883
 6158TIP3    H218439   6.776   3.791   2.809
 6159TIP3   OH218440   4.956   4.426   3.744
 6159TIP3    H118441   4.922   4.448   3.657
 6159TIP3    H218442   5.051   4.440   3.737
 6160TIP3   OH218443   0.904   4.128   5.765
 6160TIP3    H118444   0.831   4.175   5.724
 6160TIP3    H218445   0.861   4.061   5.819
 6161TIP3   OH218446   1.355   6.610   3.950
 6161TIP3    H118447   1.330   6.665   4.024
 6161TIP3    H218448   1.275   6.601   3.897
 6162TIP3   OH218449   4.177   2.839   0.045
 6162TIP3    H118450   4.193   2.842   0.139
 6162TIP3    H218451   4.083   2.847   0.036
 6163TIP3   OH218452   6.547   3.598   0.561
 6163TIP3    H118453   6.549   3.692   0.545
 6163TIP3    H218454   6.633   3.567   0.535
 6164TIP3   OH218455   4.948   6.427   0.118
 6164TIP3    H118456   4.874   6.381   0.158
 6164TIP3    H218457   5.006   6.446   0.192
 6165TIP3   OH218458   6.134   6.747   1.302
 6165TIP3    H118459   6.108   6.831   1.264
 6165TIP3    H218460   6.055   6.694   1.302
 6166TIP3   OH218461   7.041   2.816   4.258
 6166TIP3    H118462   7.104   2.755   4.219
 6166TIP3    H218463   6.970   2.760   4.290
 6167TIP3   OH218464   3.026   6.161   5.510
 6167TIP3    H118465   3.084   6.219   5.461
 6167TIP3    H218466   2.982   6.218   5.573
 6168TIP3   OH218467   0.109   1.799   5.773
 6168TIP3    H118468   0.134   1.832   5.687
 6168TIP3    H218469   0.014   1.788   5.768
 6169TIP3   OH218470   5.154   5.410   3.798
 6169TIP3    H118471   5.111   5.330   3.769
 6169TIP3    H218472   5.194   5.446   3.719
 6170TIP3   OH218473   6.392   5.312   3.113
 6170TIP3    H118474   6.432   5.266   3.186
 6170TIP3    H218475   6.465   5.339   3.058
 6171TIP3   OH218476   2.647   4.149   5.915
 6171TIP3    H118477   2.580   4.172   5.850
 6171TIP3    H218478   2.729   4.146   5.865
 6172TIP3   OH218479   7.076   2.678   5.213
 6172TIP3    H118480   7.020   2.653   5.286
 6172TIP3    H218481   7.066   2.773   5.207
 6173TIP3   OH218482   6.579   0.417   2.668
 6173TIP3    H118483   6.607   0.438   2.579
 6173TIP3    H218484   6.618   0.331   2.686
 6174TIP3   OH218485   2.942   6.609   2.344
 6174TIP3    H118486   2.863   6.565   2.374
 6174TIP3    H218487   2.928   6.701   2.368
 6175TIP3   OH218488   3.781   0.717   2.465
 6175TIP3    H118489   3.727   0.796   2.468
 6175TIP3    H218490   3.719   0.645   2.467
 6176TIP3   OH218491   3.718   6.298   4.690
 6176TIP3    H118492   3.709   6.311   4.595
 6176TIP3    H218493   3.772   6.371   4.719
 6177TIP3   OH218494   3.731   2.455   1.195
 6177TIP3    H118495   3.707   2.385   1.256
 6177TIP3    H218496   3.664   2.452   1.126
 6178TIP3   OH218497   1.387   2.736   2.741
 6178TIP3    H118498   1.437   2.654   2.746
 6178TIP3    H218499   1.333   2.736   2.819
 6179TIP3   OH218500   5.843   1.709   2.132
 6179TIP3    H118501   5.797   1.689   2.050
 6179TIP3    H218502   5.896   1.785   2.111
 6180TIP3   OH218503   3.717   5.776   5.307
 6180TIP3    H118504   3.710   5.796   5.214
 6180TIP3    H218505   3.693   5.684   5.314
 6181TIP3   OH218506   1.912   1.569   1.943
 6181TIP3    H118507   1.888   1.489   1.897
 6181TIP3    H218508   1.985   1.605   1.893
 6182TIP3   OH218509   3.919   5.205   4.517
 6182TIP3    H118510   3.834   5.244   4.495
 6182TIP3    H218511   3.897   5.118   4.552
 6183TIP3   OH218512   5.050   3.259   2.325
 6183TIP3    H118513   5.100   3.266   2.244
 6183TIP3    H218514   5.006   3.174   2.320
 6184TIP3   OH218515   1.701   4.534   3.313
 6184TIP3    H118516   1.709   4.611   3.370
 6184TIP3    H218517   1.606   4.521   3.303
 6185TIP3   OH218518   2.159   1.365   4.710
 6185TIP3    H118519   2.114   1.378   4.627
 6185TIP3    H218520   2.119   1.429   4.769
 6186TIP3   OH218521   0.932   2.203   5.209
 6186TIP3    H118522   1.018   2.240   5.190
 6186TIP3    H218523   0.878   2.279   5.234
 6187TIP3   OH218524   2.204   1.863   3.190
 6187TIP3    H118525   2.138   1.807   3.230
 6187TIP3    H218526   2.200   1.945   3.239
 6188TIP3   OH218527   2.115   4.852   1.582
 6188TIP3    H118528   2.120   4.786   1.513
 6188TIP3    H218529   2.196   4.903   1.572
 6189TIP3   OH218530   4.243   2.821   3.035
 6189TIP3    H118531   4.240   2.880   3.110
 6189TIP3    H218532   4.241   2.879   2.959
 6190TIP3   OH218533   5.056   6.252   5.211
 6190TIP3    H118534   4.983   6.313   5.213
 6190TIP3    H218535   5.094   6.257   5.299
 6191TIP3   OH218536   2.259   1.419   3.071
 6191TIP3    H118537   2.350   1.391   3.077
 6191TIP3    H218538   2.254   1.471   2.991
 6192TIP3   OH218539   2.355   2.339   1.119
 6192TIP3    H118540   2.424   2.281   1.152
 6192TIP3    H218541   2.275   2.288   1.128
 6193TIP3   OH218542   2.017   3.672   2.071
 6193TIP3    H118543   2.038   3.729   1.997
 6193TIP3    H218544   2.090   3.683   2.131
 6194TIP3   OH218545   4.592   3.522   4.704
 6194TIP3    H118546   4.585   3.440   4.655
 6194TIP3    H218547   4.582   3.497   4.795
 6195TIP3   OH218548   4.105   1.178   0.194
 6195TIP3    H118549   4.076   1.088   0.209
 6195TIP3    H218550   4.059   1.204   0.114
 6196TIP3   OH218551   5.063   1.420   3.219
 6196TIP3    H118552   5.064   1.425   3.123
 6196TIP3    H218553   5.100   1.334   3.238
 6197TIP3   OH218554   1.120   1.379   4.921
 6197TIP3    H118555   1.176   1.303   4.934
 6197TIP3    H218556   1.175   1.455   4.941
 6198TIP3   OH218557   5.075   2.298   3.275
 6198TIP3    H118558   5.066   2.371   3.214
 6198TIP3    H218559   5.075   2.220   3.220
 6199TIP3   OH218560   1.158   4.606   1.153
 6199TIP3    H118561   1.195   4.683   1.109
 6199TIP3    H218562   1.127   4.640   1.238
 6200TIP3   OH218563   5.423   1.925   2.732
 6200TIP3    H118564   5.401   1.971   2.813
 6200TIP3    H218565   5.449   1.994   2.671
 6201TIP3   OH218566   2.963   0.299   5.900
 6201TIP3    H118567   2.869   0.302   5.913
 6201TIP3    H218568   2.992   0.225   5.954
 6202TIP3   OH218569   2.129   6.028   1.182
 6202TIP3    H118570   2.071   5.953   1.185
 6202TIP3    H218571   2.164   6.028   1.092
 6203TIP3   OH218572   0.448   1.049   2.695
 6203TIP3    H118573   0.459   1.095   2.777
 6203TIP3    H218574   0.354   1.053   2.677
 6204TIP3   OH218575   5.864   4.196   2.086
 6204TIP3    H118576   5.817   4.126   2.129
 6204TIP3    H218577   5.943   4.209   2.138
 6205TIP3   OH218578   3.859   0.500   2.114
 6205TIP3    H118579   3.804   0.468   2.043
 6205TIP3    H218580   3.924   0.432   2.127
 6206TIP3   OH218581   1.115   0.508   0.368
 6206TIP3    H118582   1.105   0.443   0.437
 6206TIP3    H218583   1.177   0.469   0.307
 6207TIP3   OH218584   7.195   3.714   2.395
 6207TIP3    H118585   7.115   3.667   2.421
 6207TIP3    H218586   7.206   3.693   2.302
 6208TIP3   OH218587   6.918   3.468   1.855
 6208TIP3    H118588   6.877   3.384   1.876
 6208TIP3    H218589   6.861   3.505   1.787
 6209TIP3   OH218590   6.898   4.439   1.556
 6209TIP3    H118591   6.821   4.495   1.552
 6209TIP3    H218592   6.972   4.499   1.554
 6210TIP3   OH218593   5.353   4.196   2.052
 6210TIP3    H118594   5.280   4.224   1.996
 6210TIP3    H218595   5.311   4.147   2.123
 6211TIP3   OH218596   6.189   6.288   5.575
 6211TIP3    H118597   6.139   6.226   5.522
 6211TIP3    H218598   6.131   6.310   5.648
 6212TIP3   OH218599   6.565   5.380   5.855
 6212TIP3    H118600   6.591   5.295   5.893
 6212TIP3    H218601   6.548   5.360   5.763
 6213TIP3   OH218602   3.254   1.536   3.791
 6213TIP3    H118603   3.217   1.460   3.747
 6213TIP3    H218604   3.196   1.551   3.866
 6214TIP3   OH218605   3.075   4.437   1.477
 6214TIP3    H118606   3.110   4.446   1.566
 6214TIP3    H218607   3.119   4.360   1.442
 6215TIP3   OH218608   0.313   3.299   3.925
 6215TIP3    H118609   0.221   3.326   3.917
 6215TIP3    H218610   0.357   3.339   3.850
 6216TIP3   OH218611   1.604   3.321   4.312
 6216TIP3    H118612   1.509   3.311   4.310
 6216TIP3    H218613   1.624   3.341   4.404
 6217TIP3   OH218614   1.216   5.744   5.670
 6217TIP3    H118615   1.230   5.682   5.598
 6217TIP3    H218616   1.206   5.688   5.747
 6218TIP3   OH218617   2.108   0.542   2.269
 6218TIP3    H118618   2.039   0.500   2.321
 6218TIP3    H218619   2.084   0.524   2.178
 6219TIP3   OH218620   6.369   5.751   0.590
 6219TIP3    H118621   6.410   5.828   0.629
 6219TIP3    H218622   6.277   5.775   0.581
 6220TIP3   OH218623   6.996   5.808   2.603
 6220TIP3    H118624   7.065   5.744   2.587
 6220TIP3    H218625   7.040   5.877   2.654
 6221TIP3   OH218626   6.795   6.522   0.597
 6221TIP3    H118627   6.844   6.603   0.583
 6221TIP3    H218628   6.806   6.504   0.691
 6222TIP3   OH218629   6.249   3.229   0.459
 6222TIP3    H118630   6.304   3.304   0.434
 6222TIP3    H218631   6.202   3.259   0.537
 6223TIP3   OH218632   4.551   1.918   3.010
 6223TIP3    H118633   4.498   1.937   3.087
 6223TIP3    H218634   4.530   1.826   2.989
 6224TIP3   OH218635   2.262   1.304   1.132
 6224TIP3    H118636   2.211   1.368   1.181
 6224TIP3    H218637   2.344   1.295   1.181
 6225TIP3   OH218638   6.813   6.692   4.446
 6225TIP3    H118639   6.860   6.774   4.434
 6225TIP3    H218640   6.867   6.642   4.507
 6226TIP3   OH218641   1.844   1.794   1.698
 6226TIP3    H118642   1.756   1.804   1.664
 6226TIP3    H218643   1.900   1.836   1.633
 6227TIP3   OH218644   3.635   2.985   0.909
 6227TIP3    H118645   3.568   3.022   0.851
 6227TIP3    H218646   3.698   3.056   0.921
 6228TIP3   OH218647   2.187   0.785   1.918
 6228TIP3    H118648   2.239   0.862   1.941
 6228TIP3    H218649   2.129   0.772   1.993
 6229TIP3   OH218650   1.108   1.720   3.904
 6229TIP3    H118651   1.020   1.690   3.929
 6229TIP3    H218652   1.094   1.804   3.862
 6230TIP3   OH218653   4.812   1.745   3.408
 6230TIP3    H118654   4.751   1.819   3.414
 6230TIP3    H218655   4.885   1.770   3.464
 6231TIP3   OH218656   4.197   0.672   1.999
 6231TIP3    H118657   4.292   0.665   1.998
 6231TIP3    H218658   4.167   0.584   2.024
 6232TIP3   OH218659   5.332   0.676   5.332
 6232TIP3    H118660   5.332   0.632   5.247
 6232TIP3    H218661   5.240   0.702   5.345
 6233TIP3   OH218662   7.190   1.075   0.634
 6233TIP3    H118663   7.227   1.154   0.595
 6233TIP3    H218664   7.188   1.011   0.563
 6234TIP3   OH218665   7.021   2.938   5.199
 6234TIP3    H118666   6.937   2.928   5.245
 6234TIP3    H218667   7.035   3.032   5.195
 6235TIP3   OH218668   0.125   1.339   2.375
 6235TIP3    H118669   0.064   1.376   2.312
 6235TIP3    H218670   0.105   1.245   2.376
 6236TIP3   OH218671   4.827   3.384   5.269
 6236TIP3    H118672   4.918   3.403   5.292
 6236TIP3    H218673   4.797   3.460   5.220
 6237TIP3   OH218674   3.257   5.752   3.700
 6237TIP3    H118675   3.337   5.801   3.723
 6237TIP3    H218676   3.236   5.782   3.612
 6238TIP3   OH218677   3.855   5.977   2.244
 6238TIP3    H118678   3.922   6.021   2.191
 6238TIP3    H218679   3.772   6.008   2.209
 6239TIP3   OH218680   4.584   0.506   5.261
 6239TIP3    H118681   4.663   0.479   5.309
 6239TIP3    H218682   4.595   0.600   5.249
 6240TIP3   OH218683   5.827   4.607   0.708
 6240TIP3    H118684   5.769   4.531   0.719
 6240TIP3    H218685   5.879   4.587   0.630
 6241TIP3   OH218686   1.254   6.015   2.986
 6241TIP3    H118687   1.280   5.931   2.948
 6241TIP3    H218688   1.321   6.077   2.956
 6242TIP3   OH218689   3.769   5.384   2.794
 6242TIP3    H118690   3.834   5.321   2.764
 6242TIP3    H218691   3.820   5.463   2.814
 6243TIP3   OH218692   2.792   3.039   2.590
 6243TIP3    H118693   2.849   2.978   2.544
 6243TIP3    H218694   2.764   3.102   2.524
 6244TIP3   OH218695   4.176   5.602   0.710
 6244TIP3    H118696   4.151   5.557   0.791
 6244TIP3    H218697   4.227   5.537   0.661
 6245TIP3   OH218698   3.613   4.466   4.921
 6245TIP3    H118699   3.700   4.494   4.949
 6245TIP3    H218700   3.582   4.408   4.990
 6246TIP3   OH218701   3.934   3.107   1.659
 6246TIP3    H118702   3.874   3.122   1.586
 6246TIP3    H218703   3.947   3.194   1.697
 6247TIP3   OH218704   6.920   6.231   5.219
 6247TIP3    H118705   6.888   6.315   5.252
 6247TIP3    H218706   6.852   6.168   5.244
 6248TIP3   OH218707   1.103   0.946   1.792
 6248TIP3    H118708   1.122   0.854   1.809
 6248TIP3    H218709   1.144   0.993   1.865
 6249TIP3   OH218710   6.838   2.331   5.410
 6249TIP3    H118711   6.874   2.419   5.418
 6249TIP3    H218712   6.885   2.280   5.476
 6250TIP3   OH218713   1.166   5.088   1.206
 6250TIP3    H118714   1.102   5.150   1.172
 6250TIP3    H218715   1.244   5.141   1.223
 6251TIP3   OH218716   1.943   4.334   0.279
 6251TIP3    H118717   2.013   4.280   0.315
 6251TIP3    H218718   1.959   4.335   0.184
 6252TIP3   OH218719   1.175   3.213   4.157
 6252TIP3    H118720   1.104   3.150   4.144
 6252TIP3    H218721   1.194   3.246   4.070
 6253TIP3   OH218722   5.599   2.657   0.879
 6253TIP3    H118723   5.577   2.575   0.835
 6253TIP3    H218724   5.611   2.632   0.971
 6254TIP3   OH218725   0.321   3.410   1.236
 6254TIP3    H118726   0.343   3.464   1.312
 6254TIP3    H218727   0.393   3.425   1.175
 6255TIP3   OH218728   6.250   3.732   4.297
 6255TIP3    H118729   6.272   3.717   4.205
 6255TIP3    H218730   6.209   3.819   4.299
 6256TIP3   OH218731   1.710   2.294   2.039
 6256TIP3    H118732   1.787   2.241   2.015
 6256TIP3    H218733   1.675   2.323   1.955
 6257TIP3   OH218734   3.952   1.979   1.763
 6257TIP3    H118735   3.879   2.017   1.812
 6257TIP3    H218736   4.030   2.017   1.803
 6258TIP3   OH218737   3.128   5.901   2.867
 6258TIP3    H118738   3.139   5.973   2.930
 6258TIP3    H218739   3.137   5.943   2.781
 6259TIP3   OH218740   1.012   0.990   0.029
 6259TIP3    H118741   0.917   0.986   0.042
 6259TIP3    H218742   1.046   1.025   0.111
 6260TIP3   OH218743   7.084   6.495   5.067
 6260TIP3    H118744   7.020   6.499   5.138
 6260TIP3    H218745   7.060   6.417   5.018
 6261TIP3   OH218746   2.363   4.913   2.762
 6261TIP3    H118747   2.434   4.977   2.768
 6261TIP3    H218748   2.288   4.963   2.727
 6262TIP3   OH218749   3.490   4.855   3.165
 6262TIP3    H118750   3.512   4.781   3.110
 6262TIP3    H218751   3.573   4.899   3.182
 6263TIP3   OH218752   5.211   5.790   4.829
 6263TIP3    H118753   5.297   5.824   4.804
 6263TIP3    H218754   5.170   5.766   4.745
 6264TIP3   OH218755   0.324   5.872   0.516
 6264TIP3    H118756   0.300   5.862   0.424
 6264TIP3    H218757   0.316   5.966   0.533
 6265TIP3   OH218758   5.201   0.373   0.344
 6265TIP3    H118759   5.171   0.283   0.355
 6265TIP3    H218760   5.241   0.396   0.427
 6266TIP3   OH218761   7.161   5.438   2.908
 6266TIP3    H118762   7.090   5.490   2.870
 6266TIP3    H218763   7.204   5.499   2.968
 6267TIP3   OH218764   1.427   5.620   1.090
 6267TIP3    H118765   1.433   5.603   0.996
 6267TIP3    H218766   1.517   5.614   1.121
 6268TIP3   OH218767   4.872   2.541   1.549
 6268TIP3    H118768   4.823   2.461   1.533
 6268TIP3    H218769   4.964   2.516   1.537
 6269TIP3   OH218770   2.237   2.982   1.479
 6269TIP3    H118771   2.298   2.998   1.407
 6269TIP3    H218772   2.207   3.069   1.504
 6270TIP3   OH218773   0.825   1.290   0.567
 6270TIP3    H118774   0.818   1.203   0.528
 6270TIP3    H218775   0.745   1.335   0.539
 6271TIP3   OH218776   5.437   5.169   2.029
 6271TIP3    H118777   5.381   5.197   1.957
 6271TIP3    H218778   5.399   5.086   2.058
 6272TIP3   OH218779   2.705   5.052   1.423
 6272TIP3    H118780   2.630   5.025   1.370
 6272TIP3    H218781   2.776   5.064   1.359
 6273TIP3   OH218782   7.062   5.546   1.524
 6273TIP3    H118783   6.970   5.543   1.550
 6273TIP3    H218784   7.109   5.566   1.605
 6274TIP3   OH218785   1.776   1.150   0.246
 6274TIP3    H118786   1.703   1.212   0.254
 6274TIP3    H218787   1.838   1.193   0.188
 6275TIP3   OH218788   4.772   5.485   2.468
 6275TIP3    H118789   4.774   5.392   2.494
 6275TIP3    H218790   4.690   5.494   2.420
 6276TIP3   OH218791   6.350   1.629   5.772
 6276TIP3    H118792   6.393   1.697   5.824
 6276TIP3    H218793   6.417   1.561   5.762
 6277TIP3   OH218794   6.609   1.083   4.301
 6277TIP3    H118795   6.636   1.060   4.212
 6277TIP3    H218796   6.652   1.166   4.319
 6278TIP3   OH218797   5.740   1.195   3.359
 6278TIP3    H118798   5.833   1.173   3.347
 6278TIP3    H218799   5.694   1.113   3.339
 6279TIP3   OH218800   3.411   3.522   1.939
 6279TIP3    H118801   3.397   3.431   1.910
 6279TIP3    H218802   3.403   3.574   1.859
 6280TIP3   OH218803   1.897   5.728   5.358
 6280TIP3    H118804   1.871   5.643   5.324
 6280TIP3    H218805   1.884   5.788   5.284
 6281TIP3   OH218806   3.862   1.059   5.040
 6281TIP3    H118807   3.923   1.011   5.096
 6281TIP3    H218808   3.776   1.037   5.075
 6282TIP3   OH218809   1.664   2.172   3.713
 6282TIP3    H118810   1.630   2.254   3.676
 6282TIP3    H218811   1.588   2.113   3.714
 6283TIP3   OH218812   1.504   6.174   2.057
 6283TIP3    H118813   1.537   6.221   1.980
 6283TIP3    H218814   1.411   6.197   2.061
 6284TIP3   OH218815   6.012   1.486   4.236
 6284TIP3    H118816   5.946   1.535   4.186
 6284TIP3    H218817   5.973   1.477   4.323
 6285TIP3   OH218818   3.381   5.732   1.504
 6285TIP3    H118819   3.346   5.798   1.564
 6285TIP3    H218820   3.401   5.657   1.560
 6286TIP3   OH218821   5.996   0.917   1.932
 6286TIP3    H118822   5.969   0.855   1.865
 6286TIP3    H218823   6.081   0.951   1.902
 6287TIP3   OH218824   1.800   6.591   0.584
 6287TIP3    H118825   1.868   6.581   0.651
 6287TIP3    H218826   1.728   6.536   0.614
 6288TIP3   OH218827   6.283   6.035   0.418
 6288TIP3    H118828   6.374   6.065   0.428
 6288TIP3    H218829   6.237   6.112   0.384
 6289TIP3   OH218830   5.935   0.870   3.034
 6289TIP3    H118831   5.996   0.879   3.107
 6289TIP3    H218832   5.911   0.959   3.010
 6290TIP3   OH218833   6.521   0.910   0.952
 6290TIP3    H118834   6.465   0.832   0.957
 6290TIP3    H218835   6.577   0.894   0.876
 6291TIP3   OH218836   7.283   3.153   3.156
 6291TIP3    H118837   7.228   3.128   3.231
 6291TIP3    H218838   7.233   3.222   3.112
 6292TIP3   OH218839   2.904   2.681   0.196
 6292TIP3    H118840   2.821   2.715   0.162
 6292TIP3    H218841   2.964   2.683   0.122
 6293TIP3   OH218842   3.859   5.698   2.032
 6293TIP3    H118843   3.943   5.727   2.070
 6293TIP3    H218844   3.842   5.613   2.073
 6294TIP3   OH218845   1.923   3.023   2.810
 6294TIP3    H118846   1.966   2.992   2.890
 6294TIP3    H218847   1.984   3.001   2.740
 6295TIP3   OH218848   1.079   6.044   0.291
 6295TIP3    H118849   0.998   6.093   0.274
 6295TIP3    H218850   1.050   5.954   0.305
 6296TIP3   OH218851   3.311   2.520   1.030
 6296TIP3    H118852   3.261   2.601   1.040
 6296TIP3    H218853   3.353   2.508   1.115
 6297TIP3   OH218854   3.341   0.974   4.676
 6297TIP3    H118855   3.395   0.939   4.746
 6297TIP3    H218856   3.391   0.956   4.596
 6298TIP3   OH218857   7.123   2.998   2.902
 6298TIP3    H118858   7.077   3.069   2.947
 6298TIP3    H218859   7.113   2.922   2.960
 6299TIP3   OH218860   5.253   0.874   2.952
 6299TIP3    H118861   5.290   0.962   2.945
 6299TIP3    H218862   5.258   0.839   2.862
 6300TIP3   OH218863   0.686   2.972   3.056
 6300TIP3    H118864   0.655   3.015   2.977
 6300TIP3    H218865   0.771   2.935   3.032
 6301TIP3   OH218866   0.360   3.230   0.735
 6301TIP3    H118867   0.273   3.191   0.728
 6301TIP3    H218868   0.354   3.288   0.811
 6302TIP3   OH218869   3.073   5.437   4.911
 6302TIP3    H118870   3.117   5.512   4.951
 6302TIP3    H218871   2.998   5.475   4.865
 6303TIP3   OH218872   3.717   2.676   5.543
 6303TIP3    H118873   3.655   2.635   5.604
 6303TIP3    H218874   3.687   2.766   5.534
 6304TIP3   OH218875   4.448   1.299   0.628
 6304TIP3    H118876   4.414   1.241   0.559
 6304TIP3    H218877   4.511   1.244   0.675
 6305TIP3   OH218878   3.233   4.792   5.417
 6305TIP3    H118879   3.289   4.782   5.340
 6305TIP3    H218880   3.294   4.821   5.486
 6306TIP3   OH218881   6.006   5.580   4.016
 6306TIP3    H118882   6.022   5.670   4.045
 6306TIP3    H218883   5.916   5.562   4.043
 6307TIP3   OH218884   0.589   1.420   0.486
 6307TIP3    H118885   0.570   1.500   0.438
 6307TIP3    H218886   0.529   1.355   0.450
 6308TIP3   OH218887   5.818   5.135   2.792
 6308TIP3    H118888   5.885   5.074   2.760
 6308TIP3    H218889   5.735   5.090   2.774
 6309TIP3   OH218890   2.000   2.592   0.151
 6309TIP3    H118891   2.095   2.597   0.137
 6309TIP3    H218892   1.964   2.657   0.091
 6310TIP3   OH218893   0.128   4.077   5.655
 6310TIP3    H118894   0.222   4.085   5.642
 6310TIP3    H218895   0.101   4.006   5.597
 6311TIP3   OH218896   3.700   5.679   4.187
 6311TIP3    H118897   3.700   5.595   4.139
 6311TIP3    H218898   3.710   5.654   4.279
 6312TIP3   OH218899   2.747   3.629   3.104
 6312TIP3    H118900   2.735   3.689   3.177
 6312TIP3    H218901   2.830   3.654   3.065
 6313TIP3   OH218902   1.003   0.631   0.633
 6313TIP3    H118903   0.908   0.616   0.628
 6313TIP3    H218904   1.011   0.720   0.667
 6314TIP3   OH218905   0.743   4.805   3.408
 6314TIP3    H118906   0.690   4.883   3.424
 6314TIP3    H218907   0.698   4.736   3.455
 6315TIP3   OH218908   4.255   1.599   2.516
 6315TIP3    H118909   4.272   1.675   2.459
 6315TIP3    H218910   4.222   1.532   2.457
 6316TIP3   OH218911   5.366   3.446   2.310
 6316TIP3    H118912   5.308   3.503   2.361
 6316TIP3    H218913   5.429   3.412   2.374
 6317TIP3   OH218914   7.058   2.828   5.777
 6317TIP3    H118915   7.076   2.747   5.825
 6317TIP3    H218916   6.962   2.830   5.769
 6318TIP3   OH218917   2.442   0.978   0.841
 6318TIP3    H118918   2.357   1.020   0.830
 6318TIP3    H218919   2.488   0.994   0.759
 6319TIP3   OH218920   2.611   0.152   1.365
 6319TIP3    H118921   2.638   0.213   1.297
 6319TIP3    H218922   2.644   0.190   1.446
 6320TIP3   OH218923   4.238   3.999   4.616
 6320TIP3    H118924   4.199   3.930   4.562
 6320TIP3    H218925   4.168   4.024   4.677
 6321TIP3   OH218926   3.161   2.256   2.223
 6321TIP3    H118927   3.232   2.259   2.287
 6321TIP3    H218928   3.199   2.289   2.142
 6322TIP3   OH218929   1.788   0.728   5.746
 6322TIP3    H118930   1.751   0.663   5.687
 6322TIP3    H218931   1.867   0.759   5.700
 6323TIP3   OH218932   7.066   5.562   1.053
 6323TIP3    H118933   7.009   5.520   1.117
 6323TIP3    H218934   7.091   5.645   1.095
 6324TIP3   OH218935   5.027   2.084   0.704
 6324TIP3    H118936   5.000   2.172   0.679
 6324TIP3    H218937   5.103   2.097   0.760
 6325TIP3   OH218938   5.357   6.225   1.850
 6325TIP3    H118939   5.397   6.306   1.819
 6325TIP3    H218940   5.431   6.166   1.865
 6326TIP3   OH218941   3.765   1.330   0.384
 6326TIP3    H118942   3.809   1.415   0.372
 6326TIP3    H218943   3.690   1.333   0.325
 6327TIP3   OH218944   1.697   1.614   3.808
 6327TIP3    H118945   1.702   1.706   3.832
 6327TIP3    H218946   1.618   1.582   3.851
 6328TIP3   OH218947   5.636   3.977   1.650
 6328TIP3    H118948   5.588   3.913   1.703
 6328TIP3    H218949   5.621   4.060   1.694
 6329TIP3   OH218950   6.659   0.914   3.661
 6329TIP3    H118951   6.590   0.974   3.635
 6329TIP3    H218952   6.614   0.832   3.681
 6330TIP3   OH218953   6.322   4.004   3.023
 6330TIP3    H118954   6.288   4.055   2.949
 6330TIP3    H218955   6.245   3.963   3.062
 6331TIP3   OH218956   0.120   2.807   2.014
 6331TIP3    H118957   0.061   2.804   1.940
 6331TIP3    H218958   0.177   2.731   2.003
 6332TIP3   OH218959   1.945   3.991   1.344
 6332TIP3    H118960   1.893   3.920   1.382
 6332TIP3    H218961   2.034   3.976   1.376
 6333TIP3   OH218962   4.388   2.359   4.880
 6333TIP3    H118963   4.450   2.287   4.891
 6333TIP3    H218964   4.335   2.335   4.804
 6334TIP3   OH218965   5.115   3.753   0.417
 6334TIP3    H118966   5.061   3.676   0.434
 6334TIP3    H218967   5.110   3.765   0.322
 6335TIP3   OH218968   6.854   0.021   4.136
 6335TIP3    H118969   6.786   0.029   4.069
 6335TIP3    H218970   6.807  -0.006   4.215
 6336TIP3   OH218971   2.456   1.306   2.191
 6336TIP3    H118972   2.420   1.337   2.274
 6336TIP3    H218973   2.477   1.386   2.143
 6337TIP3   OH218974   1.845   5.974   4.447
 6337TIP3    H118975   1.751   5.962   4.458
 6337TIP3    H218976   1.860   6.068   4.459
 6338TIP3   OH218977   3.370   4.821   2.310
 6338TIP3    H118978   3.374   4.805   2.216
 6338TIP3    H218979   3.283   4.788   2.336
 6339TIP3   OH218980   4.157   3.684   1.101
 6339TIP3    H118981   4.075   3.682   1.149
 6339TIP3    H218982   4.221   3.646   1.162
 6340TIP3   OH218983   1.553   1.568   1.024
 6340TIP3    H118984   1.524   1.524   1.103
 6340TIP3    H218985   1.647   1.580   1.036
 6341TIP3   OH218986   0.587   3.132   0.055
 6341TIP3    H118987   0.582   3.170   0.143
 6341TIP3    H218988   0.542   3.195  -0.001
 6342TIP3   OH218989   6.068   5.904   4.879
 6342TIP3    H118990   6.111   5.959   4.944
 6342TIP3    H218991   6.089   5.815   4.904
 6343TIP3   OH218992   1.243   0.973   0.261
 6343TIP3    H118993   1.285   0.900   0.306
 6343TIP3    H218994   1.215   1.031   0.331
 6344TIP3   OH218995   6.051   6.040   3.430
 6344TIP3    H118996   6.078   5.962   3.382
 6344TIP3    H218997   6.014   6.098   3.363
 6345TIP3   OH218998   0.149   2.024   5.267
 6345TIP3    H118999   0.139   2.057   5.178
 6345TIP3    H219000   0.066   2.044   5.310
 6346TIP3   OH219001   6.378   4.469   1.650
 6346TIP3    H119002   6.381   4.523   1.729
 6346TIP3    H219003   6.467   4.434   1.642
 6347TIP3   OH219004   4.644   6.494   4.410
 6347TIP3    H119005   4.714   6.431   4.428
 6347TIP3    H219006   4.639   6.496   4.314
 6348TIP3   OH219007   0.321   3.517   1.489
 6348TIP3    H119008   0.270   3.471   1.556
 6348TIP3    H219009   0.264   3.589   1.461
 6349TIP3   OH219010   1.525   0.263   4.215
 6349TIP3    H119011   1.465   0.216   4.273
 6349TIP3    H219012   1.516   0.220   4.130
 6350TIP3   OH219013   3.571   0.554   4.760
 6350TIP3    H119014   3.480   0.583   4.759
 6350TIP3    H219015   3.584   0.512   4.675
 6351TIP3   OH219016   1.145   6.773   2.664
 6351TIP3    H119017   1.212   6.717   2.627
 6351TIP3    H219018   1.154   6.762   2.759
 6352TIP3   OH219019   2.723   2.271   2.373
 6352TIP3    H119020   2.811   2.286   2.408
 6352TIP3    H219021   2.727   2.305   2.283
 6353TIP3   OH219022   3.881   2.207   1.242
 6353TIP3    H119023   3.903   2.284   1.190
 6353TIP3    H219024   3.888   2.236   1.333
 6354TIP3   OH219025   0.809   0.190   0.497
 6354TIP3    H119026   0.804   0.278   0.457
 6354TIP3    H219027   0.903   0.173   0.506
 6355TIP3   OH219028   5.871   4.460   2.787
 6355TIP3    H119029   5.857   4.490   2.697
 6355TIP3    H219030   5.947   4.402   2.781
 6356TIP3   OH219031   2.390   1.403   2.445
 6356TIP3    H119032   2.320   1.467   2.439
 6356TIP3    H219033   2.366   1.346   2.518
 6357TIP3   OH219034   2.014   1.419   4.482
 6357TIP3    H119035   2.001   1.327   4.459
 6357TIP3    H219036   1.926   1.456   4.483
 6358TIP3   OH219037   3.376   5.039   0.679
 6358TIP3    H119038   3.355   5.049   0.772
 6358TIP3    H219039   3.395   4.946   0.668
 6359TIP3   OH219040   0.576   1.520   4.212
 6359TIP3    H119041   0.641   1.452   4.196
 6359TIP3    H219042   0.603   1.592   4.154
 6360TIP3   OH219043   6.204   4.612   2.055
 6360TIP3    H119044   6.267   4.568   1.999
 6360TIP3    H219045   6.201   4.559   2.134
 6361TIP3   OH219046   0.351   5.738   1.065
 6361TIP3    H119047   0.439   5.711   1.090
 6361TIP3    H219048   0.350   5.833   1.080
 6362TIP3   OH219049   5.734   6.247   3.147
 6362TIP3    H119050   5.667   6.290   3.201
 6362TIP3    H219051   5.725   6.287   3.061
 6363TIP3   OH219052   6.090   3.704   2.264
 6363TIP3    H119053   6.108   3.743   2.349
 6363TIP3    H219054   6.027   3.763   2.223
 6364TIP3   OH219055   3.317   2.020   0.698
 6364TIP3    H119056   3.349   1.979   0.617
 6364TIP3    H219057   3.253   2.085   0.667
 6365TIP3   OH219058   5.224   6.277   0.138
 6365TIP3    H119059   5.146   6.311   0.095
 6365TIP3    H219060   5.197   6.191   0.172
 6366TIP3   OH219061   5.538   0.287   4.627
 6366TIP3    H119062   5.587   0.218   4.671
 6366TIP3    H219063   5.452   0.288   4.670
 6367TIP3   OH219064   6.335   4.921   2.552
 6367TIP3    H119065   6.304   4.952   2.637
 6367TIP3    H219066   6.362   4.831   2.568
 6368TIP3   OH219067   1.382   2.094   4.744
 6368TIP3    H119068   1.309   2.155   4.758
 6368TIP3    H219069   1.438   2.105   4.821
 6369TIP3   OH219070   0.955   4.183   4.314
 6369TIP3    H119071   0.965   4.088   4.313
 6369TIP3    H219072   0.885   4.200   4.377
 6370TIP3   OH219073   5.112   3.854   1.681
 6370TIP3    H119074   5.026   3.880   1.647
 6370TIP3    H219075   5.107   3.875   1.775
 6371TIP3   OH219076   5.680   2.864   1.185
 6371TIP3    H119077   5.764   2.893   1.151
 6371TIP3    H219078   5.663   2.781   1.139
 6372TIP3   OH219079   6.630   3.286   4.180
 6372TIP3    H119080   6.621   3.208   4.235
 6372TIP3    H219081   6.564   3.346   4.213
 6373TIP3   OH219082   5.505   5.960   5.444
 6373TIP3    H119083   5.442   5.928   5.508
 6373TIP3    H219084   5.452   6.008   5.380
 6374TIP3   OH219085   6.784   2.121   2.608
 6374TIP3    H119086   6.691   2.141   2.611
 6374TIP3    H219087   6.804   2.083   2.694
 6375TIP3   OH219088   0.682   3.714   4.325
 6375TIP3    H119089   0.644   3.729   4.239
 6375TIP3    H219090   0.776   3.703   4.308
 6376TIP3   OH219091   4.452   2.377   5.389
 6376TIP3    H119092   4.390   2.411   5.324
 6376TIP3    H219093   4.473   2.288   5.358
 6377TIP3   OH219094   3.296   1.743   1.897
 6377TIP3    H119095   3.212   1.713   1.933
 6377TIP3    H219096   3.285   1.837   1.887
 6378TIP3   OH219097   5.707   0.859   4.016
 6378TIP3    H119098   5.688   0.772   4.052
 6378TIP3    H219099   5.680   0.920   4.083
 6379TIP3   OH219100   4.133   2.707   1.116
 6379TIP3    H119101   4.181   2.721   1.198
 6379TIP3    H219102   4.045   2.682   1.143
 6380TIP3   OH219103   5.440   6.228   1.312
 6380TIP3    H119104   5.387   6.244   1.234
 6380TIP3    H219105   5.497   6.154   1.289
 6381TIP3   OH219106   0.700   0.509   2.032
 6381TIP3    H119107   0.675   0.472   1.948
 6381TIP3    H219108   0.754   0.442   2.074
 6382TIP3   OH219109   0.100   4.948   3.669
 6382TIP3    H119110   0.086   4.892   3.745
 6382TIP3    H219111   0.014   4.985   3.651
 6383TIP3   OH219112   6.002   5.349   4.817
 6383TIP3    H119113   5.911   5.325   4.832
 6383TIP3    H219114   6.005   5.444   4.832
 6384TIP3   OH219115   2.028   1.875   2.940
 6384TIP3    H119116   2.097   1.864   3.005
 6384TIP3    H219117   2.033   1.796   2.886
 6385TIP3   OH219118   0.923   6.679   2.554
 6385TIP3    H119119   0.986   6.708   2.620
 6385TIP3    H219120   0.924   6.749   2.488
 6386TIP3   OH219121   2.385   3.727   5.661
 6386TIP3    H119122   2.405   3.635   5.679
 6386TIP3    H219123   2.292   3.728   5.641
 6387TIP3   OH219124   0.060   1.723   3.433
 6387TIP3    H119125   0.125   1.727   3.504
 6387TIP3    H219126   0.008   1.802   3.444
 6388TIP3   OH219127   4.567   1.144   5.422
 6388TIP3    H119128   4.488   1.098   5.396
 6388TIP3    H219129   4.632   1.075   5.436
 6389TIP3   OH219130   6.674   4.133   5.447
 6389TIP3    H119131   6.685   4.228   5.456
 6389TIP3    H219132   6.644   4.121   5.357
 6390TIP3   OH219133   0.429   1.271   5.492
 6390TIP3    H119134   0.511   1.240   5.453
 6390TIP3    H219135   0.403   1.345   5.437
 6391TIP3   OH219136   3.277   4.308   3.214
 6391TIP3    H119137   3.201   4.364   3.199
 6391TIP3    H219138   3.251   4.222   3.181
 6392TIP3   OH219139   4.004   0.599   4.886
 6392TIP3    H119140   4.002   0.508   4.915
 6392TIP3    H219141   4.001   0.594   4.790
 6393TIP3   OH219142   4.145   4.198   4.874
 6393TIP3    H119143   4.131   4.106   4.852
 6393TIP3    H219144   4.238   4.213   4.856
 6394TIP3   OH219145   6.645   1.313   5.319
 6394TIP3    H119146   6.734   1.289   5.293
 6394TIP3    H219147   6.617   1.376   5.252
 6395TIP3   OH219148   0.737   3.540   3.503
 6395TIP3    H119149   0.653   3.495   3.513
 6395TIP3    H219150   0.730   3.586   3.419
 6396TIP3   OH219151   6.337   5.991   2.552
 6396TIP3    H119152   6.242   5.984   2.545
 6396TIP3    H219153   6.370   5.909   2.516
 6397TIP3   OH219154   2.847   5.031   0.544
 6397TIP3    H119155   2.834   4.971   0.470
 6397TIP3    H219156   2.930   5.003   0.583
 6398TIP3   OH219157   5.119   5.685   0.231
 6398TIP3    H119158   5.104   5.607   0.285
 6398TIP3    H219159   5.160   5.748   0.290
 6399TIP3   OH219160   2.749   6.647   4.154
 6399TIP3    H119161   2.742   6.735   4.116
 6399TIP3    H219162   2.773   6.662   4.245
 6400TIP3   OH219163   5.640   5.848   2.401
 6400TIP3    H119164   5.649   5.907   2.326
 6400TIP3    H219165   5.545   5.839   2.413
 6401TIP3   OH219166   4.044   2.477   5.726
 6401TIP3    H119167   4.045   2.444   5.816
 6401TIP3    H219168   4.123   2.441   5.686
 6402TIP3   OH219169   0.717   5.424   0.138
 6402TIP3    H119170   0.713   5.513   0.103
 6402TIP3    H219171   0.701   5.368   0.062
 6403TIP3   OH219172   6.510   4.780   1.280
 6403TIP3    H119173   6.539   4.793   1.370
 6403TIP3    H219174   6.451   4.705   1.284
 6404TIP3   OH219175   6.718   2.145   3.034
 6404TIP3    H119176   6.707   2.093   2.954
 6404TIP3    H219177   6.680   2.230   3.012
 6405TIP3   OH219178   3.623   1.414   1.871
 6405TIP3    H119179   3.601   1.418   1.964
 6405TIP3    H219180   3.547   1.454   1.828
 6406TIP3   OH219181   1.700   2.090   4.603
 6406TIP3    H119182   1.614   2.048   4.599
 6406TIP3    H219183   1.760   2.019   4.628
 6407TIP3   OH219184   3.343   1.636   4.291
 6407TIP3    H119185   3.291   1.717   4.296
 6407TIP3    H219186   3.285   1.573   4.250
 6408TIP3   OH219187   6.879   5.821   5.757
 6408TIP3    H119188   6.941   5.837   5.828
 6408TIP3    H219189   6.799   5.866   5.785
 6409TIP3   OH219190   1.766   1.509   1.559
 6409TIP3    H119191   1.855   1.538   1.582
 6409TIP3    H219192   1.748   1.438   1.619
 6410TIP3   OH219193   2.835   3.817   2.224
 6410TIP3    H119194   2.756   3.817   2.279
 6410TIP3    H219195   2.812   3.874   2.150
 6411TIP3   OH219196   1.344   2.695   4.309
 6411TIP3    H119197   1.337   2.784   4.341
 6411TIP3    H219198   1.388   2.647   4.379
 6412TIP3   OH219199   2.511   0.855   1.642
 6412TIP3    H119200   2.536   0.913   1.570
 6412TIP3    H219201   2.425   0.820   1.615
 6413TIP3   OH219202   3.425   3.156   2.044
 6413TIP3    H119203   3.478   3.100   2.100
 6413TIP3    H219204   3.395   3.227   2.101
 6414TIP3   OH219205   6.573   6.477   5.196
 6414TIP3    H119206   6.500   6.478   5.257
 6414TIP3    H219207   6.580   6.567   5.164
 6415TIP3   OH219208   3.596   2.507   2.566
 6415TIP3    H119209   3.609   2.489   2.659
 6415TIP3    H219210   3.601   2.602   2.558
 6416TIP3   OH219211   2.707   6.222   4.693
 6416TIP3    H119212   2.708   6.164   4.769
 6416TIP3    H219213   2.619   6.214   4.657
 6417TIP3   OH219214   0.317   1.262   4.906
 6417TIP3    H119215   0.340   1.301   4.990
 6417TIP3    H219216   0.287   1.173   4.928
 6418TIP3   OH219217   0.204   1.519   1.675
 6418TIP3    H119218   0.140   1.589   1.669
 6418TIP3    H219219   0.256   1.540   1.753
 6419TIP3   OH219220   0.156   3.760   5.849
 6419TIP3    H119221   0.221   3.774   5.780
 6419TIP3    H219222   0.082   3.721   5.804
 6420TIP3   OH219223   5.687   1.198   5.104
 6420TIP3    H119224   5.663   1.194   5.197
 6420TIP3    H219225   5.606   1.178   5.057
 6421TIP3   OH219226   1.790   1.329   1.781
 6421TIP3    H119227   1.794   1.237   1.757
 6421TIP3    H219228   1.734   1.331   1.859
 6422TIP3   OH219229   5.259   4.049   2.272
 6422TIP3    H119230   5.237   4.070   2.363
 6422TIP3    H219231   5.184   3.998   2.241
 6423TIP3   OH219232   2.728   1.412   4.810
 6423TIP3    H119233   2.760   1.437   4.897
 6423TIP3    H219234   2.770   1.475   4.751
 6424TIP3   OH219235   0.195   2.941   4.147
 6424TIP3    H119236   0.253   2.866   4.163
 6424TIP3    H219237   0.236   3.013   4.195
 6425TIP3   OH219238   5.470   1.705   5.123
 6425TIP3    H119239   5.557   1.727   5.092
 6425TIP3    H219240   5.485   1.646   5.196
 6426TIP3   OH219241   1.692   5.829   5.101
 6426TIP3    H119242   1.701   5.828   5.006
 6426TIP3    H219243   1.765   5.882   5.132
 6427TIP3   OH219244   5.939   1.013   3.981
 6427TIP3    H119245   5.879   0.938   3.990
 6427TIP3    H219246   5.890   1.075   3.927
 6428TIP3   OH219247   1.621   4.230   3.195
 6428TIP3    H119248   1.650   4.143   3.167
 6428TIP3    H219249   1.689   4.260   3.255
 6429TIP3   OH219250   2.499   3.331   2.575
 6429TIP3    H119251   2.582   3.298   2.610
 6429TIP3    H219252   2.438   3.325   2.649
 6430TIP3   OH219253   5.519   1.761   4.746
 6430TIP3    H119254   5.559   1.699   4.806
 6430TIP3    H219255   5.465   1.708   4.688
 6431TIP3   OH219256   6.742   0.915   3.136
 6431TIP3    H119257   6.739   0.893   3.043
 6431TIP3    H219258   6.694   0.844   3.179
 6432TIP3   OH219259   4.969   5.214   0.453
 6432TIP3    H119260   4.981   5.123   0.426
 6432TIP3    H219261   4.965   5.210   0.548
 6433TIP3   OH219262   5.507   5.327   5.759
 6433TIP3    H119263   5.476   5.358   5.843
 6433TIP3    H219264   5.600   5.349   5.758
 6434TIP3   OH219265   2.181   4.379   4.493
 6434TIP3    H119266   2.225   4.445   4.547
 6434TIP3    H219267   2.215   4.394   4.405
 6435TIP3   OH219268   3.661   1.937   4.054
 6435TIP3    H119269   3.702   2.023   4.061
 6435TIP3    H219270   3.612   1.927   4.136
 6436TIP3   OH219271   2.687   6.158   5.198
 6436TIP3    H119272   2.703   6.110   5.117
 6436TIP3    H219273   2.641   6.095   5.254
 6437TIP3   OH219274   6.467   5.038   0.550
 6437TIP3    H119275   6.553   5.056   0.588
 6437TIP3    H219276   6.485   5.019   0.458
 6438TIP3   OH219277   5.257   5.458   1.370
 6438TIP3    H119278   5.263   5.384   1.310
 6438TIP3    H219279   5.294   5.426   1.452
 6439TIP3   OH219280   4.985   4.960   0.361
 6439TIP3    H119281   4.897   4.923   0.371
 6439TIP3    H219282   5.036   4.890   0.322
 6440TIP3   OH219283   3.031   1.067   2.490
 6440TIP3    H119284   3.117   1.029   2.504
 6440TIP3    H219285   2.981   0.998   2.447
 6441TIP3   OH219286   6.260   5.798   4.680
 6441TIP3    H119287   6.331   5.739   4.703
 6441TIP3    H219288   6.292   5.885   4.704
 6442TIP3   OH219289   0.158   1.886   0.116
 6442TIP3    H119290   0.107   1.891   0.035
 6442TIP3    H219291   0.100   1.922   0.183
 6443TIP3   OH219292   1.206   4.368   2.668
 6443TIP3    H119293   1.241   4.297   2.721
 6443TIP3    H219294   1.283   4.418   2.642
 6444TIP3   OH219295   5.601   6.029   2.222
 6444TIP3    H119296   5.658   6.072   2.159
 6444TIP3    H219297   5.513   6.059   2.199
 6445TIP3   OH219298   3.128   6.577   3.864
 6445TIP3    H119299   3.140   6.588   3.958
 6445TIP3    H219300   3.208   6.534   3.834
 6446TIP3   OH219301   6.308   3.958   0.614
 6446TIP3    H119302   6.228   3.941   0.563
 6446TIP3    H219303   6.321   3.878   0.665
 6447TIP3   OH219304   6.992   2.918   0.758
 6447TIP3    H119305   6.989   2.823   0.766
 6447TIP3    H219306   6.940   2.950   0.832
 6448TIP3   OH219307   3.782   1.037   5.715
 6448TIP3    H119308   3.756   0.999   5.631
 6448TIP3    H219309   3.747   1.126   5.713
 6449TIP3   OH219310   3.788   3.622   0.184
 6449TIP3    H119311   3.804   3.618   0.090
 6449TIP3    H219312   3.815   3.536   0.216
 6450TIP3   OH219313   0.124   3.163   2.800
 6450TIP3    H119314   0.073   3.083   2.814
 6450TIP3    H219315   0.064   3.233   2.824
 6451TIP3   OH219316   1.803   5.963   0.851
 6451TIP3    H119317   1.757   5.889   0.890
 6451TIP3    H219318   1.895   5.938   0.853
 6452TIP3   OH219319   4.974   0.278   2.538
 6452TIP3    H119320   5.066   0.253   2.532
 6452TIP3    H219321   4.932   0.237   2.462
 6453TIP3   OH219322   4.629   5.943   3.301
 6453TIP3    H119323   4.695   5.874   3.293
 6453TIP3    H219324   4.554   5.911   3.250
 6454TIP3   OH219325   4.301   2.689   1.392
 6454TIP3    H119326   4.340   2.735   1.467
 6454TIP3    H219327   4.296   2.598   1.420
 6455TIP3   OH219328   5.532   5.048   0.601
 6455TIP3    H119329   5.516   4.969   0.550
 6455TIP3    H219330   5.537   5.118   0.537
 6456TIP3   OH219331   4.005   0.631   3.126
 6456TIP3    H119332   4.021   0.706   3.069
 6456TIP3    H219333   3.952   0.571   3.074
 6457TIP3   OH219334   2.593   5.355   2.536
 6457TIP3    H119335   2.603   5.342   2.630
 6457TIP3    H219336   2.535   5.285   2.507
 6458TIP3   OH219337   5.815   5.237   1.076
 6458TIP3    H119338   5.850   5.226   0.988
 6458TIP3    H219339   5.725   5.269   1.062
 6459TIP3   OH219340   3.562   3.185   2.535
 6459TIP3    H119341   3.482   3.232   2.511
 6459TIP3    H219342   3.531   3.097   2.557
 6460TIP3   OH219343   3.990   3.509   5.554
 6460TIP3    H119344   4.076   3.534   5.520
 6460TIP3    H219345   3.978   3.418   5.524
 6461TIP3   OH219346   4.675   6.423   0.948
 6461TIP3    H119347   4.654   6.375   1.028
 6461TIP3    H219348   4.723   6.500   0.978
 6462TIP3   OH219349   2.131   4.386   1.098
 6462TIP3    H119350   2.218   4.423   1.080
 6462TIP3    H219351   2.100   4.358   1.012
 6463TIP3   OH219352   6.719   4.480   4.997
 6463TIP3    H119353   6.757   4.564   4.970
 6463TIP3    H219354   6.626   4.499   5.008
 6464TIP3   OH219355   5.932   5.395   4.298
 6464TIP3    H119356   5.887   5.429   4.376
 6464TIP3    H219357   5.876   5.422   4.225
 6465TIP3   OH219358   0.830   6.497   1.933
 6465TIP3    H119359   0.765   6.433   1.902
 6465TIP3    H219360   0.859   6.542   1.854
 6466TIP3   OH219361   1.043   3.079   0.917
 6466TIP3    H119362   1.028   3.169   0.888
 6466TIP3    H219363   1.104   3.043   0.853
 6467TIP3   OH219364   5.127   2.975   4.182
 6467TIP3    H119365   5.097   2.885   4.173
 6467TIP3    H219366   5.223   2.969   4.174
 6468TIP3   OH219367   4.095  -0.039   4.698
 6468TIP3    H119368   4.039  -0.113   4.719
 6468TIP3    H219369   4.073   0.028   4.763
 6469TIP3   OH219370   6.709   5.117   0.713
 6469TIP3    H119371   6.651   5.111   0.790
 6469TIP3    H219372   6.768   5.043   0.722
 6470TIP3   OH219373   6.675   2.130   1.601
 6470TIP3    H119374   6.763   2.114   1.567
 6470TIP3    H219375   6.619   2.131   1.524
 6471TIP3   OH219376   1.937   5.010   2.425
 6471TIP3    H119377   1.943   5.058   2.507
 6471TIP3    H219378   1.935   5.077   2.357
 6472TIP3   OH219379   0.349   6.415   1.272
 6472TIP3    H119380   0.301   6.363   1.208
 6472TIP3    H219381   0.436   6.427   1.234
 6473TIP3   OH219382   2.862   2.424   1.422
 6473TIP3    H119383   2.793   2.370   1.462
 6473TIP3    H219384   2.859   2.403   1.329
 6474TIP3   OH219385   2.068   3.618   1.034
 6474TIP3    H119386   2.141   3.567   0.999
 6474TIP3    H219387   1.997   3.555   1.043
 6475TIP3   OH219388   3.264   5.699   0.438
 6475TIP3    H119389   3.281   5.766   0.504
 6475TIP3    H219390   3.211   5.744   0.372
 6476TIP3   OH219391   2.510   4.429   5.644
 6476TIP3    H119392   2.423   4.412   5.680
 6476TIP3    H219393   2.569   4.419   5.718
 6477TIP3   OH219394  -0.006   1.722   4.096
 6477TIP3    H119395  -0.018   1.722   4.001
 6477TIP3    H219396   0.028   1.635   4.116
 6478TIP3   OH219397   2.611   6.695   5.574
 6478TIP3    H119398   2.632   6.646   5.494
 6478TIP3    H219399   2.516   6.690   5.581
 6479TIP3   OH219400   6.064   1.793   5.016
 6479TIP3    H119401   6.063   1.704   5.051
 6479TIP3    H219402   6.125   1.789   4.942
 6480TIP3   OH219403   6.791   1.601   0.350
 6480TIP3    H119404   6.856   1.580   0.416
 6480TIP3    H219405   6.837   1.658   0.288
 6481TIP3   OH219406   0.410   0.705   3.166
 6481TIP3    H119407   0.414   0.663   3.252
 6481TIP3    H219408   0.384   0.635   3.107
 6482TIP3   OH219409   4.803   4.764   1.510
 6482TIP3    H119410   4.825   4.671   1.509
 6482TIP3    H219411   4.754   4.779   1.429
 6483TIP3   OH219412   6.211   2.349   3.739
 6483TIP3    H119413   6.272   2.302   3.795
 6483TIP3    H219414   6.192   2.430   3.785
 6484TIP3   OH219415   0.873   5.514   2.469
 6484TIP3    H119416   0.907   5.427   2.487
 6484TIP3    H219417   0.804   5.499   2.403
 6485TIP3   OH219418   1.499   0.102   3.224
 6485TIP3    H119419   1.498   0.079   3.131
 6485TIP3    H219420   1.425   0.162   3.235
 6486TIP3   OH219421   6.403   6.543   3.691
 6486TIP3    H119422   6.397   6.447   3.691
 6486TIP3    H219423   6.388   6.567   3.782
 6487TIP3   OH219424   6.248   6.017   0.101
 6487TIP3    H119425   6.304   5.953   0.144
 6487TIP3    H219426   6.242   6.090   0.163
 6488TIP3   OH219427   1.113   6.655   1.273
 6488TIP3    H119428   1.078   6.630   1.187
 6488TIP3    H219429   1.057   6.728   1.301
 6489TIP3   OH219430   5.870   5.613   2.087
 6489TIP3    H119431   5.870   5.517   2.087
 6489TIP3    H219432   5.870   5.637   2.180
 6490TIP3   OH219433   1.628   1.606   1.793
 6490TIP3    H119434   1.721   1.627   1.786
 6490TIP3    H219435   1.584   1.687   1.769
 6491TIP3   OH219436   6.074   0.072   3.873
 6491TIP3    H119437   5.980   0.053   3.877
 6491TIP3    H219438   6.116  -0.007   3.905
 6492TIP3   OH219439   2.531   0.211   4.020
 6492TIP3    H119440   2.492   0.299   4.014
 6492TIP3    H219441   2.474   0.165   4.081
 6493TIP3   OH219442   3.193   6.487   2.300
 6493TIP3    H119443   3.154   6.400   2.296
 6493TIP3    H219444   3.121   6.545   2.326
 6494TIP3   OH219445   4.511   5.421   3.745
 6494TIP3    H119446   4.489   5.328   3.739
 6494TIP3    H219447   4.436   5.466   3.707
 6495TIP3   OH219448   6.060   4.472   5.584
 6495TIP3    H119449   5.975   4.460   5.626
 6495TIP3    H219450   6.113   4.399   5.615
 6496TIP3   OH219451   0.294   3.883   3.588
 6496TIP3    H119452   0.281   3.953   3.652
 6496TIP3    H219453   0.227   3.899   3.521
 6497TIP3   OH219454   6.940   0.843   4.786
 6497TIP3    H119455   7.010   0.785   4.753
 6497TIP3    H219456   6.894   0.790   4.851
 6498TIP3   OH219457   1.963   3.459   2.833
 6498TIP3    H119458   1.983   3.420   2.748
 6498TIP3    H219459   2.012   3.407   2.896
 6499TIP3   OH219460   2.216   2.182   0.636
 6499TIP3    H119461   2.261   2.202   0.554
 6499TIP3    H219462   2.267   2.227   0.703
 6500TIP3   OH219463   1.386   5.788   2.909
 6500TIP3    H119464   1.419   5.705   2.876
 6500TIP3    H219465   1.445   5.810   2.981
 6501TIP3   OH219466   7.143   0.101   3.241
 6501TIP3    H119467   7.235   0.077   3.235
 6501TIP3    H219468   7.107   0.041   3.306
 6502TIP3   OH219469   1.831   5.010   2.113
 6502TIP3    H119470   1.901   5.008   2.049
 6502TIP3    H219471   1.774   4.936   2.089
 6503TIP3   OH219472   5.233   1.048   1.639
 6503TIP3    H119473   5.155   1.075   1.592
 6503TIP3    H219474   5.232   0.952   1.636
 6504TIP3   OH219475   3.092   0.661   3.003
 6504TIP3    H119476   3.111   0.646   2.911
 6504TIP3    H219477   3.176   0.651   3.047
 6505TIP3   OH219478   1.806   1.648   2.538
 6505TIP3    H119479   1.797   1.606   2.452
 6505TIP3    H219480   1.741   1.604   2.592
 6506TIP3   OH219481   2.887   6.724   0.786
 6506TIP3    H119482   2.872   6.647   0.730
 6506TIP3    H219483   2.971   6.759   0.757
 6507TIP3   OH219484   2.330   1.814   2.222
 6507TIP3    H119485   2.420   1.826   2.253
 6507TIP3    H219486   2.296   1.902   2.210
 6508TIP3   OH219487   6.583   0.688   4.237
 6508TIP3    H119488   6.675   0.712   4.231
 6508TIP3    H219489   6.538   0.751   4.180
 6509TIP3   OH219490   5.658   6.681   2.949
 6509TIP3    H119491   5.610   6.606   2.982
 6509TIP3    H219492   5.660   6.743   3.022
 6510TIP3   OH219493   1.935   3.009   1.124
 6510TIP3    H119494   1.957   3.079   1.186
 6510TIP3    H219495   1.994   3.023   1.050
 6511TIP3   OH219496   2.864   5.943   5.383
 6511TIP3    H119497   2.915   6.018   5.413
 6511TIP3    H219498   2.773   5.971   5.393
 6512TIP3   OH219499   4.072   3.761   3.335
 6512TIP3    H119500   4.038   3.775   3.424
 6512TIP3    H219501   4.092   3.849   3.303
 6513TIP3   OH219502   1.705   0.373   3.014
 6513TIP3    H119503   1.757   0.315   2.959
 6513TIP3    H219504   1.753   0.455   3.016
 6514TIP3   OH219505   4.579   5.041   0.485
 6514TIP3    H119506   4.556   5.007   0.571
 6514TIP3    H219507   4.643   4.979   0.450
 6515TIP3   OH219508   1.862   3.686   3.081
 6515TIP3    H119509   1.815   3.605   3.063
 6515TIP3    H219510   1.838   3.744   3.009
 6516TIP3   OH219511   4.973   5.411   5.742
 6516TIP3    H119512   4.978   5.340   5.806
 6516TIP3    H219513   5.064   5.435   5.725
 6517TIP3   OH219514   6.559   2.312   5.314
 6517TIP3    H119515   6.641   2.279   5.352
 6517TIP3    H219516   6.519   2.235   5.273
 6518TIP3   OH219517   5.397   2.171   2.160
 6518TIP3    H119518   5.333   2.210   2.219
 6518TIP3    H219519   5.351   2.160   2.078
 6519TIP3   OH219520   0.590   0.504   0.827
 6519TIP3    H119521   0.626   0.425   0.868
 6519TIP3    H219522   0.511   0.474   0.782
 6520TIP3   OH219523   6.175   4.241   3.142
 6520TIP3    H119524   6.252   4.224   3.196
 6520TIP3    H219525   6.124   4.160   3.148
 6521TIP3   OH219526   3.181   6.715   5.106
 6521TIP3    H119527   3.117   6.644   5.105
 6521TIP3    H219528   3.238   6.697   5.031
 6522TIP3   OH219529   4.690   2.165   0.124
 6522TIP3    H119530   4.685   2.180   0.029
 6522TIP3    H219531   4.612   2.206   0.159
 6523TIP3   OH219532   1.534   2.582   0.684
 6523TIP3    H119533   1.613   2.630   0.656
 6523TIP3    H219534   1.495   2.551   0.602
 6524TIP3   OH219535   2.431   0.381   3.208
 6524TIP3    H119536   2.377   0.343   3.277
 6524TIP3    H219537   2.383   0.362   3.127
 6525TIP3   OH219538   6.828   1.625   4.234
 6525TIP3    H119539   6.778   1.661   4.307
 6525TIP3    H219540   6.915   1.664   4.243
 6526TIP3   OH219541   3.169   5.902   3.474
 6526TIP3    H119542   3.179   5.939   3.386
 6526TIP3    H219543   3.077   5.914   3.495
 6527TIP3   OH219544   4.043   6.254   5.746
 6527TIP3    H119545   4.017   6.346   5.744
 6527TIP3    H219546   3.965   6.208   5.774
 6528TIP3   OH219547   0.424   5.528   5.359
 6528TIP3    H119548   0.372   5.603   5.328
 6528TIP3    H219549   0.502   5.568   5.397
 6529TIP3   OH219550   1.935   2.241   4.513
 6529TIP3    H119551   1.859   2.189   4.540
 6529TIP3    H219552   1.977   2.267   4.595
 6530TIP3   OH219553   1.097   0.819   5.075
 6530TIP3    H119554   1.102   0.802   5.169
 6530TIP3    H219555   1.099   0.733   5.034
 6531TIP3   OH219556   0.840   5.009   3.065
 6531TIP3    H119557   0.765   5.062   3.037
 6531TIP3    H219558   0.891   5.067   3.121
 6532TIP3   OH219559   0.026   1.487   1.065
 6532TIP3    H119560   0.070   1.530   0.992
 6532TIP3    H219561   0.080   1.509   1.141
 6533TIP3   OH219562   0.395   5.235   0.162
 6533TIP3    H119563   0.369   5.242   0.254
 6533TIP3    H219564   0.314   5.217   0.115
 6534TIP3   OH219565   1.878   4.387  -0.016
 6534TIP3    H119566   1.818   4.315  -0.038
 6534TIP3    H219567   1.954   4.373  -0.072
 6535TIP3   OH219568   3.021   2.724   3.390
 6535TIP3    H119569   2.969   2.735   3.470
 6535TIP3    H219570   3.069   2.807   3.381
 6536TIP3   OH219571   4.738   0.891   5.915
 6536TIP3    H119572   4.701   0.945   5.846
 6536TIP3    H219573   4.819   0.936   5.941
 6537TIP3   OH219574   2.977   6.784   3.091
 6537TIP3    H119575   3.058   6.835   3.079
 6537TIP3    H219576   2.914   6.825   3.032
 6538TIP3   OH219577   0.800   2.018   1.681
 6538TIP3    H119578   0.727   2.026   1.742
 6538TIP3    H219579   0.802   2.102   1.634
 6539TIP3   OH219580   5.238   2.942   0.881
 6539TIP3    H119581   5.260   2.983   0.965
 6539TIP3    H219582   5.150   2.973   0.862
 6540TIP3   OH219583   1.945   0.740   3.248
 6540TIP3    H119584   1.951   0.696   3.163
 6540TIP3    H219585   1.933   0.832   3.227
 6541TIP3   OH219586   2.051   5.574   3.725
 6541TIP3    H119587   1.977   5.547   3.780
 6541TIP3    H219588   2.112   5.500   3.730
 6542TIP3   OH219589   1.105   4.884   1.795
 6542TIP3    H119590   1.085   4.965   1.843
 6542TIP3    H219591   1.182   4.905   1.743
 6543TIP3   OH219592   2.975   2.769   2.953
 6543TIP3    H119593   2.947   2.741   3.040
 6543TIP3    H219594   2.894   2.778   2.903
 6544TIP3   OH219595   7.095   3.288   4.129
 6544TIP3    H119596   7.064   3.211   4.082
 6544TIP3    H219597   7.028   3.303   4.196
 6545TIP3   OH219598   2.027   3.366   2.035
 6545TIP3    H119599   2.014   3.309   1.959
 6545TIP3    H219600   1.992   3.451   2.007
 6546TIP3   OH219601   6.405   5.033   3.466
 6546TIP3    H119602   6.372   5.015   3.554
 6546TIP3    H219603   6.422   5.127   3.464
 6547TIP3   OH219604   0.673   3.474   4.467
 6547TIP3    H119605   0.611   3.416   4.424
 6547TIP3    H219606   0.642   3.563   4.447
 6548TIP3   OH219607   3.170   1.821   1.138
 6548TIP3    H119608   3.252   1.816   1.186
 6548TIP3    H219609   3.182   1.894   1.077
 6549TIP3   OH219610   6.086   4.534   3.706
 6549TIP3    H119611   6.165   4.583   3.680
 6549TIP3    H219612   6.088   4.535   3.802
 6550TIP3   OH219613   3.345   2.715   2.822
 6550TIP3    H119614   3.403   2.639   2.823
 6550TIP3    H219615   3.287   2.703   2.896
 6551TIP3   OH219616   7.005   5.037   1.285
 6551TIP3    H119617   7.051   5.015   1.204
 6551TIP3    H219618   6.963   5.122   1.267
 6552TIP3   OH219619   0.691   0.497   2.575
 6552TIP3    H119620   0.669   0.590   2.571
 6552TIP3    H219621   0.776   0.494   2.621
 6553TIP3   OH219622   0.520   6.683   0.055
 6553TIP3    H119623   0.465   6.697   0.132
 6553TIP3    H219624   0.485   6.604   0.014
 6554TIP3   OH219625   6.321   4.849   4.850
 6554TIP3    H119626   6.272   4.854   4.932
 6554TIP3    H219627   6.411   4.831   4.876
 6555TIP3   OH219628   4.916   2.993   2.262
 6555TIP3    H119629   4.882   3.046   2.190
 6555TIP3    H219630   4.988   2.944   2.222
 6556TIP3   OH219631   6.074   5.253   4.054
 6556TIP3    H119632   6.145   5.316   4.069
 6556TIP3    H219633   6.014   5.267   4.127
 6557TIP3   OH219634   5.146   5.869   0.465
 6557TIP3    H119635   5.103   5.936   0.411
 6557TIP3    H219636   5.076   5.830   0.516
 6558TIP3   OH219637   2.551   1.811   2.391
 6558TIP3    H119638   2.609   1.869   2.342
 6558TIP3    H219639   2.609   1.752   2.437
 6559TIP3   OH219640   3.691   1.972   3.695
 6559TIP3    H119641   3.700   1.946   3.604
 6559TIP3    H219642   3.604   1.940   3.721
 6560TIP3   OH219643   1.315   3.667   1.414
 6560TIP3    H119644   1.247   3.702   1.472
 6560TIP3    H219645   1.332   3.737   1.351
 6561TIP3   OH219646   0.854   5.572   1.715
 6561TIP3    H119647   0.902   5.606   1.790
 6561TIP3    H219648   0.820   5.487   1.745
 6562TIP3   OH219649   2.817   0.557   2.879
 6562TIP3    H119650   2.807   0.579   2.787
 6562TIP3    H219651   2.899   0.599   2.906
 6563TIP3   OH219652   2.262   1.156   5.117
 6563TIP3    H119653   2.353   1.161   5.149
 6563TIP3    H219654   2.271   1.131   5.025
 6564TIP3   OH219655   6.059   4.022   3.990
 6564TIP3    H119656   6.006   4.035   3.911
 6564TIP3    H219657   6.056   4.107   4.034
 6565TIP3   OH219658   3.506   2.168   0.849
 6565TIP3    H119659   3.445   2.115   0.798
 6565TIP3    H219660   3.450   2.226   0.901
 6566TIP3   OH219661   1.860   0.391   4.689
 6566TIP3    H119662   1.865   0.329   4.762
 6566TIP3    H219663   1.800   0.349   4.627
 6567TIP3   OH219664   4.439   6.161   0.914
 6567TIP3    H119665   4.448   6.155   0.819
 6567TIP3    H219666   4.508   6.106   0.949
 6568TIP3   OH219667   3.567   1.521   1.523
 6568TIP3    H119668   3.497   1.518   1.588
 6568TIP3    H219669   3.525   1.556   1.445
 6569TIP3   OH219670   3.403   0.102   3.884
 6569TIP3    H119671   3.452   0.177   3.851
 6569TIP3    H219672   3.318   0.109   3.842
 6570TIP3   OH219673   7.120   0.426   0.655
 6570TIP3    H119674   7.213   0.406   0.642
 6570TIP3    H219675   7.090   0.361   0.719
 6571TIP3   OH219676   2.159   6.161   4.439
 6571TIP3    H119677   2.074   6.167   4.395
 6571TIP3    H219678   2.223   6.167   4.368
 6572TIP3   OH219679   1.454   6.762   1.117
 6572TIP3    H119680   1.522   6.695   1.114
 6572TIP3    H219681   1.422   6.767   1.027
 6573TIP3   OH219682   3.500   0.177   3.411
 6573TIP3    H119683   3.406   0.179   3.432
 6573TIP3    H219684   3.512   0.247   3.347
 6574TIP3   OH219685   6.174   1.435   4.504
 6574TIP3    H119686   6.094   1.441   4.555
 6574TIP3    H219687   6.154   1.479   4.421
 6575TIP3   OH219688   3.920   0.240   1.899
 6575TIP3    H119689   3.951   0.197   1.820
 6575TIP3    H219690   3.975   0.204   1.969
 6576TIP3   OH219691   2.638   2.118   3.168
 6576TIP3    H119692   2.569   2.070   3.123
 6576TIP3    H219693   2.647   2.200   3.118
 6577TIP3   OH219694   3.604   3.156   4.700
 6577TIP3    H119695   3.571   3.239   4.733
 6577TIP3    H219696   3.539   3.091   4.728
 6578TIP3   OH219697   1.880   5.853   4.197
 6578TIP3    H119698   1.802   5.804   4.171
 6578TIP3    H219699   1.859   5.885   4.285
 6579TIP3   OH219700   4.300   5.778   4.831
 6579TIP3    H119701   4.230   5.842   4.820
 6579TIP3    H219702   4.294   5.721   4.755
 6580TIP3   OH219703   2.957   2.037   2.388
 6580TIP3    H119704   2.993   2.114   2.345
 6580TIP3    H219705   3.033   1.983   2.409
 6581TIP3   OH219706   2.896   4.872   2.027
 6581TIP3    H119707   2.924   4.787   2.059
 6581TIP3    H219708   2.969   4.931   2.048
 6582TIP3   OH219709   6.127   1.228   2.599
 6582TIP3    H119710   6.193   1.298   2.599
 6582TIP3    H219711   6.043   1.275   2.600
 6583TIP3   OH219712   4.734   4.772   5.208
 6583TIP3    H119713   4.750   4.693   5.157
 6583TIP3    H219714   4.808   4.830   5.188
 6584TIP3   OH219715   2.850   0.803   5.703
 6584TIP3    H119716   2.831   0.737   5.636
 6584TIP3    H219717   2.890   0.875   5.655
 6585TIP3   OH219718   3.727   5.007   3.189
 6585TIP3    H119719   3.708   5.077   3.126
 6585TIP3    H219720   3.735   5.052   3.273
 6586TIP3   OH219721   1.351   2.243   2.126
 6586TIP3    H119722   1.398   2.326   2.124
 6586TIP3    H219723   1.416   2.180   2.157
 6587TIP3   OH219724   3.100   5.770   1.956
 6587TIP3    H119725   3.083   5.849   2.008
 6587TIP3    H219726   3.194   5.754   1.966
 6588TIP3   OH219727   4.964   2.235   2.074
 6588TIP3    H119728   4.963   2.328   2.097
 6588TIP3    H219729   5.026   2.196   2.135
 6589TIP3   OH219730   3.595   2.677   2.239
 6589TIP3    H119731   3.684   2.642   2.248
 6589TIP3    H219732   3.560   2.676   2.328
 6590TIP3   OH219733   3.360   0.602   0.462
 6590TIP3    H119734   3.269   0.593   0.434
 6590TIP3    H219735   3.379   0.520   0.507
 6591TIP3   OH219736   0.318   5.402   0.425
 6591TIP3    H119737   0.377   5.327   0.438
 6591TIP3    H219738   0.335   5.430   0.335
 6592TIP3   OH219739   4.755   0.026   4.437
 6592TIP3    H119740   4.798  -0.058   4.456
 6592TIP3    H219741   4.805   0.091   4.486
 6593TIP3   OH219742   4.038   3.877   0.226
 6593TIP3    H119743   4.072   3.790   0.245
 6593TIP3    H219744   4.082   3.935   0.289
 6594TIP3   OH219745   3.804   3.952   2.042
 6594TIP3    H119746   3.892   3.988   2.034
 6594TIP3    H219747   3.771   3.987   2.125
 6595TIP3   OH219748   6.982   5.181   0.804
 6595TIP3    H119749   6.995   5.275   0.817
 6595TIP3    H219750   6.890   5.166   0.825
 6596TIP3   OH219751   1.321   5.143   0.009
 6596TIP3    H119752   1.375   5.095  -0.054
 6596TIP3    H219753   1.361   5.124   0.094
 6597TIP3   OH219754   4.461   1.067   0.448
 6597TIP3    H119755   4.530   1.030   0.394
 6597TIP3    H219756   4.407   1.117   0.387
 6598TIP3   OH219757   6.899   0.373   2.786
 6598TIP3    H119758   6.805   0.374   2.767
 6598TIP3    H219759   6.940   0.342   2.705
 6599TIP3   OH219760   4.885   6.134   1.814
 6599TIP3    H119761   4.945   6.115   1.886
 6599TIP3    H219762   4.915   6.217   1.778
 6600TIP3   OH219763   1.084   3.241   0.274
 6600TIP3    H119764   1.170   3.219   0.311
 6600TIP3    H219765   1.098   3.238   0.179
 6601TIP3   OH219766   3.891   0.969   1.628
 6601TIP3    H119767   3.848   1.046   1.665
 6601TIP3    H219768   3.942   0.933   1.700
 6602TIP3   OH219769   6.022   5.185   2.463
 6602TIP3    H119770   6.004   5.262   2.408
 6602TIP3    H219771   6.095   5.211   2.519
 6603TIP3   OH219772   0.534   2.977   3.322
 6603TIP3    H119773   0.576   2.919   3.259
 6603TIP3    H219774   0.572   3.063   3.305
 6604TIP3   OH219775   1.196   2.748   3.207
 6604TIP3    H119776   1.163   2.739   3.296
 6604TIP3    H219777   1.262   2.679   3.199
 6605TIP3   OH219778   4.182   2.388   4.428
 6605TIP3    H119779   4.253   2.340   4.469
 6605TIP3    H219780   4.200   2.384   4.335
 6606TIP3   OH219781   5.873   1.955   4.238
 6606TIP3    H119782   5.950   1.899   4.229
 6606TIP3    H219783   5.910   2.043   4.247
 6607TIP3   OH219784   1.450   2.127   3.342
 6607TIP3    H119785   1.418   2.218   3.348
 6607TIP3    H219786   1.450   2.108   3.248
 6608TIP3   OH219787   2.970   2.332   0.213
 6608TIP3    H119788   2.947   2.387   0.288
 6608TIP3    H219789   3.025   2.263   0.250
 6609TIP3   OH219790   1.276   5.033   1.624
 6609TIP3    H119791   1.328   5.045   1.545
 6609TIP3    H219792   1.225   5.114   1.632
 6610TIP3   OH219793   6.719   1.023   4.732
 6610TIP3    H119794   6.789   1.077   4.694
 6610TIP3    H219795   6.752   0.934   4.725
 6611TIP3   OH219796   2.569   6.130   1.660
 6611TIP3    H119797   2.660   6.111   1.639
 6611TIP3    H219798   2.542   6.195   1.595
 6612TIP3   OH219799   2.474   0.893   3.237
 6612TIP3    H119800   2.437   0.816   3.193
 6612TIP3    H219801   2.562   0.901   3.200
 6613TIP3   OH219802   0.803   4.070   1.462
 6613TIP3    H119803   0.826   3.981   1.434
 6613TIP3    H219804   0.771   4.112   1.382
 6614TIP3   OH219805   6.658   5.077   3.652
 6614TIP3    H119806   6.709   5.100   3.575
 6614TIP3    H219807   6.713   5.104   3.726
 6615TIP3   OH219808   2.957   5.004   4.448
 6615TIP3    H119809   3.020   4.952   4.497
 6615TIP3    H219810   2.913   5.057   4.514
 6616TIP3   OH219811   5.972   1.559   2.968
 6616TIP3    H119812   6.022   1.502   3.026
 6616TIP3    H219813   5.963   1.641   3.017
 6617TIP3   OH219814   5.757   1.968   5.597
 6617TIP3    H119815   5.733   1.955   5.689
 6617TIP3    H219816   5.717   2.051   5.573
 6618TIP3   OH219817   3.163   1.444   4.170
 6618TIP3    H119818   3.075   1.408   4.171
 6618TIP3    H219819   3.220   1.370   4.192
 6619TIP3   OH219820   6.055   1.544   4.746
 6619TIP3    H119821   6.144   1.575   4.760
 6619TIP3    H219822   6.026   1.513   4.832
 6620TIP3   OH219823   6.807   1.736   1.436
 6620TIP3    H119824   6.865   1.806   1.465
 6620TIP3    H219825   6.866   1.667   1.406
 6621TIP3   OH219826   5.210   3.664   2.906
 6621TIP3    H119827   5.141   3.600   2.887
 6621TIP3    H219828   5.173   3.720   2.974
 6622TIP3   OH219829   1.798   2.716   3.637
 6622TIP3    H119830   1.816   2.693   3.728
 6622TIP3    H219831   1.872   2.682   3.588
 6623TIP3   OH219832   3.826   4.948   4.295
 6623TIP3    H119833   3.866   4.918   4.377
 6623TIP3    H219834   3.894   4.998   4.251
 6624TIP3   OH219835   4.884   6.097   0.570
 6624TIP3    H119836   4.815   6.091   0.505
 6624TIP3    H219837   4.858   6.035   0.639
 6625TIP3   OH219838   2.674   1.129   2.152
 6625TIP3    H119839   2.703   1.212   2.115
 6625TIP3    H219840   2.584   1.145   2.180
 6626TIP3   OH219841   4.168   4.676   0.939
 6626TIP3    H119842   4.253   4.681   0.895
 6626TIP3    H219843   4.177   4.734   1.015
 6627TIP3   OH219844   2.426   3.814   1.334
 6627TIP3    H119845   2.470   3.773   1.260
 6627TIP3    H219846   2.483   3.888   1.356
 6628TIP3   OH219847   5.293   2.226   1.465
 6628TIP3    H119848   5.257   2.170   1.534
 6628TIP3    H219849   5.297   2.170   1.388
 6629TIP3   OH219850   5.128   2.778   4.956
 6629TIP3    H119851   5.043   2.737   4.971
 6629TIP3    H219852   5.107   2.862   4.915
 6630TIP3   OH219853   6.715   0.394   4.571
 6630TIP3    H119854   6.658   0.402   4.494
 6630TIP3    H219855   6.740   0.484   4.593
 6631TIP3   OH219856   2.477   5.276   1.335
 6631TIP3    H119857   2.433   5.350   1.294
 6631TIP3    H219858   2.483   5.209   1.267
 6632TIP3   OH219859   1.156   2.337   5.773
 6632TIP3    H119860   1.070   2.360   5.807
 6632TIP3    H219861   1.140   2.268   5.709
 6633TIP3   OH219862   1.032   1.304   5.383
 6633TIP3    H119863   1.120   1.271   5.364
 6633TIP3    H219864   1.015   1.276   5.473
 6634TIP3   OH219865   0.898   4.460   0.776
 6634TIP3    H119866   0.805   4.480   0.789
 6634TIP3    H219867   0.944   4.523   0.833
 6635TIP3   OH219868   5.885   3.030   1.005
 6635TIP3    H119869   5.970   2.992   0.985
 6635TIP3    H219870   5.901   3.125   1.009
 6636TIP3   OH219871   6.146   0.180   0.334
 6636TIP3    H119872   6.119   0.103   0.384
 6636TIP3    H219873   6.157   0.148   0.245
 6637TIP3   OH219874   1.105   4.415   4.409
 6637TIP3    H119875   1.075   4.328   4.385
 6637TIP3    H219876   1.042   4.475   4.368
 6638TIP3   OH219877   1.742   4.539   3.656
 6638TIP3    H119878   1.652   4.549   3.626
 6638TIP3    H219879   1.739   4.561   3.749
 6639TIP3   OH219880   5.565   0.639   3.636
 6639TIP3    H119881   5.598   0.568   3.690
 6639TIP3    H219882   5.643   0.679   3.598
 6640TIP3   OH219883   2.498   3.265   3.141
 6640TIP3    H119884   2.523   3.189   3.192
 6640TIP3    H219885   2.550   3.337   3.178
 6641TIP3   OH219886   1.096   4.965   2.761
 6641TIP3    H119887   1.128   4.975   2.671
 6641TIP3    H219888   1.115   5.048   2.803
 6642TIP3   OH219889   4.163   2.953   3.728
 6642TIP3    H119890   4.243   2.954   3.781
 6642TIP3    H219891   4.093   2.972   3.790
 6643TIP3   OH219892   4.864   0.606   4.645
 6643TIP3    H119893   4.852   0.536   4.708
 6643TIP3    H219894   4.787   0.662   4.656
 6644TIP3   OH219895   0.726   4.217   2.875
 6644TIP3    H119896   0.685   4.290   2.828
 6644TIP3    H219897   0.770   4.259   2.950
 6645TIP3   OH219898   3.949   1.895   3.259
 6645TIP3    H119899   3.975   1.913   3.169
 6645TIP3    H219900   4.023   1.926   3.312
 6646TIP3   OH219901   0.555   5.490   1.417
 6646TIP3    H119902   0.614   5.559   1.384
 6646TIP3    H219903   0.469   5.531   1.419
 6647TIP3   OH219904   3.307   0.434   4.446
 6647TIP3    H119905   3.226   0.400   4.484
 6647TIP3    H219906   3.303   0.406   4.355
 6648TIP3   OH219907   4.771   3.190   5.457
 6648TIP3    H119908   4.728   3.207   5.541
 6648TIP3    H219909   4.744   3.262   5.400
 6649TIP3   OH219910   0.870   4.224   3.521
 6649TIP3    H119911   0.914   4.177   3.592
 6649TIP3    H219912   0.941   4.267   3.473
 6650TIP3   OH219913   2.389   2.478   2.658
 6650TIP3    H119914   2.332   2.414   2.701
 6650TIP3    H219915   2.432   2.524   2.731
 6651TIP3   OH219916   6.414   4.163   3.262
 6651TIP3    H119917   6.441   4.084   3.216
 6651TIP3    H219918   6.493   4.193   3.306
 6652TIP3   OH219919   3.865   1.836   3.867
 6652TIP3    H119920   3.814   1.902   3.819
 6652TIP3    H219921   3.832   1.840   3.957
 6653TIP3   OH219922   0.591   1.149   3.653
 6653TIP3    H119923   0.685   1.167   3.650
 6653TIP3    H219924   0.557   1.183   3.571
 6654TIP3   OH219925   0.047   4.778   4.960
 6654TIP3    H119926   0.063   4.684   4.951
 6654TIP3    H219927  -0.032   4.794   4.908
 6655TIP3   OH219928   5.086   3.020   4.817
 6655TIP3    H119929   5.067   2.990   4.728
 6655TIP3    H219930   5.045   3.106   4.823
 6656TIP3   OH219931   5.115   1.620   3.397
 6656TIP3    H119932   5.036   1.662   3.363
 6656TIP3    H219933   5.111   1.531   3.362
 6657TIP3   OH219934   0.527   2.426   0.980
 6657TIP3    H119935   0.607   2.478   0.978
 6657TIP3    H219936   0.556   2.337   1.002
 6658TIP3   OH219937   5.851   2.036   5.052
 6658TIP3    H119938   5.928   2.077   5.011
 6658TIP3    H219939   5.854   2.067   5.142
 6659TIP3   OH219940   2.432   0.356   5.832
 6659TIP3    H119941   2.344   0.389   5.848
 6659TIP3    H219942   2.419   0.264   5.808
 6660TIP3   OH219943   0.229   3.403   5.063
 6660TIP3    H119944   0.256   3.494   5.066
 6660TIP3    H219945   0.260   3.365   5.146
 6661TIP3   OH219946   5.787   3.664   4.205
 6661TIP3    H119947   5.694   3.681   4.222
 6661TIP3    H219948   5.814   3.734   4.146
 6662TIP3   OH219949   5.836   4.858   3.975
 6662TIP3    H119950   5.898   4.851   3.903
 6662TIP3    H219951   5.852   4.944   4.013
 6663TIP3   OH219952   1.421   2.731   3.951
 6663TIP3    H119953   1.438   2.667   4.020
 6663TIP3    H219954   1.506   2.773   3.937
 6664TIP3   OH219955   1.771   5.729   5.842
 6664TIP3    H119956   1.853   5.734   5.891
 6664TIP3    H219957   1.765   5.637   5.815
 6665TIP3   OH219958   5.666   1.789   3.281
 6665TIP3    H119959   5.598   1.808   3.216
 6665TIP3    H219960   5.701   1.704   3.254
 6666TIP3   OH219961   2.435   4.198   3.470
 6666TIP3    H119962   2.467   4.121   3.517
 6666TIP3    H219963   2.460   4.272   3.526
 6667TIP3   OH219964   4.504   6.331   3.869
 6667TIP3    H119965   4.424   6.359   3.913
 6667TIP3    H219966   4.499   6.236   3.867
 6668TIP3   OH219967   0.678   5.464   3.418
 6668TIP3    H119968   0.642   5.482   3.505
 6668TIP3    H219969   0.772   5.481   3.427
 6669TIP3   OH219970   0.144   0.144   4.678
 6669TIP3    H119971   0.134   0.110   4.589
 6669TIP3    H219972   0.238   0.157   4.688
 6670TIP3   OH219973   5.896   2.589   1.648
 6670TIP3    H119974   5.936   2.667   1.609
 6670TIP3    H219975   5.802   2.610   1.650
 6671TIP3   OH219976   5.762   2.806   1.942
 6671TIP3    H119977   5.684   2.841   1.985
 6671TIP3    H219978   5.749   2.826   1.849
 6672TIP3   OH219979   3.931   1.050   1.970
 6672TIP3    H119980   3.884   1.097   2.038
 6672TIP3    H219981   3.865   1.032   1.903
 6673TIP3   OH219982   3.337   0.429   1.574
 6673TIP3    H119983   3.353   0.340   1.541
 6673TIP3    H219984   3.337   0.484   1.496
 6674TIP3   OH219985   5.213   1.204   0.737
 6674TIP3    H119986   5.209   1.109   0.749
 6674TIP3    H219987   5.294   1.230   0.780
 6675TIP3   OH219988   0.455   4.394   4.831
 6675TIP3    H119989   0.518   4.433   4.771
 6675TIP3    H219990   0.504   4.379   4.912
 6676TIP3   OH219991   2.287   1.309   0.238
 6676TIP3    H119992   2.253   1.377   0.297
 6676TIP3    H219993   2.364   1.275   0.283
 6677TIP3   OH219994   2.192   4.460   4.224
 6677TIP3    H119995   2.215   4.552   4.239
 6677TIP3    H219996   2.213   4.445   4.132
 6678TIP3   OH219997   4.315   2.975   4.905
 6678TIP3    H119998   4.242   2.983   4.967
 6678TIP3    H219999   4.366   3.055   4.917
 6679TIP3   OH220000   0.426   3.694   4.057
 6679TIP3    H120001   0.347   3.680   4.108
 6679TIP3    H220002   0.470   3.609   4.058
 6680TIP3   OH220003   4.548   5.810   2.530
 6680TIP3    H120004   4.524   5.815   2.438
 6680TIP3    H220005   4.492   5.874   2.573
 6681TIP3   OH220006   4.719   2.886   4.866
 6681TIP3    H120007   4.670   2.844   4.795
 6681TIP3    H220008   4.760   2.813   4.913
 6682TIP3   OH220009   3.486   4.504   1.163
 6682TIP3    H120010   3.399   4.489   1.201
 6682TIP3    H220011   3.469   4.517   1.070
 6683TIP3   OH220012   0.120   1.406   4.757
 6683TIP3    H120013   0.162   1.406   4.671
 6683TIP3    H220014   0.184   1.364   4.815
 6684TIP3   OH220015   3.486   4.444   5.242
 6684TIP3    H120016   3.404   4.404   5.271
 6684TIP3    H220017   3.544   4.437   5.319
 6685TIP3   OH220018   2.985   4.729   1.452
 6685TIP3    H120019   2.946   4.645   1.478
 6685TIP3    H220020   3.078   4.718   1.470
 6686TIP3   OH220021   4.009   0.140   2.149
 6686TIP3    H120022   4.030   0.048   2.138
 6686TIP3    H220023   3.929   0.141   2.202
 6687TIP3   OH220024   2.772   2.261   5.254
 6687TIP3    H120025   2.688   2.215   5.259
 6687TIP3    H220026   2.781   2.284   5.161
 6688TIP3   OH220027   2.832   4.081   2.435
 6688TIP3    H120028   2.921   4.058   2.408
 6688TIP3    H220029   2.792   4.119   2.358
 6689TIP3   OH220030   3.352   1.997   1.289
 6689TIP3    H120031   3.351   2.045   1.372
 6689TIP3    H220032   3.445   1.997   1.264
 6690TIP3   OH220033   2.902   1.736   3.719
 6690TIP3    H120034   2.816   1.777   3.721
 6690TIP3    H220035   2.913   1.706   3.629
 6691TIP3   OH220036   3.748   2.118   4.836
 6691TIP3    H120037   3.741   2.037   4.887
 6691TIP3    H220038   3.795   2.178   4.893
 6692TIP3   OH220039   3.120   1.590   2.846
 6692TIP3    H120040   3.058   1.581   2.774
 6692TIP3    H220041   3.171   1.509   2.844
 6693TIP3   OH220042   1.290   0.764   2.763
 6693TIP3    H120043   1.322   0.726   2.681
 6693TIP3    H220044   1.276   0.857   2.744
 6694TIP3   OH220045   6.599   6.348   3.271
 6694TIP3    H120046   6.648   6.344   3.353
 6694TIP3    H220047   6.512   6.378   3.297
 6695TIP3   OH220048   5.329   4.137   2.684
 6695TIP3    H120049   5.332   4.207   2.619
 6695TIP3    H220050   5.322   4.057   2.633
 6696TIP3   OH220051   1.357   6.085   0.286
 6696TIP3    H120052   1.266   6.076   0.316
 6696TIP3    H220053   1.354   6.062   0.193
 6697TIP3   OH220054   5.276   2.011   3.642
 6697TIP3    H120055   5.328   2.082   3.678
 6697TIP3    H220056   5.331   1.973   3.574
 6698TIP3   OH220057   7.150   1.609   2.984
 6698TIP3    H120058   7.206   1.566   3.048
 6698TIP3    H220059   7.062   1.606   3.022
 6699TIP3   OH220060   1.535   3.791   4.394
 6699TIP3    H120061   1.611   3.745   4.431
 6699TIP3    H220062   1.465   3.774   4.457
 6700TIP3   OH220063   6.624   6.432   0.405
 6700TIP3    H120064   6.666   6.481   0.476
 6700TIP3    H220065   6.601   6.348   0.444
 6701TIP3   OH220066   2.965   2.392   2.379
 6701TIP3    H120067   3.013   2.365   2.300
 6701TIP3    H220068   2.971   2.487   2.379
 6702TIP3   OH220069   0.847   2.621   1.569
 6702TIP3    H120070   0.903   2.546   1.548
 6702TIP3    H220071   0.881   2.654   1.652
 6703TIP3   OH220072   1.006   0.451   4.677
 6703TIP3    H120073   1.033   0.436   4.586
 6703TIP3    H220074   0.911   0.439   4.676
 6704TIP3   OH220075   1.316   3.501   1.148
 6704TIP3    H120076   1.321   3.549   1.231
 6704TIP3    H220077   1.222   3.491   1.132
 6705TIP3   OH220078   6.210   2.478   1.335
 6705TIP3    H120079   6.221   2.402   1.392
 6705TIP3    H220080   6.157   2.539   1.386
 6706TIP3   OH220081   5.584   2.923   4.581
 6706TIP3    H120082   5.579   2.918   4.485
 6706TIP3    H220083   5.608   3.014   4.598
 6707TIP3   OH220084   0.831   0.438   4.286
 6707TIP3    H120085   0.806   0.369   4.224
 6707TIP3    H220086   0.868   0.391   4.360
 6708TIP3   OH220087   6.134   1.348   5.295
 6708TIP3    H120088   6.104   1.318   5.381
 6708TIP3    H220089   6.179   1.272   5.257
 6709TIP3   OH220090   0.273   3.603   4.509
 6709TIP3    H120091   0.214   3.663   4.555
 6709TIP3    H220092   0.244   3.516   4.535
 6710TIP3   OH220093   0.172   3.703   4.204
 6710TIP3    H120094   0.146   3.611   4.209
 6710TIP3    H220095   0.162   3.726   4.111
 6711TIP3   OH220096   4.057   1.479   4.804
 6711TIP3    H120097   4.089   1.545   4.743
 6711TIP3    H220098   4.053   1.523   4.889
 6712TIP3   OH220099   4.800   1.995   0.519
 6712TIP3    H120100   4.863   1.930   0.490
 6712TIP3    H220101   4.838   2.079   0.492
 6713TIP3   OH220102   2.466   5.257   0.884
 6713TIP3    H120103   2.546   5.221   0.923
 6713TIP3    H220104   2.406   5.266   0.958
 6714TIP3   OH220105   5.287   1.905   5.278
 6714TIP3    H120106   5.201   1.931   5.311
 6714TIP3    H220107   5.335   1.986   5.269
 6715TIP3   OH220108   7.198   2.759   2.671
 6715TIP3    H120109   7.224   2.734   2.759
 6715TIP3    H220110   7.140   2.834   2.684
 6716TIP3   OH220111   4.479   3.756   3.658
 6716TIP3    H120112   4.409   3.693   3.675
 6716TIP3    H220113   4.440   3.842   3.677
 6717TIP3   OH220114   1.698   1.090   3.724
 6717TIP3    H120115   1.609   1.116   3.747
 6717TIP3    H220116   1.687   1.003   3.685
 6718TIP3   OH220117   5.754   1.577   1.189
 6718TIP3    H120118   5.764   1.598   1.282
 6718TIP3    H220119   5.736   1.661   1.147
 6719TIP3   OH220120   6.467   4.863   1.782
 6719TIP3    H120121   6.409   4.898   1.850
 6719TIP3    H220122   6.426   4.888   1.700
 6720TIP3   OH220123   0.143   0.554   4.315
 6720TIP3    H120124   0.125   0.638   4.355
 6720TIP3    H220125   0.223   0.523   4.358
 6721TIP3   OH220126   0.336   4.704   3.982
 6721TIP3    H120127   0.373   4.624   3.942
 6721TIP3    H220128   0.411   4.744   4.026
 6722TIP3   OH220129   2.016   2.161   2.926
 6722TIP3    H120130   2.027   2.068   2.945
 6722TIP3    H220131   2.013   2.166   2.831
 6723TIP3   OH220132   1.731   2.349   4.961
 6723TIP3    H120133   1.773   2.389   4.885
 6723TIP3    H220134   1.799   2.295   5.001
 6724TIP3   OH220135   3.937   1.402   2.863
 6724TIP3    H120136   4.024   1.428   2.832
 6724TIP3    H220137   3.952   1.368   2.951
 6725TIP3   OH220138   6.002   6.051   3.698
 6725TIP3    H120139   6.026   6.023   3.610
 6725TIP3    H220140   5.906   6.045   3.700
 6726TIP3   OH220141   4.001   1.861   2.010
 6726TIP3    H120142   3.969   1.904   1.931
 6726TIP3    H220143   4.047   1.930   2.058
 6727TIP3   OH220144   3.189   2.799   1.598
 6727TIP3    H120145   3.262   2.844   1.557
 6727TIP3    H220146   3.229   2.740   1.662
 6728TIP3   OH220147   0.118   0.238   5.496
 6728TIP3    H120148   0.126   0.142   5.494
 6728TIP3    H220149   0.024   0.255   5.492
 6729TIP3   OH220150   6.966   4.295   3.819
 6729TIP3    H120151   6.987   4.270   3.729
 6729TIP3    H220152   7.050   4.301   3.863
 6730TIP3   OH220153   3.836   1.532   0.130
 6730TIP3    H120154   3.854   1.607   0.073
 6730TIP3    H220155   3.896   1.543   0.204
 6731TIP3   OH220156   5.009   6.815   1.947
 6731TIP3    H120157   5.034   6.754   2.016
 6731TIP3    H220158   5.040   6.773   1.866
 6732TIP3   OH220159   3.224  -0.018   5.494
 6732TIP3    H120160   3.278   0.046   5.540
 6732TIP3    H220161   3.282  -0.054   5.426
 6733TIP3   OH220162   6.616   4.257   3.420
 6733TIP3    H120163   6.651   4.168   3.414
 6733TIP3    H220164   6.631   4.282   3.511
 6734TIP3   OH220165   4.921   4.425   0.989
 6734TIP3    H120166   4.871   4.476   1.052
 6734TIP3    H220167   4.881   4.338   0.991
 6735TIP3   OH220168   5.142   0.910   1.903
 6735TIP3    H120169   5.059   0.893   1.858
 6735TIP3    H220170   5.178   0.986   1.858
 6736TIP3   OH220171   5.211   0.389   1.226
 6736TIP3    H120172   5.260   0.468   1.249
 6736TIP3    H220173   5.273   0.318   1.241
 6737TIP3   OH220174   6.709   1.933   3.446
 6737TIP3    H120175   6.675   1.988   3.376
 6737TIP3    H220176   6.645   1.863   3.456
 6738TIP3   OH220177   2.839   6.171   1.611
 6738TIP3    H120178   2.840   6.115   1.533
 6738TIP3    H220179   2.885   6.251   1.584
 6739TIP3   OH220180   4.239   5.933   2.330
 6739TIP3    H120181   4.244   5.924   2.425
 6739TIP3    H220182   4.316   5.885   2.297
 6740TIP3   OH220183   1.738   3.515   0.290
 6740TIP3    H120184   1.741   3.440   0.230
 6740TIP3    H220185   1.797   3.579   0.250
 6741TIP3   OH220186   3.071   5.494   2.657
 6741TIP3    H120187   2.981   5.499   2.622
 6741TIP3    H220188   3.123   5.464   2.582
 6742TIP3   OH220189   6.035   4.827   3.763
 6742TIP3    H120190   6.122   4.864   3.747
 6742TIP3    H220191   6.025   4.760   3.696
 6743TIP3   OH220192   4.540   3.566   1.671
 6743TIP3    H120193   4.604   3.605   1.729
 6743TIP3    H220194   4.468   3.629   1.669
 6744TIP3   OH220195   6.109   5.203   5.806
 6744TIP3    H120196   6.120   5.256   5.727
 6744TIP3    H220197   6.177   5.233   5.866
 6745TIP3   OH220198   6.223   3.747   4.734
 6745TIP3    H120199   6.204   3.713   4.822
 6745TIP3    H220200   6.199   3.675   4.675
 6746TIP3   OH220201   1.116   4.896   1.403
 6746TIP3    H120202   1.169   4.930   1.331
 6746TIP3    H220203   1.062   4.970   1.430
 6747TIP3   OH220204   1.182   5.307   0.269
 6747TIP3    H120205   1.245   5.235   0.266
 6747TIP3    H220206   1.098   5.265   0.287
 6748TIP3   OH220207   6.254   1.746   2.125
 6748TIP3    H120208   6.177   1.700   2.157
 6748TIP3    H220209   6.274   1.704   2.041
 6749TIP3   OH220210   1.894   2.187   5.137
 6749TIP3    H120211   1.902   2.094   5.116
 6749TIP3    H220212   1.850   2.189   5.222
 6750TIP3   OH220213   3.222   3.378   0.163
 6750TIP3    H120214   3.254   3.405   0.077
 6750TIP3    H220215   3.197   3.460   0.206
 6751TIP3   OH220216   4.015   0.951   3.444
 6751TIP3    H120217   4.064   0.963   3.363
 6751TIP3    H220218   3.925   0.974   3.421
 6752TIP3   OH220219   5.836   3.429   1.571
 6752TIP3    H120220   5.878   3.343   1.572
 6752TIP3    H220221   5.888   3.480   1.509
 6753TIP3   OH220222   5.043   4.003   3.592
 6753TIP3    H120223   4.995   3.938   3.541
 6753TIP3    H220224   5.037   4.084   3.540
 6754TIP3   OH220225   5.609   2.233   5.597
 6754TIP3    H120226   5.542   2.167   5.579
 6754TIP3    H220227   5.572   2.314   5.562
 6755TIP3   OH220228   3.444   0.084   4.169
 6755TIP3    H120229   3.424   0.173   4.198
 6755TIP3    H220230   3.432   0.085   4.074
 6756TIP3   OH220231   6.544   2.059   5.131
 6756TIP3    H120232   6.540   1.975   5.176
 6756TIP3    H220233   6.470   2.058   5.071
 6757TIP3   OH220234   3.336   0.734   1.580
 6757TIP3    H120235   3.379   0.737   1.666
 6757TIP3    H220236   3.299   0.821   1.568
 6758TIP3   OH220237   0.996   2.781   1.005
 6758TIP3    H120238   1.011   2.872   0.978
 6758TIP3    H220239   1.056   2.767   1.078
 6759TIP3   OH220240   1.570   5.250   4.182
 6759TIP3    H120241   1.486   5.205   4.194
 6759TIP3    H220242   1.634   5.178   4.176
 6760TIP3   OH220243   6.000   5.774   1.857
 6760TIP3    H120244   5.963   5.707   1.915
 6760TIP3    H220245   5.937   5.845   1.860
 6761TIP3   OH220246   3.796   2.122   5.695
 6761TIP3    H120247   3.767   2.207   5.729
 6761TIP3    H220248   3.743   2.058   5.743
 6762TIP3   OH220249   4.741   6.515   5.536
 6762TIP3    H120250   4.702   6.551   5.616
 6762TIP3    H220251   4.742   6.421   5.549
 6763TIP3   OH220252   0.962   2.487   4.777
 6763TIP3    H120253   0.920   2.477   4.692
 6763TIP3    H220254   0.912   2.556   4.821
 6764TIP3   OH220255   4.450   3.113   4.073
 6764TIP3    H120256   4.467   3.108   4.167
 6764TIP3    H220257   4.496   3.193   4.045
 6765TIP3   OH220258   4.487   1.404   1.525
 6765TIP3    H120259   4.560   1.465   1.512
 6765TIP3    H220260   4.414   1.459   1.552
 6766TIP3   OH220261   6.346   4.919   3.238
 6766TIP3    H120262   6.346   4.964   3.322
 6766TIP3    H220263   6.383   4.833   3.256
 6767TIP3   OH220264   6.622   5.687   4.335
 6767TIP3    H120265   6.626   5.722   4.246
 6767TIP3    H220266   6.611   5.764   4.391
 6768TIP3   OH220267   3.594   1.051   5.235
 6768TIP3    H120268   3.501   1.049   5.256
 6768TIP3    H220269   3.630   0.971   5.273
 6769TIP3   OH220270   3.888   5.150   5.090
 6769TIP3    H120271   3.843   5.073   5.127
 6769TIP3    H220272   3.897   5.130   4.997
 6770TIP3   OH220273   4.361   3.584   5.732
 6770TIP3    H120274   4.385   3.509   5.788
 6770TIP3    H220275   4.396   3.660   5.778
 6771TIP3   OH220276   7.056   2.750   1.863
 6771TIP3    H120277   7.002   2.781   1.936
 6771TIP3    H220278   7.070   2.828   1.809
 6772TIP3   OH220279   4.017   4.805   0.234
 6772TIP3    H120280   4.089   4.840   0.182
 6772TIP3    H220281   4.055   4.731   0.282
 6773TIP3   OH220282   6.086   0.363   4.849
 6773TIP3    H120283   6.101   0.451   4.813
 6773TIP3    H220284   6.001   0.369   4.891
 6774TIP3   OH220285   1.977   2.272   0.813
 6774TIP3    H120286   2.034   2.206   0.774
 6774TIP3    H220287   2.029   2.310   0.884
 6775TIP3   OH220288   5.105   4.454   4.689
 6775TIP3    H120289   5.125   4.540   4.725
 6775TIP3    H220290   5.184   4.429   4.641
 6776TIP3   OH220291   4.259   2.656   4.431
 6776TIP3    H120292   4.253   2.716   4.356
 6776TIP3    H220293   4.208   2.579   4.403
 6777TIP3   OH220294   5.865   2.372   2.849
 6777TIP3    H120295   5.797   2.322   2.805
 6777TIP3    H220296   5.833   2.384   2.938
 6778TIP3   OH220297   0.034   3.694   1.592
 6778TIP3    H120298   0.047   3.612   1.545
 6778TIP3    H220299   0.042   3.762   1.525
 6779TIP3   OH220300   5.969   6.681   5.902
 6779TIP3    H120301   5.951   6.771   5.875
 6779TIP3    H220302   6.009   6.641   5.825
 6780TIP3   OH220303   1.055   5.347   3.046
 6780TIP3    H120304   0.987   5.337   2.979
 6780TIP3    H220305   1.100   5.428   3.022
 6781TIP3   OH220306   3.486   4.800   0.764
 6781TIP3    H120307   3.459   4.809   0.855
 6781TIP3    H220308   3.534   4.718   0.761
 6782TIP3   OH220309   3.156   5.302   3.988
 6782TIP3    H120310   3.113   5.317   3.904
 6782TIP3    H220311   3.090   5.257   4.041
 6783TIP3   OH220312   2.317   6.648   5.577
 6783TIP3    H120313   2.258   6.722   5.597
 6783TIP3    H220314   2.273   6.601   5.506
 6784TIP3   OH220315   1.812   5.482   5.746
 6784TIP3    H120316   1.777   5.420   5.810
 6784TIP3    H220317   1.905   5.463   5.743
 6785TIP3   OH220318   5.952   4.079   2.364
 6785TIP3    H120319   5.990   4.081   2.452
 6785TIP3    H220320   5.901   3.999   2.362
 6786TIP3   OH220321   1.824   2.232   5.422
 6786TIP3    H120322   1.745   2.184   5.447
 6786TIP3    H220323   1.895   2.167   5.429
 6787TIP3   OH220324   6.842   0.916   1.106
 6787TIP3    H120325   6.793   0.912   1.187
 6787TIP3    H220326   6.791   0.974   1.049
 6788TIP3   OH220327   3.983   5.239   2.690
 6788TIP3    H120328   4.062   5.259   2.639
 6788TIP3    H220329   3.919   5.209   2.625
 6789TIP3   OH220330   4.499   1.626   0.113
 6789TIP3    H120331   4.492   1.716   0.083
 6789TIP3    H220332   4.584   1.621   0.158
 6790TIP3   OH220333   6.500   6.628   3.174
 6790TIP3    H120334   6.440   6.622   3.248
 6790TIP3    H220335   6.527   6.538   3.157
 6791TIP3   OH220336   5.910   6.654   2.616
 6791TIP3    H120337   5.884   6.745   2.599
 6791TIP3    H220338   5.898   6.644   2.711
 6792TIP3   OH220339   5.562   1.375   3.248
 6792TIP3    H120340   5.611   1.443   3.201
 6792TIP3    H220341   5.629   1.322   3.290
 6793TIP3   OH220342   1.501   1.027   1.562
 6793TIP3    H120343   1.431   1.067   1.613
 6793TIP3    H220344   1.519   1.089   1.492
 6794TIP3   OH220345   0.748   0.481   3.971
 6794TIP3    H120346   0.695   0.561   3.977
 6794TIP3    H220347   0.707   0.431   3.900
 6795TIP3   OH220348   2.350   6.243   2.758
 6795TIP3    H120349   2.382   6.262   2.670
 6795TIP3    H220350   2.272   6.189   2.744
 6796TIP3   OH220351   6.801   6.436   0.191
 6796TIP3    H120352   6.747   6.441   0.270
 6796TIP3    H220353   6.862   6.510   0.199
 6797TIP3   OH220354   5.127   5.458   4.433
 6797TIP3    H120355   5.118   5.447   4.528
 6797TIP3    H220356   5.037   5.459   4.401
 6798TIP3   OH220357   3.907   1.499   2.499
 6798TIP3    H120358   3.981   1.503   2.439
 6798TIP3    H220359   3.932   1.435   2.566
 6799TIP3   OH220360   6.077   0.848   4.148
 6799TIP3    H120361   6.035   0.898   4.077
 6799TIP3    H220362   6.113   0.771   4.104
 6800TIP3   OH220363   2.082   0.769   4.281
 6800TIP3    H120364   2.033   0.695   4.316
 6800TIP3    H220365   2.015   0.834   4.258
 6801TIP3   OH220366   5.693   2.606   0.264
 6801TIP3    H120367   5.652   2.616   0.177
 6801TIP3    H220368   5.770   2.551   0.247
 6802TIP3   OH220369   1.217   4.678   1.535
 6802TIP3    H120370   1.150   4.724   1.485
 6802TIP3    H220371   1.292   4.737   1.538
 6803TIP3   OH220372   3.383   2.768   0.368
 6803TIP3    H120373   3.289   2.756   0.359
 6803TIP3    H220374   3.398   2.861   0.349
 6804TIP3   OH220375   6.517   0.852   5.687
 6804TIP3    H120376   6.437   0.904   5.694
 6804TIP3    H220377   6.513   0.815   5.598
 6805TIP3   OH220378   1.717   1.816   2.901
 6805TIP3    H120379   1.793   1.871   2.918
 6805TIP3    H220380   1.691   1.784   2.988
 6806TIP3   OH220381   5.334   2.338   4.029
 6806TIP3    H120382   5.315   2.269   4.093
 6806TIP3    H220383   5.429   2.345   4.028
 6807TIP3   OH220384   7.114   4.901   2.951
 6807TIP3    H120385   7.094   4.812   2.920
 6807TIP3    H220386   7.039   4.953   2.924
 6808TIP3   OH220387   3.824   3.972   5.372
 6808TIP3    H120388   3.887   3.999   5.306
 6808TIP3    H220389   3.741   4.010   5.343
 6809TIP3   OH220390   0.993   2.798   5.092
 6809TIP3    H120391   1.062   2.758   5.039
 6809TIP3    H220392   0.999   2.892   5.073
 6810TIP3   OH220393   0.955   5.651   0.074
 6810TIP3    H120394   0.860   5.655   0.065
 6810TIP3    H220395   0.988   5.713   0.009
 6811TIP3   OH220396   6.902   1.875   3.637
 6811TIP3    H120397   6.860   1.884   3.552
 6811TIP3    H220398   6.837   1.829   3.691
 6812TIP3   OH220399   6.173   6.614   5.698
 6812TIP3    H120400   6.173   6.524   5.730
 6812TIP3    H220401   6.100   6.618   5.636
 6813TIP3   OH220402   0.008   4.438   4.067
 6813TIP3    H120403   0.090   4.432   4.115
 6813TIP3    H220404   0.004   4.529   4.038
 6814TIP3   OH220405   0.040   0.459   5.828
 6814TIP3    H120406   0.043   0.553   5.843
 6814TIP3    H220407  -0.052   0.440   5.811
 6815TIP3   OH220408   2.016   4.473   5.790
 6815TIP3    H120409   1.974   4.389   5.808
 6815TIP3    H220410   1.963   4.537   5.838
 6816TIP3   OH220411   3.113   6.229   4.660
 6816TIP3    H120412   3.145   6.144   4.629
 6816TIP3    H220413   3.162   6.293   4.610
 6817TIP3   OH220414   2.354   0.301   2.835
 6817TIP3    H120415   2.430   0.313   2.778
 6817TIP3    H220416   2.302   0.234   2.791
 6818TIP3   OH220417   4.728   4.844   0.370
 6818TIP3    H120418   4.700   4.780   0.305
 6818TIP3    H220419   4.736   4.793   0.451
 6819TIP3   OH220420   0.613   6.399   1.160
 6819TIP3    H120421   0.610   6.426   1.069
 6819TIP3    H220422   0.697   6.430   1.192
 6820TIP3   OH220423   3.410   5.233   4.082
 6820TIP3    H120424   3.319   5.241   4.053
 6820TIP3    H220425   3.455   5.191   4.009
 6821TIP3   OH220426   6.408   0.132   2.089
 6821TIP3    H120427   6.487   0.133   2.143
 6821TIP3    H220428   6.348   0.191   2.134
 6822TIP3   OH220429   0.547   6.165   0.345
 6822TIP3    H120430   0.631   6.133   0.377
 6822TIP3    H220431   0.531   6.116   0.265
 6823TIP3   OH220432   4.616   6.524   4.819
 6823TIP3    H120433   4.682   6.593   4.826
 6823TIP3    H220434   4.663   6.449   4.784
 6824TIP3   OH220435   0.314   1.523   2.440
 6824TIP3    H120436   0.287   1.496   2.528
 6824TIP3    H220437   0.244   1.492   2.383
 6825TIP3   OH220438   0.708   5.419   3.145
 6825TIP3    H120439   0.689   5.332   3.108
 6825TIP3    H220440   0.704   5.405   3.240
 6826TIP3   OH220441   2.578   0.221   0.456
 6826TIP3    H120442   2.573   0.126   0.444
 6826TIP3    H220443   2.489   0.248   0.478
 6827TIP3   OH220444   5.875   2.154   5.318
 6827TIP3    H120445   5.784   2.167   5.292
 6827TIP3    H220446   5.872   2.084   5.383
 6828TIP3   OH220447   1.423   6.635   0.620
 6828TIP3    H120448   1.477   6.559   0.641
 6828TIP3    H220449   1.480   6.691   0.566
 6829TIP3   OH220450   4.260   5.048   2.463
 6829TIP3    H120451   4.299   4.962   2.454
 6829TIP3    H220452   4.242   5.076   2.374
 6830TIP3   OH220453   6.360   4.365   3.634
 6830TIP3    H120454   6.445   4.392   3.667
 6830TIP3    H220455   6.305   4.443   3.643
 6831TIP3   OH220456   4.936   6.484   5.317
 6831TIP3    H120457   4.889   6.499   5.235
 6831TIP3    H220458   4.876   6.516   5.385
 6832TIP3   OH220459   4.906   6.136   1.420
 6832TIP3    H120460   4.844   6.157   1.351
 6832TIP3    H220461   4.854   6.093   1.488
 6833TIP3   OH220462   1.499   3.681   4.134
 6833TIP3    H120463   1.468   3.701   4.223
 6833TIP3    H220464   1.421   3.647   4.089
 6834TIP3   OH220465   3.833   3.171   0.939
 6834TIP3    H120466   3.826   3.257   0.897
 6834TIP3    H220467   3.909   3.130   0.897
 6835TIP3   OH220468   2.102   1.597   0.016
 6835TIP3    H120469   2.092   1.684  -0.021
 6835TIP3    H220470   2.104   1.610   0.110
 6836TIP3   OH220471   5.768   6.650   3.966
 6836TIP3    H120472   5.687   6.697   3.983
 6836TIP3    H220473   5.835   6.698   4.015
 6837TIP3   OH220474   5.701   1.125   0.155
 6837TIP3    H120475   5.674   1.094   0.242
 6837TIP3    H220476   5.622   1.162   0.117
 6838TIP3   OH220477   0.133   1.185   1.231
 6838TIP3    H120478   0.124   1.137   1.313
 6838TIP3    H220479   0.076   1.138   1.169
 6839TIP3   OH220480   2.820   1.391   3.519
 6839TIP3    H120481   2.726   1.373   3.519
 6839TIP3    H220482   2.837   1.435   3.602
 6840TIP3   OH220483   4.032   4.412   5.391
 6840TIP3    H120484   3.982   4.331   5.396
 6840TIP3    H220485   3.966   4.481   5.391
 6841TIP3   OH220486   1.718   4.687   2.217
 6841TIP3    H120487   1.650   4.653   2.159
 6841TIP3    H220488   1.800   4.656   2.179
 6842TIP3   OH220489   2.840   3.849   4.241
 6842TIP3    H120490   2.871   3.939   4.227
 6842TIP3    H220491   2.845   3.809   4.154
 6843TIP3   OH220492   6.688   3.892   1.658
 6843TIP3    H120493   6.782   3.898   1.640
 6843TIP3    H220494   6.679   3.812   1.709
 6844TIP3   OH220495   2.726   0.167   3.231
 6844TIP3    H120496   2.674   0.245   3.211
 6844TIP3    H220497   2.785   0.195   3.301
 6845TIP3   OH220498   3.183   4.098   5.440
 6845TIP3    H120499   3.250   4.042   5.402
 6845TIP3    H220500   3.122   4.114   5.369
 6846TIP3   OH220501   6.486   5.276   5.625
 6846TIP3    H120502   6.407   5.303   5.578
 6846TIP3    H220503   6.530   5.216   5.566
 6847TIP3   OH220504   2.181   1.179   4.019
 6847TIP3    H120505   2.186   1.260   3.969
 6847TIP3    H220506   2.123   1.123   3.967
 6848TIP3   OH220507   3.791   4.282   4.347
 6848TIP3    H120508   3.814   4.276   4.254
 6848TIP3    H220509   3.831   4.205   4.387
 6849TIP3   OH220510   6.410   3.075   5.007
 6849TIP3    H120511   6.500   3.083   5.041
 6849TIP3    H220512   6.415   3.107   4.918
 6850TIP3   OH220513   1.547   4.542   2.057
 6850TIP3    H120514   1.512   4.578   1.975
 6850TIP3    H220515   1.477   4.485   2.090
 6851TIP3   OH220516   0.691   3.085   5.080
 6851TIP3    H120517   0.645   3.159   5.122
 6851TIP3    H220518   0.621   3.030   5.046
 6852TIP3   OH220519   0.798   2.673   3.413
 6852TIP3    H120520   0.805   2.688   3.319
 6852TIP3    H220521   0.719   2.720   3.439
 6853TIP3   OH220522   1.697   0.832   3.578
 6853TIP3    H120523   1.706   0.747   3.622
 6853TIP3    H220524   1.699   0.811   3.484
 6854TIP3   OH220525   3.304   6.131   0.593
 6854TIP3    H120526   3.309   6.036   0.607
 6854TIP3    H220527   3.349   6.168   0.668
 6855TIP3   OH220528   2.124   3.234   2.722
 6855TIP3    H120529   2.178   3.200   2.650
 6855TIP3    H220530   2.034   3.218   2.694
 6856TIP3   OH220531   1.605   1.271   2.220
 6856TIP3    H120532   1.667   1.210   2.259
 6856TIP3    H220533   1.634   1.357   2.249
 6857TIP3   OH220534   1.538   6.188   0.991
 6857TIP3    H120535   1.448   6.221   0.979
 6857TIP3    H220536   1.569   6.171   0.902
 6858TIP3   OH220537   0.584   1.003   1.296
 6858TIP3    H120538   0.543   1.086   1.270
 6858TIP3    H220539   0.514   0.955   1.341
 6859TIP3   OH220540   5.684   5.081   2.162
 6859TIP3    H120541   5.628   5.074   2.085
 6859TIP3    H220542   5.750   5.012   2.150
 6860TIP3   OH220543   1.460   0.144   3.962
 6860TIP3    H120544   1.470   0.156   3.867
 6860TIP3    H220545   1.387   0.082   3.970
 6861TIP3   OH220546   2.689   0.288   1.974
 6861TIP3    H120547   2.655   0.243   2.051
 6861TIP3    H220548   2.784   0.274   1.979
 6862TIP3   OH220549   2.124   6.699   2.212
 6862TIP3    H120550   2.131   6.720   2.305
 6862TIP3    H220551   2.072   6.619   2.210
 6863TIP3   OH220552   0.379   1.428   3.472
 6863TIP3    H120553   0.456   1.372   3.463
 6863TIP3    H220554   0.389   1.468   3.558
 6864TIP3   OH220555   2.537   5.055   3.637
 6864TIP3    H120556   2.537   5.125   3.702
 6864TIP3    H220557   2.462   5.074   3.582
 6865TIP3   OH220558   2.565   2.727   2.536
 6865TIP3    H120559   2.595   2.679   2.614
 6865TIP3    H220560   2.612   2.686   2.463
 6866TIP3   OH220561   4.678   2.469   4.952
 6866TIP3    H120562   4.603   2.491   4.897
 6866TIP3    H220563   4.704   2.381   4.923
 6867TIP3   OH220564   2.405   5.613   0.568
 6867TIP3    H120565   2.465   5.552   0.611
 6867TIP3    H220566   2.351   5.558   0.511
 6868TIP3   OH220567   3.869   5.777   3.059
 6868TIP3    H120568   3.788   5.775   3.007
 6868TIP3    H220569   3.938   5.795   2.995
 6869TIP3   OH220570   5.992   2.805   5.694
 6869TIP3    H120571   5.968   2.735   5.755
 6869TIP3    H220572   6.070   2.771   5.649
 6870TIP3   OH220573   6.951   1.433   5.679
 6870TIP3    H120574   6.960   1.528   5.674
 6870TIP3    H220575   7.021   1.399   5.623
 6871TIP3   OH220576   3.800   0.946   0.975
 6871TIP3    H120577   3.859   0.956   1.050
 6871TIP3    H220578   3.843   0.882   0.919
 6872TIP3   OH220579   5.575   0.671   0.805
 6872TIP3    H120580   5.561   0.602   0.869
 6872TIP3    H220581   5.646   0.724   0.841
 6873TIP3   OH220582   6.060   4.322   2.236
 6873TIP3    H120583   6.130   4.386   2.249
 6873TIP3    H220584   6.039   4.292   2.325
 6874TIP3   OH220585   2.045   5.844   0.513
 6874TIP3    H120586   2.139   5.826   0.508
 6874TIP3    H220587   2.035   5.931   0.475
 6875TIP3   OH220588   4.430   1.006   1.131
 6875TIP3    H120589   4.507   0.957   1.159
 6875TIP3    H220590   4.433   1.087   1.182
 6876TIP3   OH220591   5.034   5.762   5.379
 6876TIP3    H120592   5.114   5.710   5.378
 6876TIP3    H220593   4.991   5.740   5.296
 6877TIP3   OH220594   0.577   0.894   4.902
 6877TIP3    H120595   0.534   0.810   4.916
 6877TIP3    H220596   0.584   0.933   4.989
 6878TIP3   OH220597   5.159   4.212   1.446
 6878TIP3    H120598   5.141   4.133   1.395
 6878TIP3    H220599   5.229   4.187   1.506
 6879TIP3   OH220600   0.608   1.624   4.978
 6879TIP3    H120601   0.693   1.646   4.940
 6879TIP3    H220602   0.546   1.679   4.931
 6880TIP3   OH220603   1.404   1.674   0.830
 6880TIP3    H120604   1.315   1.695   0.856
 6880TIP3    H220605   1.449   1.653   0.912
 6881TIP3   OH220606   1.508   1.386   5.483
 6881TIP3    H120607   1.598   1.394   5.517
 6881TIP3    H220608   1.501   1.294   5.457
 6882TIP3   OH220609   6.821   0.741   3.351
 6882TIP3    H120610   6.870   0.821   3.332
 6882TIP3    H220611   6.841   0.682   3.278
 6883TIP3   OH220612   0.967   3.626   2.187
 6883TIP3    H120613   1.048   3.600   2.144
 6883TIP3    H220614   0.971   3.721   2.190
 6884TIP3   OH220615   1.994   3.774   4.010
 6884TIP3    H120616   1.971   3.709   3.944
 6884TIP3    H220617   1.911   3.812   4.038
 6885TIP3   OH220618   4.976   1.939   5.318
 6885TIP3    H120619   5.005   1.868   5.375
 6885TIP3    H220620   4.922   1.995   5.375
 6886TIP3   OH220621   2.634   0.056   0.163
 6886TIP3    H120622   2.624  -0.039   0.153
 6886TIP3    H220623   2.551   0.085   0.199
 6887TIP3   OH220624   5.207   0.907   5.506
 6887TIP3    H120625   5.168   0.969   5.568
 6887TIP3    H220626   5.295   0.892   5.540
 6888TIP3   OH220627   0.177   5.499   5.805
 6888TIP3    H120628   0.170   5.531   5.894
 6888TIP3    H220629   0.269   5.513   5.781
 6889TIP3   OH220630   0.193   5.389   3.481
 6889TIP3    H120631   0.220   5.472   3.520
 6889TIP3    H220632   0.266   5.364   3.425
 6890TIP3   OH220633   5.151   3.685   3.316
 6890TIP3    H120634   5.104   3.705   3.235
 6890TIP3    H220635   5.205   3.763   3.332
 6891TIP3   OH220636   0.356   2.926   0.041
 6891TIP3    H120637   0.429   2.968   0.086
 6891TIP3    H220638   0.283   2.933   0.102
 6892TIP3   OH220639   5.289   3.187   4.499
 6892TIP3    H120640   5.226   3.117   4.517
 6892TIP3    H220641   5.303   3.229   4.584
 6893TIP3   OH220642   0.409   4.089   5.627
 6893TIP3    H120643   0.434   4.115   5.716
 6893TIP3    H220644   0.489   4.099   5.576
 6894TIP3   OH220645   0.011   2.643   4.165
 6894TIP3    H120646   0.065   2.696   4.106
 6894TIP3    H220647  -0.044   2.591   4.108
 6895TIP3   OH220648   4.327   2.432   5.681
 6895TIP3    H120649   4.404   2.435   5.738
 6895TIP3    H220650   4.363   2.431   5.592
 6896TIP3   OH220651   1.768   4.780   0.829
 6896TIP3    H120652   1.727   4.735   0.903
 6896TIP3    H220653   1.695   4.819   0.781
 6897TIP3   OH220654   3.998   2.439   3.244
 6897TIP3    H120655   3.955   2.519   3.274
 6897TIP3    H220656   3.932   2.395   3.191
 6898TIP3   OH220657   3.283   6.279   2.833
 6898TIP3    H120658   3.290   6.358   2.779
 6898TIP3    H220659   3.350   6.220   2.797
 6899TIP3   OH220660   5.467   5.400   2.507
 6899TIP3    H120661   5.547   5.452   2.514
 6899TIP3    H220662   5.495   5.317   2.468
 6900TIP3   OH220663   4.081   4.681   4.711
 6900TIP3    H120664   4.110   4.658   4.623
 6900TIP3    H220665   4.158   4.721   4.753
 6901TIP3   OH220666   0.548   0.301   5.085
 6901TIP3    H120667   0.548   0.341   5.172
 6901TIP3    H220668   0.469   0.336   5.043
 6902TIP3   OH220669   3.005   4.066   4.208
 6902TIP3    H120670   2.972   4.144   4.163
 6902TIP3    H220671   3.095   4.088   4.230
 6903TIP3   OH220672   5.298   0.740   5.754
 6903TIP3    H120673   5.354   0.697   5.690
 6903TIP3    H220674   5.243   0.670   5.790
 6904TIP3   OH220675   5.349   4.907   2.113
 6904TIP3    H120676   5.375   4.875   2.027
 6904TIP3    H220677   5.254   4.920   2.106
 6905TIP3   OH220678   6.780   3.370   3.609
 6905TIP3    H120679   6.850   3.390   3.671
 6905TIP3    H220680   6.706   3.424   3.637
 6906TIP3   OH220681   5.785   2.728   3.696
 6906TIP3    H120682   5.826   2.702   3.778
 6906TIP3    H220683   5.822   2.668   3.631
 6907TIP3   OH220684   2.613   6.819   3.086
 6907TIP3    H120685   2.663   6.738   3.097
 6907TIP3    H220686   2.641   6.853   3.001
 6908TIP3   OH220687   0.780   3.748   5.163
 6908TIP3    H120688   0.793   3.761   5.257
 6908TIP3    H220689   0.704   3.689   5.157
 6909TIP3   OH220690   1.565   2.697   3.489
 6909TIP3    H120691   1.500   2.687   3.559
 6909TIP3    H220692   1.649   2.704   3.535
 6910TIP3   OH220693   7.148   5.596   1.768
 6910TIP3    H120694   7.240   5.575   1.781
 6910TIP3    H220695   7.118   5.628   1.853
 6911TIP3   OH220696   4.575   2.369   4.193
 6911TIP3    H120697   4.543   2.315   4.266
 6911TIP3    H220698   4.647   2.318   4.155
 6912TIP3   OH220699   2.017   6.101   2.774
 6912TIP3    H120700   2.002   6.120   2.681
 6912TIP3    H220701   1.943   6.143   2.818
 6913TIP3   OH220702   0.370   5.942   2.718
 6913TIP3    H120703   0.401   5.919   2.805
 6913TIP3    H220704   0.410   5.876   2.660
 6914TIP3   OH220705   5.188   4.874   4.359
 6914TIP3    H120706   5.259   4.884   4.422
 6914TIP3    H220707   5.133   4.951   4.373
 6915TIP3   OH220708   6.579   2.579   0.801
 6915TIP3    H120709   6.500   2.567   0.749
 6915TIP3    H220710   6.568   2.665   0.841
 6916TIP3   OH220711   1.463   3.328   2.506
 6916TIP3    H120712   1.385   3.317   2.560
 6916TIP3    H220713   1.480   3.241   2.470
 6917TIP3   OH220714   1.951   6.484   2.192
 6917TIP3    H120715   1.994   6.403   2.220
 6917TIP3    H220716   1.858   6.470   2.211
 6918TIP3   OH220717   3.261   3.038   4.522
 6918TIP3    H120718   3.175   3.059   4.486
 6918TIP3    H220719   3.273   2.945   4.503
 6919TIP3   OH220720   5.846   2.087   2.653
 6919TIP3    H120721   5.887   2.035   2.722
 6919TIP3    H220722   5.774   2.132   2.698
 6920TIP3   OH220723   6.714   5.499   5.120
 6920TIP3    H120724   6.633   5.489   5.071
 6920TIP3    H220725   6.783   5.492   5.054
 6921TIP3   OH220726   5.136   4.645   2.086
 6921TIP3    H120727   5.223   4.641   2.046
 6921TIP3    H220728   5.121   4.738   2.103
 6922TIP3   OH220729   0.036   3.975   1.844
 6922TIP3    H120730   0.049   4.007   1.933
 6922TIP3    H220731   0.025   3.880   1.855
 6923TIP3   OH220732   6.184   4.999   5.356
 6923TIP3    H120733   6.094   5.003   5.388
 6923TIP3    H220734   6.236   4.979   5.434
 6924TIP3   OH220735   4.611   1.825   5.371
 6924TIP3    H120736   4.606   1.735   5.339
 6924TIP3    H220737   4.569   1.822   5.457
 6925TIP3   OH220738   1.888   2.585   2.852
 6925TIP3    H120739   1.815   2.647   2.861
 6925TIP3    H220740   1.898   2.575   2.757
 6926TIP3   OH220741   6.477   4.406   4.669
 6926TIP3    H120742   6.439   4.375   4.588
 6926TIP3    H220743   6.571   4.410   4.652
 6927TIP3   OH220744   1.490   4.918   2.624
 6927TIP3    H120745   1.547   4.901   2.549
 6927TIP3    H220746   1.402   4.898   2.593
 6928TIP3   OH220747   3.425   1.898   4.525
 6928TIP3    H120748   3.456   1.831   4.587
 6928TIP3    H220749   3.339   1.922   4.557
 6929TIP3   OH220750   4.905   2.332   2.449
 6929TIP3    H120751   4.896   2.372   2.362
 6929TIP3    H220752   4.845   2.382   2.504
 6930TIP3   OH220753   3.952   5.619   1.039
 6930TIP3    H120754   3.985   5.545   0.988
 6930TIP3    H220755   3.865   5.592   1.068
 6931TIP3   OH220756   5.106   4.804   3.940
 6931TIP3    H120757   5.104   4.875   3.876
 6931TIP3    H220758   5.199   4.790   3.958
 6932TIP3   OH220759   0.289   6.149   0.481
 6932TIP3    H120760   0.376   6.164   0.444
 6932TIP3    H220761   0.241   6.230   0.463
 6933TIP3   OH220762   2.442   6.221   4.874
 6933TIP3    H120763   2.422   6.264   4.791
 6933TIP3    H220764   2.511   6.275   4.913
 6934TIP3   OH220765   4.697   6.207   0.159
 6934TIP3    H120766   4.671   6.145   0.091
 6934TIP3    H220767   4.650   6.287   0.138
 6935TIP3   OH220768   5.945   1.117   0.939
 6935TIP3    H120769   6.037   1.104   0.916
 6935TIP3    H220770   5.946   1.191   0.999
 6936TIP3   OH220771   1.210   1.796   4.332
 6936TIP3    H120772   1.154   1.724   4.301
 6936TIP3    H220773   1.263   1.756   4.402
 6937TIP3   OH220774   1.275   2.011   0.714
 6937TIP3    H120775   1.351   1.971   0.672
 6937TIP3    H220776   1.307   2.096   0.745
 6938TIP3   OH220777   7.086   6.678   2.857
 6938TIP3    H120778   7.070   6.661   2.950
 6938TIP3    H220779   7.061   6.597   2.813
 6939TIP3   OH220780   0.626   5.686   5.448
 6939TIP3    H120781   0.672   5.677   5.531
 6939TIP3    H220782   0.617   5.780   5.435
 6940TIP3   OH220783   5.694   2.374   4.894
 6940TIP3    H120784   5.707   2.459   4.936
 6940TIP3    H220785   5.696   2.311   4.966
 6941TIP3   OH220786   0.052   1.153   1.868
 6941TIP3    H120787   0.131   1.194   1.903
 6941TIP3    H220788  -0.020   1.199   1.911
 6942TIP3   OH220789   5.390   6.083   4.667
 6942TIP3    H120790   5.328   6.140   4.713
 6942TIP3    H220791   5.457   6.143   4.634
 6943TIP3   OH220792   2.608   3.134   5.313
 6943TIP3    H120793   2.560   3.216   5.327
 6943TIP3    H220794   2.700   3.161   5.308
 6944TIP3   OH220795   3.043   2.765   5.928
 6944TIP3    H120796   2.968   2.823   5.940
 6944TIP3    H220797   3.108   2.796   5.991
 6945TIP3   OH220798   5.655   3.119   5.388
 6945TIP3    H120799   5.718   3.099   5.318
 6945TIP3    H220800   5.572   3.087   5.354
 6946TIP3   OH220801   6.286   0.758   2.397
 6946TIP3    H120802   6.312   0.709   2.475
 6946TIP3    H220803   6.263   0.845   2.430
 6947TIP3   OH220804   5.664   3.703   1.063
 6947TIP3    H120805   5.593   3.751   1.105
 6947TIP3    H220806   5.698   3.763   0.997
 6948TIP3   OH220807   1.498   2.490   5.540
 6948TIP3    H120808   1.426   2.548   5.515
 6948TIP3    H220809   1.495   2.488   5.636
 6949TIP3   OH220810   3.125   6.604   4.150
 6949TIP3    H120811   3.139   6.647   4.235
 6949TIP3    H220812   3.104   6.514   4.173
 6950TIP3   OH220813   2.298   2.739   2.569
 6950TIP3    H120814   2.318   2.648   2.590
 6950TIP3    H220815   2.384   2.782   2.564
 6951TIP3   OH220816   2.110   4.623   3.918
 6951TIP3    H120817   2.110   4.718   3.932
 6951TIP3    H220818   2.200   4.597   3.938
 6952TIP3   OH220819   2.306   3.234   2.041
 6952TIP3    H120820   2.268   3.322   2.036
 6952TIP3    H220821   2.230   3.176   2.052
 6953TIP3   OH220822   2.274   4.221   5.511
 6953TIP3    H120823   2.333   4.242   5.439
 6953TIP3    H220824   2.210   4.293   5.511
 6954TIP3   OH220825   0.975   3.338   0.831
 6954TIP3    H120826   0.935   3.296   0.754
 6954TIP3    H220827   1.046   3.390   0.796
 6955TIP3   OH220828   3.500   3.917   2.055
 6955TIP3    H120829   3.594   3.925   2.069
 6955TIP3    H220830   3.483   3.965   1.974
 6956TIP3   OH220831   3.178   4.983   4.093
 6956TIP3    H120832   3.197   5.030   4.175
 6956TIP3    H220833   3.091   5.014   4.067
 6957TIP3   OH220834   6.804   3.600   4.760
 6957TIP3    H120835   6.836   3.524   4.808
 6957TIP3    H220836   6.724   3.569   4.717
 6958TIP3   OH220837   5.045   0.916   3.177
 6958TIP3    H120838   5.089   0.901   3.093
 6958TIP3    H220839   5.052   0.833   3.224
 6959TIP3   OH220840   2.398   1.613   1.635
 6959TIP3    H120841   2.454   1.640   1.708
 6959TIP3    H220842   2.377   1.521   1.655
 6960TIP3   OH220843   1.368   1.167   3.215
 6960TIP3    H120844   1.456   1.202   3.226
 6960TIP3    H220845   1.353   1.167   3.120
 6961TIP3   OH220846   0.280   1.790   5.221
 6961TIP3    H120847   0.220   1.863   5.235
 6961TIP3    H220848   0.361   1.816   5.266
 6962TIP3   OH220849   2.690   0.836   3.885
 6962TIP3    H120850   2.736   0.916   3.908
 6962TIP3    H220851   2.680   0.841   3.790
 6963TIP3   OH220852   5.740   1.526   5.896
 6963TIP3    H120853   5.807   1.488   5.838
 6963TIP3    H220854   5.764   1.496   5.983
 6964TIP3   OH220855   1.866   4.331   2.431
 6964TIP3    H120856   1.809   4.254   2.435
 6964TIP3    H220857   1.805   4.405   2.427
 6965TIP3   OH220858   2.770   3.652   4.431
 6965TIP3    H120859   2.780   3.595   4.355
 6965TIP3    H220860   2.819   3.731   4.408
 6966TIP3   OH220861   5.307   0.705   4.462
 6966TIP3    H120862   5.321   0.694   4.368
 6966TIP3    H220863   5.212   0.698   4.472
 6967TIP3   OH220864   1.079   4.727   4.715
 6967TIP3    H120865   0.990   4.749   4.690
 6967TIP3    H220866   1.077   4.723   4.811
 6968TIP3   OH220867   6.138   2.235   2.797
 6968TIP3    H120868   6.096   2.293   2.733
 6968TIP3    H220869   6.189   2.174   2.744
 6969TIP3   OH220870   5.258   2.079   4.219
 6969TIP3    H120871   5.337   2.025   4.208
 6969TIP3    H220872   5.188   2.028   4.179
 6970TIP3   OH220873   3.232   2.738   2.261
 6970TIP3    H120874   3.159   2.713   2.317
 6970TIP3    H220875   3.264   2.821   2.298
 6971TIP3   OH220876   0.407   5.650   3.874
 6971TIP3    H120877   0.375   5.689   3.955
 6971TIP3    H220878   0.442   5.565   3.900
 6972TIP3   OH220879   5.463   1.390   4.520
 6972TIP3    H120880   5.554   1.391   4.490
 6972TIP3    H220881   5.438   1.298   4.519
 6973TIP3   OH220882   0.344   3.865   4.785
 6973TIP3    H120883   0.434   3.863   4.754
 6973TIP3    H220884   0.326   3.958   4.799
 6974TIP3   OH220885   4.957   4.898   3.539
 6974TIP3    H120886   4.947   4.885   3.445
 6974TIP3    H220887   4.868   4.895   3.573
 6975TIP3   OH220888   0.238   1.533   3.024
 6975TIP3    H120889   0.236   1.628   3.022
 6975TIP3    H220890   0.169   1.508   3.086
 6976TIP3   OH220891   2.442   6.667   3.464
 6976TIP3    H120892   2.380   6.698   3.529
 6976TIP3    H220893   2.388   6.627   3.396
 6977TIP3   OH220894   5.663   3.850   2.750
 6977TIP3    H120895   5.687   3.767   2.792
 6977TIP3    H220896   5.593   3.827   2.689
 6978TIP3   OH220897   4.184   2.752   4.674
 6978TIP3    H120898   4.249   2.694   4.633
 6978TIP3    H220899   4.135   2.789   4.600
 6979TIP3   OH220900   6.541   0.671   3.208
 6979TIP3    H120901   6.474   0.695   3.144
 6979TIP3    H220902   6.492   0.647   3.286
 6980TIP3   OH220903   2.412   2.913   2.019
 6980TIP3    H120904   2.386   2.881   1.932
 6980TIP3    H220905   2.387   3.006   2.019
 6981TIP3   OH220906   6.643   4.790   4.270
 6981TIP3    H120907   6.568   4.846   4.251
 6981TIP3    H220908   6.606   4.702   4.276
 6982TIP3   OH220909   6.503   3.972   1.932
 6982TIP3    H120910   6.565   3.902   1.911
 6982TIP3    H220911   6.451   3.983   1.854
 6983TIP3   OH220912   0.339   2.798   5.062
 6983TIP3    H120913   0.385   2.750   4.994
 6983TIP3    H220914   0.258   2.829   5.021
 6984TIP3   OH220915   4.274   5.703   3.407
 6984TIP3    H120916   4.195   5.707   3.354
 6984TIP3    H220917   4.291   5.794   3.431
 6985TIP3   OH220918   4.454   5.327   2.528
 6985TIP3    H120919   4.474   5.414   2.565
 6985TIP3    H220920   4.361   5.331   2.507
 6986TIP3   OH220921   0.329   3.999   3.264
 6986TIP3    H120922   0.326   3.922   3.320
 6986TIP3    H220923   0.280   3.973   3.186
 6987TIP3   OH220924   7.008   6.577   1.136
 6987TIP3    H120925   7.069   6.643   1.103
 6987TIP3    H220926   6.951   6.626   1.196
 6988TIP3   OH220927   7.035   3.613   3.852
 6988TIP3    H120928   7.041   3.519   3.871
 6988TIP3    H220929   6.943   3.635   3.866
 6989TIP3   OH220930   3.169   1.108   3.035
 6989TIP3    H120931   3.135   1.080   2.950
 6989TIP3    H220932   3.265   1.106   3.024
 6990TIP3   OH220933   2.081   6.748   1.906
 6990TIP3    H120934   2.084   6.727   2.000
 6990TIP3    H220935   2.172   6.758   1.881
 6991TIP3   OH220936   5.548   2.777   3.481
 6991TIP3    H120937   5.638   2.777   3.515
 6991TIP3    H220938   5.541   2.859   3.431
 6992TIP3   OH220939   0.860   4.282   1.957
 6992TIP3    H120940   0.949   4.256   1.978
 6992TIP3    H220941   0.861   4.295   1.862
 6993TIP3   OH220942   7.155   1.098   5.467
 6993TIP3    H120943   7.113   1.020   5.431
 6993TIP3    H220944   7.219   1.125   5.401
 6994TIP3   OH220945   5.259   4.413   1.056
 6994TIP3    H120946   5.173   4.381   1.029
 6994TIP3    H220947   5.245   4.453   1.141
 6995TIP3   OH220948   2.194   2.083   1.195
 6995TIP3    H120949   2.152   1.996   1.196
 6995TIP3    H220950   2.121   2.144   1.200
 6996TIP3   OH220951   0.413   1.815   5.771
 6996TIP3    H120952   0.352   1.878   5.732
 6996TIP3    H220953   0.429   1.751   5.702
 6997TIP3   OH220954   0.818   3.281   3.661
 6997TIP3    H120955   0.758   3.237   3.601
 6997TIP3    H220956   0.905   3.251   3.635
 6998TIP3   OH220957   5.390   6.473   3.528
 6998TIP3    H120958   5.447   6.549   3.533
 6998TIP3    H220959   5.334   6.480   3.605
 6999TIP3   OH220960   5.774   1.832   2.915
 6999TIP3    H120961   5.802   1.814   3.005
 6999TIP3    H220962   5.679   1.821   2.916
 7000TIP3   OH220963   4.062   3.154   4.087
 7000TIP3    H120964   3.970   3.134   4.106
 7000TIP3    H220965   4.078   3.237   4.131
 7001TIP3   OH220966   4.808   2.558   1.950
 7001TIP3    H120967   4.735   2.518   1.996
 7001TIP3    H220968   4.827   2.498   1.878
 7002TIP3   OH220969   3.027   6.424   2.588
 7002TIP3    H120970   2.958   6.490   2.587
 7002TIP3    H220971   3.001   6.364   2.658
 7003TIP3   OH220972   3.274   6.443   4.575
 7003TIP3    H120973   3.352   6.483   4.612
 7003TIP3    H220974   3.265   6.482   4.488
 7004TIP3   OH220975   1.144   0.092   2.224
 7004TIP3    H120976   1.151   0.026   2.155
 7004TIP3    H220977   1.056   0.081   2.259
 7005TIP3   OH220978   4.143   1.272   0.635
 7005TIP3    H120979   4.171   1.363   0.646
 7005TIP3    H220980   4.160   1.231   0.720
 7006TIP3   OH220981   6.831   3.738   1.392
 7006TIP3    H120982   6.763   3.786   1.344
 7006TIP3    H220983   6.896   3.804   1.414
 7007TIP3   OH220984   1.915   3.612   4.267
 7007TIP3    H120985   1.849   3.592   4.201
 7007TIP3    H220986   1.966   3.683   4.230
 7008TIP3   OH220987   1.901   0.319   2.664
 7008TIP3    H120988   1.877   0.292   2.752
 7008TIP3    H220989   1.883   0.242   2.609
 7009TIP3   OH220990   1.399   4.418   1.020
 7009TIP3    H120991   1.487   4.455   1.030
 7009TIP3    H220992   1.340   4.492   1.031
 7010TIP3   OH220993   2.525   3.219   2.197
 7010TIP3    H120994   2.527   3.127   2.224
 7010TIP3    H220995   2.445   3.228   2.145
 7011TIP3   OH220996   0.993   6.132   1.872
 7011TIP3    H120997   0.945   6.175   1.802
 7011TIP3    H220998   0.928   6.115   1.940
 7012TIP3   OH220999   5.885   4.287   0.226
 7012TIP3    H121000   5.789   4.287   0.228
 7012TIP3    H221001   5.910   4.311   0.315
 7013TIP3   OH221002   4.365   6.385   3.090
 7013TIP3    H121003   4.404   6.366   3.005
 7013TIP3    H221004   4.291   6.442   3.070
 7014TIP3   OH221005   4.685   1.573   4.090
 7014TIP3    H121006   4.688   1.669   4.086
 7014TIP3    H221007   4.636   1.547   4.013
 7015TIP3   OH221008   1.226   2.540   2.283
 7015TIP3    H121009   1.246   2.488   2.205
 7015TIP3    H221010   1.190   2.622   2.249
 7016TIP3   OH221011   5.740   3.100   4.063
 7016TIP3    H121012   5.770   3.115   3.974
 7016TIP3    H221013   5.689   3.179   4.085
 7017TIP3   OH221014   3.275   3.396   0.887
 7017TIP3    H121015   3.223   3.424   0.811
 7017TIP3    H221016   3.293   3.304   0.871
 7018TIP3   OH221017   6.684   6.675   1.380
 7018TIP3    H121018   6.747   6.728   1.331
 7018TIP3    H221019   6.726   6.661   1.465
 7019TIP3   OH221020   0.122   3.822   0.141
 7019TIP3    H121021   0.077   3.766   0.079
 7019TIP3    H221022   0.200   3.773   0.167
 7020TIP3   OH221023   1.744   0.331   3.314
 7020TIP3    H121024   1.719   0.342   3.223
 7020TIP3    H221025   1.840   0.336   3.313
 7021TIP3   OH221026   4.267   2.397   4.174
 7021TIP3    H121027   4.305   2.475   4.133
 7021TIP3    H221028   4.308   2.324   4.129
 7022TIP3   OH221029   0.853   1.228   4.738
 7022TIP3    H121030   0.867   1.135   4.755
 7022TIP3    H221031   0.760   1.242   4.755
 7023TIP3   OH221032   3.840   1.477   1.443
 7023TIP3    H121033   3.926   1.518   1.449
 7023TIP3    H221034   3.778   1.548   1.461
 7024TIP3   OH221035   6.475   6.250   1.795
 7024TIP3    H121036   6.546   6.311   1.817
 7024TIP3    H221037   6.517   6.163   1.798
 7025TIP3   OH221038   5.531   0.733   2.861
 7025TIP3    H121039   5.502   0.777   2.941
 7025TIP3    H221040   5.625   0.749   2.858
 7026TIP3   OH221041   4.755   0.008   3.173
 7026TIP3    H121042   4.738  -0.084   3.196
 7026TIP3    H221043   4.848   0.011   3.153
 7027TIP3   OH221044   5.011   0.827   5.049
 7027TIP3    H121045   4.961   0.890   4.997
 7027TIP3    H221046   5.010   0.864   5.138
 7028TIP3   OH221047   1.202   2.823   2.942
 7028TIP3    H121048   1.204   2.781   3.028
 7028TIP3    H221049   1.234   2.912   2.957
 7029TIP3   OH221050   4.692   3.524   0.712
 7029TIP3    H121051   4.747   3.448   0.732
 7029TIP3    H221052   4.621   3.519   0.776
 7030TIP3   OH221053   0.798   4.321   1.688
 7030TIP3    H121054   0.875   4.377   1.680
 7030TIP3    H221055   0.734   4.360   1.628
 7031TIP3   OH221056   0.345   2.841   5.763
 7031TIP3    H121057   0.292   2.774   5.804
 7031TIP3    H221058   0.300   2.862   5.682
 7032TIP3   OH221059   4.866   5.491   0.715
 7032TIP3    H121060   4.776   5.503   0.686
 7032TIP3    H221061   4.859   5.470   0.808
 7033TIP3   OH221062   4.784   5.063   3.922
 7033TIP3    H121063   4.804   4.986   3.976
 7033TIP3    H221064   4.866   5.083   3.877
 7034TIP3   OH221065   6.520   1.478   5.108
 7034TIP3    H121066   6.469   1.557   5.125
 7034TIP3    H221067   6.466   1.427   5.049
 7035TIP3   OH221068   1.459   2.780   4.889
 7035TIP3    H121069   1.373   2.751   4.918
 7035TIP3    H221070   1.441   2.841   4.817
 7036TIP3   OH221071   5.107   5.326   4.678
 7036TIP3    H121072   5.061   5.293   4.755
 7036TIP3    H221073   5.198   5.300   4.692
 7037TIP3   OH221074   2.738   0.852   3.059
 7037TIP3    H121075   2.777   0.807   2.984
 7037TIP3    H221076   2.808   0.858   3.124
 7038TIP3   OH221077   2.640   1.817   4.521
 7038TIP3    H121078   2.626   1.753   4.452
 7038TIP3    H221079   2.555   1.858   4.535
 7039TIP3   OH221080   4.344   1.265   5.768
 7039TIP3    H121081   4.437   1.242   5.761
 7039TIP3    H221082   4.306   1.239   5.684
 7040TIP3   OH221083   6.014   5.843   4.126
 7040TIP3    H121084   6.048   5.826   4.214
 7040TIP3    H221085   5.954   5.917   4.137
 7041TIP3   OH221086   6.259   1.238   1.252
 7041TIP3    H121087   6.207   1.309   1.214
 7041TIP3    H221088   6.261   1.258   1.346
 7042TIP3   OH221089   5.601   5.805   1.114
 7042TIP3    H121090   5.535   5.856   1.067
 7042TIP3    H221091   5.576   5.714   1.098
 7043TIP3   OH221092   4.403   1.964   3.228
 7043TIP3    H121093   4.469   1.974   3.297
 7043TIP3    H221094   4.322   1.944   3.276
 7044TIP3   OH221095   6.507   5.453   2.064
 7044TIP3    H121096   6.575   5.433   2.128
 7044TIP3    H221097   6.452   5.375   2.060
 7045TIP3   OH221098   1.462   4.353   1.677
 7045TIP3    H121099   1.434   4.331   1.588
 7045TIP3    H221100   1.471   4.269   1.721
 7046TIP3   OH221101   4.328   0.976   3.405
 7046TIP3    H121102   4.255   0.995   3.346
 7046TIP3    H221103   4.398   0.946   3.347
 7047TIP3   OH221104   6.428   2.113   1.772
 7047TIP3    H121105   6.456   2.171   1.844
 7047TIP3    H221106   6.500   2.117   1.710
 7048TIP3   OH221107   0.027   0.608   4.939
 7048TIP3    H121108   0.029   0.518   4.971
 7048TIP3    H221109   0.105   0.617   4.884
 7049TIP3   OH221110   4.118   4.785   3.328
 7049TIP3    H121111   4.177   4.838   3.382
 7049TIP3    H221112   4.039   4.777   3.381
 7050TIP3   OH221113   0.326   1.901   1.178
 7050TIP3    H121114   0.418   1.894   1.153
 7050TIP3    H221115   0.315   1.833   1.245
 7051TIP3   OH221116   3.924   5.942   5.267
 7051TIP3    H121117   3.964   5.923   5.182
 7051TIP3    H221118   3.874   5.863   5.288
 7052TIP3   OH221119   5.967   3.661   0.621
 7052TIP3    H121120   5.915   3.581   0.628
 7052TIP3    H221121   6.052   3.632   0.587
 7053TIP3   OH221122   2.918   3.409   3.874
 7053TIP3    H121123   3.013   3.422   3.884
 7053TIP3    H221124   2.900   3.328   3.921
 7054TIP3   OH221125   5.745   6.696   5.237
 7054TIP3    H121126   5.823   6.747   5.262
 7054TIP3    H221127   5.769   6.656   5.153
 7055TIP3   OH221128   0.114   3.750   1.022
 7055TIP3    H121129   0.088   3.749   0.930
 7055TIP3    H221130   0.031   3.753   1.070
 7056TIP3   OH221131   2.049   0.325   0.796
 7056TIP3    H121132   2.013   0.341   0.883
 7056TIP3    H221133   1.974   0.332   0.737
 7057TIP3   OH221134   3.696   3.932   2.384
 7057TIP3    H121135   3.679   4.022   2.358
 7057TIP3    H221136   3.731   3.938   2.473
 7058TIP3   OH221137   1.734   5.249   1.387
 7058TIP3    H121138   1.640   5.258   1.404
 7058TIP3    H221139   1.776   5.306   1.451
 7059TIP3   OH221140   3.686   4.380   4.687
 7059TIP3    H121141   3.670   4.422   4.771
 7059TIP3    H221142   3.726   4.449   4.633
 7060TIP3   OH221143   6.944   6.634   0.293
 7060TIP3    H121144   6.922   6.699   0.360
 7060TIP3    H221145   7.034   6.608   0.312
 7061TIP3   OH221146   6.303   3.755   5.521
 7061TIP3    H121147   6.395   3.734   5.535
 7061TIP3    H221148   6.304   3.840   5.477
 7062TIP3   OH221149   2.170   3.411   0.492
 7062TIP3    H121150   2.095   3.361   0.459
 7062TIP3    H221151   2.228   3.345   0.530
 7063TIP3   OH221152   4.062   1.635   5.036
 7063TIP3    H121153   3.971   1.613   5.056
 7063TIP3    H221154   4.099   1.661   5.120
 7064TIP3   OH221155   6.405   1.322   0.427
 7064TIP3    H121156   6.431   1.231   0.441
 7064TIP3    H221157   6.384   1.327   0.334
 7065TIP3   OH221158   6.135   2.140   0.893
 7065TIP3    H121159   6.108   2.073   0.830
 7065TIP3    H221160   6.224   2.164   0.867
 7066TIP3   OH221161   5.790   4.781   3.381
 7066TIP3    H121162   5.834   4.777   3.297
 7066TIP3    H221163   5.708   4.733   3.367
 7067TIP3   OH221164   1.765   0.090   0.627
 7067TIP3    H121165   1.820   0.046   0.692
 7067TIP3    H221166   1.706   0.021   0.595
 7068TIP3   OH221167   6.617   2.621   0.437
 7068TIP3    H121168   6.669   2.611   0.358
 7068TIP3    H221169   6.637   2.709   0.468
 7069TIP3   OH221170   4.248   4.824   5.695
 7069TIP3    H121171   4.167   4.800   5.650
 7069TIP3    H221172   4.268   4.912   5.663
 7070TIP3   OH221173   3.999   6.495   1.910
 7070TIP3    H121174   3.990   6.515   2.003
 7070TIP3    H221175   3.910   6.482   1.879
 7071TIP3   OH221176   7.109   3.269   2.947
 7071TIP3    H121177   7.028   3.309   2.977
 7071TIP3    H221178   7.160   3.342   2.913
 7072TIP3   OH221179   5.359   1.427   2.553
 7072TIP3    H121180   5.340   1.410   2.646
 7072TIP3    H221181   5.336   1.519   2.541
 7073TIP3   OH221182   6.998   1.529   3.525
 7073TIP3    H121183   7.084   1.519   3.565
 7073TIP3    H221184   6.991   1.623   3.506
 7074TIP3   OH221185   1.323   1.453   5.305
 7074TIP3    H121186   1.394   1.448   5.369
 7074TIP3    H221187   1.301   1.362   5.286
 7075TIP3   OH221188   1.686   3.983   2.341
 7075TIP3    H121189   1.766   4.014   2.298
 7075TIP3    H221190   1.708   3.896   2.374
 7076TIP3   OH221191   2.297   0.874   5.316
 7076TIP3    H121192   2.309   0.878   5.411
 7076TIP3    H221193   2.379   0.908   5.280
 7077TIP3   OH221194   2.111   0.420   3.206
 7077TIP3    H121195   2.078   0.486   3.145
 7077TIP3    H221196   2.153   0.355   3.150
 7078TIP3   OH221197   0.099   6.077   1.791
 7078TIP3    H121198   0.182   6.070   1.744
 7078TIP3    H221199   0.032   6.050   1.729
 7079TIP3   OH221200   3.766   0.421   0.419
 7079TIP3    H121201   3.732   0.394   0.333
 7079TIP3    H221202   3.689   0.428   0.474
 7080TIP3   OH221203   0.586   3.327   1.702
 7080TIP3    H121204   0.591   3.232   1.691
 7080TIP3    H221205   0.572   3.360   1.613
 7081TIP3   OH221206   1.660   4.555   1.023
 7081TIP3    H121207   1.747   4.546   0.983
 7081TIP3    H221208   1.670   4.516   1.110
 7082TIP3   OH221209   5.130   0.669   0.516
 7082TIP3    H121210   5.064   0.683   0.448
 7082TIP3    H221211   5.204   0.724   0.489
 7083TIP3   OH221212   0.911   3.054   4.245
 7083TIP3    H121213   0.949   3.017   4.325
 7083TIP3    H221214   0.819   3.067   4.266
 7084TIP3   OH221215   6.084   2.730   1.464
 7084TIP3    H121216   6.055   2.772   1.383
 7084TIP3    H221217   6.179   2.742   1.465
 7085TIP3   OH221218   5.991   1.835   5.361
 7085TIP3    H121219   6.048   1.758   5.357
 7085TIP3    H221220   5.918   1.808   5.418
 7086TIP3   OH221221   6.045   5.118   4.622
 7086TIP3    H121222   6.006   5.054   4.562
 7086TIP3    H221223   5.978   5.133   4.688
 7087TIP3   OH221224   4.512   3.590   2.963
 7087TIP3    H121225   4.510   3.652   2.891
 7087TIP3    H221226   4.538   3.642   3.039
 7088TIP3   OH221227   6.680   0.784   2.163
 7088TIP3    H121228   6.769   0.777   2.198
 7088TIP3    H221229   6.624   0.782   2.241
 7089TIP3   OH221230   0.939   3.994   3.119
 7089TIP3    H121231   0.997   3.953   3.056
 7089TIP3    H221232   0.944   4.088   3.100
 7090TIP3   OH221233   1.085   5.327   5.303
 7090TIP3    H121234   1.011   5.360   5.252
 7090TIP3    H221235   1.053   5.329   5.394
 7091TIP3   OH221236   1.702   3.478   0.847
 7091TIP3    H121237   1.649   3.535   0.902
 7091TIP3    H221238   1.711   3.525   0.765
 7092TIP3   OH221239   6.518   6.080   3.098
 7092TIP3    H121240   6.428   6.107   3.118
 7092TIP3    H221241   6.571   6.157   3.118
 7093TIP3   OH221242   2.130   2.765   0.478
 7093TIP3    H121243   2.141   2.709   0.555
 7093TIP3    H221244   2.070   2.718   0.421
 7094TIP3   OH221245   1.544   5.074   5.178
 7094TIP3    H121246   1.488   5.058   5.253
 7094TIP3    H221247   1.513   5.013   5.111
 7095TIP3   OH221248   5.782   0.517   2.222
 7095TIP3    H121249   5.823   0.604   2.224
 7095TIP3    H221250   5.821   0.474   2.145
 7096TIP3   OH221251   2.649   3.695   1.154
 7096TIP3    H121252   2.743   3.704   1.170
 7096TIP3    H221253   2.643   3.670   1.062
 7097TIP3   OH221254   2.827   6.386   5.180
 7097TIP3    H121255   2.920   6.363   5.173
 7097TIP3    H221256   2.783   6.303   5.200
 7098TIP3   OH221257   6.699   0.168   5.710
 7098TIP3    H121258   6.708   0.100   5.777
 7098TIP3    H221259   6.786   0.175   5.671
 7099TIP3   OH221260   2.662   2.192   3.753
 7099TIP3    H121261   2.572   2.213   3.728
 7099TIP3    H221262   2.659   2.100   3.777
 7100TIP3   OH221263   2.883   3.700   2.503
 7100TIP3    H121264   2.823   3.752   2.450
 7100TIP3    H221265   2.842   3.697   2.589
 7101TIP3   OH221266   6.268   6.741   0.209
 7101TIP3    H121267   6.274   6.789   0.127
 7101TIP3    H221268   6.348   6.764   0.256
 7102TIP3   OH221269   3.395   1.654   1.351
 7102TIP3    H121270   3.331   1.628   1.285
 7102TIP3    H221271   3.345   1.699   1.418
 7103TIP3   OH221272   0.940   5.311   2.767
 7103TIP3    H121273   0.884   5.388   2.771
 7103TIP3    H221274   1.012   5.337   2.709
 7104TIP3   OH221275   1.040   5.219   2.265
 7104TIP3    H121276   1.042   5.128   2.234
 7104TIP3    H221277   0.964   5.258   2.221
 7105TIP3   OH221278   5.151   4.217   1.868
 7105TIP3    H121279   5.083   4.240   1.805
 7105TIP3    H221280   5.130   4.128   1.895
 7106TIP3   OH221281   1.410   0.448   0.557
 7106TIP3    H121282   1.338   0.385   0.562
 7106TIP3    H221283   1.377   0.526   0.601
 7107TIP3   OH221284   1.324   1.938   0.258
 7107TIP3    H121285   1.314   1.848   0.287
 7107TIP3    H221286   1.268   1.989   0.317
 7108TIP3   OH221287   1.569   0.890   2.323
 7108TIP3    H121288   1.657   0.868   2.293
 7108TIP3    H221289   1.511   0.849   2.259
 7109TIP3   OH221290   3.679   3.413   1.448
 7109TIP3    H121291   3.712   3.325   1.429
 7109TIP3    H221292   3.672   3.416   1.543
 7110TIP3   OH221293   4.277   3.891  -0.024
 7110TIP3    H121294   4.364   3.926  -0.043
 7110TIP3    H221295   4.218   3.965  -0.037
 7111TIP3   OH221296   3.065   0.841   0.089
 7111TIP3    H121297   3.114   0.813   0.012
 7111TIP3    H221298   3.130   0.850   0.158
 7112TIP3   OH221299   0.622   5.023   2.440
 7112TIP3    H121300   0.689   4.986   2.383
 7112TIP3    H221301   0.668   5.043   2.521
 7113TIP3   OH221302   0.499   6.563   3.637
 7113TIP3    H121303   0.503   6.492   3.701
 7113TIP3    H221304   0.591   6.578   3.612
 7114TIP3   OH221305   1.680   5.151   0.078
 7114TIP3    H121306   1.694   5.239   0.045
 7114TIP3    H221307   1.687   5.159   0.173
 7115TIP3   OH221308   4.484   5.769   1.354
 7115TIP3    H121309   4.451   5.851   1.392
 7115TIP3    H221310   4.411   5.708   1.360
 7116TIP3   OH221311   6.539   3.093   2.232
 7116TIP3    H121312   6.487   3.057   2.303
 7116TIP3    H221313   6.587   3.166   2.272
 7117TIP3   OH221314   2.079   3.038   2.084
 7117TIP3    H121315   2.065   2.964   2.026
 7117TIP3    H221316   1.991   3.069   2.105
 7118TIP3   OH221317   3.495   2.561   4.405
 7118TIP3    H121318   3.572   2.546   4.350
 7118TIP3    H221319   3.467   2.473   4.432
 7119TIP3   OH221320   3.889   4.468   3.078
 7119TIP3    H121321   3.982   4.488   3.089
 7119TIP3    H221322   3.844   4.530   3.136
 7120TIP3   OH221323   2.909   2.434   1.081
 7120TIP3    H121324   2.974   2.387   1.028
 7120TIP3    H221325   2.847   2.366   1.109
 7121TIP3   OH221326   4.689   4.342   4.850
 7121TIP3    H121327   4.743   4.347   4.771
 7121TIP3    H221328   4.746   4.303   4.916
 7122TIP3   OH221329   1.306   4.945   4.484
 7122TIP3    H121330   1.282   4.854   4.467
 7122TIP3    H221331   1.398   4.941   4.512
 7123TIP3   OH221332   5.013   4.843   2.326
 7123TIP3    H121333   4.946   4.863   2.392
 7123TIP3    H221334   5.067   4.776   2.367
 7124TIP3   OH221335   0.974   3.542   5.549
 7124TIP3    H121336   1.047   3.604   5.560
 7124TIP3    H221337   0.956   3.511   5.638
 7125TIP3   OH221338   6.089   3.434   5.378
 7125TIP3    H121339   6.042   3.515   5.359
 7125TIP3    H221340   6.168   3.439   5.325
 7126TIP3   OH221341   4.955   0.479   0.937
 7126TIP3    H121342   4.962   0.543   1.009
 7126TIP3    H221343   5.045   0.465   0.909
 7127TIP3   OH221344   4.641   1.482   2.569
 7127TIP3    H121345   4.733   1.502   2.553
 7127TIP3    H221346   4.606   1.558   2.615
 7128TIP3   OH221347   0.249   3.043   0.945
 7128TIP3    H121348   0.251   3.135   0.918
 7128TIP3    H221349   0.276   2.995   0.867
 7129TIP3   OH221350   4.174   2.147   1.473
 7129TIP3    H121351   4.087   2.182   1.453
 7129TIP3    H221352   4.230   2.183   1.403
 7130TIP3   OH221353   4.424   6.576   4.589
 7130TIP3    H121354   4.460   6.543   4.506
 7130TIP3    H221355   4.493   6.562   4.653
 7131TIP3   OH221356   6.375   0.904   2.034
 7131TIP3    H121357   6.389   0.991   2.072
 7131TIP3    H221358   6.425   0.906   1.952
 7132TIP3   OH221359   2.440   5.098   3.036
 7132TIP3    H121360   2.395   5.014   3.025
 7132TIP3    H221361   2.460   5.126   2.947
 7133TIP3   OH221362   3.000   2.275   4.747
 7133TIP3    H121363   2.909   2.283   4.717
 7133TIP3    H221364   3.049   2.252   4.669
 7134TIP3   OH221365   1.455   1.151   5.644
 7134TIP3    H121366   1.544   1.123   5.666
 7134TIP3    H221367   1.448   1.240   5.680
 7135TIP3   OH221368   0.935   0.975   4.795
 7135TIP3    H121369   0.931   0.880   4.800
 7135TIP3    H221370   1.028   0.996   4.811
 7136TIP3   OH221371   6.351   1.878   1.566
 7136TIP3    H121372   6.425   1.819   1.583
 7136TIP3    H221373   6.391   1.962   1.547
 7137TIP3   OH221374   5.681   0.214   3.624
 7137TIP3    H121375   5.766   0.257   3.630
 7137TIP3    H221376   5.651   0.205   3.714
 7138TIP3   OH221377   5.397   5.672   1.507
 7138TIP3    H121378   5.348   5.623   1.441
 7138TIP3    H221379   5.416   5.756   1.466
 7139TIP3   OH221380   5.253   1.777   0.561
 7139TIP3    H121381   5.269   1.690   0.598
 7139TIP3    H221382   5.302   1.837   0.618
 7140TIP3   OH221383   4.782   0.692   0.613
 7140TIP3    H121384   4.836   0.698   0.534
 7140TIP3    H221385   4.841   0.716   0.684
 7141TIP3   OH221386   4.036   5.422   3.128
 7141TIP3    H121387   4.092   5.371   3.187
 7141TIP3    H221388   3.998   5.357   3.070
 7142TIP3   OH221389   0.745   1.279   5.814
 7142TIP3    H121390   0.692   1.344   5.766
 7142TIP3    H221391   0.711   1.195   5.785
 7143TIP3   OH221392   3.275   5.844   1.265
 7143TIP3    H121393   3.193   5.799   1.243
 7143TIP3    H221394   3.314   5.790   1.333
 7144TIP3   OH221395   2.141   4.422   2.376
 7144TIP3    H121396   2.055   4.409   2.415
 7144TIP3    H221397   2.194   4.459   2.447
 7145TIP3   OH221398   1.452   4.521   2.351
 7145TIP3    H121399   1.432   4.536   2.443
 7145TIP3    H221400   1.547   4.516   2.347
 7146TIP3   OH221401   6.647   5.286   1.331
 7146TIP3    H121402   6.668   5.221   1.398
 7146TIP3    H221403   6.552   5.294   1.334
 7147TIP3   OH221404   3.931   3.494   2.393
 7147TIP3    H121405   3.944   3.541   2.475
 7147TIP3    H221406   4.009   3.439   2.384
 7148TIP3   OH221407   4.136   6.749   3.240
 7148TIP3    H121408   4.129   6.769   3.333
 7148TIP3    H221409   4.218   6.789   3.212
 7149TIP3   OH221410   6.541   4.334   5.671
 7149TIP3    H121411   6.550   4.377   5.756
 7149TIP3    H221412   6.587   4.392   5.610
 7150TIP3   OH221413   2.697   6.506   2.891
 7150TIP3    H121414   2.616   6.557   2.896
 7150TIP3    H221415   2.725   6.498   2.983
 7151TIP3   OH221416   4.523   6.596   1.248
 7151TIP3    H121417   4.509   6.670   1.307
 7151TIP3    H221418   4.618   6.580   1.252
 7152TIP3   OH221419   4.162   4.867   0.011
 7152TIP3    H121420   4.253   4.893  -0.004
 7152TIP3    H221421   4.116   4.950   0.023
 7153TIP3   OH221422   3.573   4.518   2.343
 7153TIP3    H121423   3.651   4.487   2.389
 7153TIP3    H221424   3.513   4.444   2.344
 7154TIP3   OH221425   6.400   1.886   4.116
 7154TIP3    H121426   6.324   1.903   4.061
 7154TIP3    H221427   6.420   1.793   4.102
 7155TIP3   OH221428   4.476   3.781   5.408
 7155TIP3    H121429   4.526   3.722   5.464
 7155TIP3    H221430   4.446   3.726   5.336
 7156TIP3   OH221431   3.106   1.988   4.605
 7156TIP3    H121432   3.110   1.900   4.642
 7156TIP3    H221433   3.012   2.008   4.601
 7157TIP3   OH221434   4.642   6.616   2.870
 7157TIP3    H121435   4.736   6.601   2.877
 7157TIP3    H221436   4.622   6.679   2.940
 7158TIP3   OH221437   0.603   2.716   4.347
 7158TIP3    H121438   0.672   2.776   4.318
 7158TIP3    H221439   0.648   2.632   4.360
 7159TIP3   OH221440   7.045   6.068   1.253
 7159TIP3    H121441   6.967   6.048   1.305
 7159TIP3    H221442   7.021   6.146   1.203
 7160TIP3   OH221443   2.054   6.016   2.205
 7160TIP3    H121444   2.135   5.964   2.203
 7160TIP3    H221445   2.008   5.992   2.125
 7161TIP3   OH221446   4.508   6.164   4.628
 7161TIP3    H121447   4.417   6.195   4.629
 7161TIP3    H221448   4.511   6.097   4.697
 7162TIP3   OH221449   5.751   6.701   3.595
 7162TIP3    H121450   5.782   6.611   3.599
 7162TIP3    H221451   5.690   6.708   3.669
 7163TIP3   OH221452   3.132   1.963   2.750
 7163TIP3    H121453   3.179   1.882   2.730
 7163TIP3    H221454   3.183   2.032   2.706
 7164TIP3   OH221455   5.813   2.306   1.828
 7164TIP3    H121456   5.818   2.397   1.800
 7164TIP3    H221457   5.902   2.273   1.821
 7165TIP3   OH221458   2.308   2.845   1.751
 7165TIP3    H121459   2.333   2.838   1.659
 7165TIP3    H221460   2.214   2.826   1.752
 7166TIP3   OH221461   0.713   2.466   4.310
 7166TIP3    H121462   0.641   2.449   4.249
 7166TIP3    H221463   0.792   2.448   4.260
 7167TIP3   OH221464   1.223   6.243   5.809
 7167TIP3    H121465   1.303   6.270   5.765
 7167TIP3    H221466   1.154   6.259   5.745
 7168TIP3   OH221467   2.166   0.995   0.775
 7168TIP3    H121468   2.198   1.017   0.688
 7168TIP3    H221469   2.118   0.914   0.764
 7169TIP3   OH221470   7.154   1.446   0.761
 7169TIP3    H121471   7.135   1.530   0.804
 7169TIP3    H221472   7.067   1.409   0.744
 7170TIP3   OH221473   1.030   5.515   4.939
 7170TIP3    H121474   1.123   5.492   4.946
 7170TIP3    H221475   0.988   5.466   5.010
 7171TIP3   OH221476   0.190   4.708   4.253
 7171TIP3    H121477   0.225   4.666   4.175
 7171TIP3    H221478   0.095   4.701   4.245
 7172TIP3   OH221479   5.428   2.262   3.684
 7172TIP3    H121480   5.380   2.320   3.625
 7172TIP3    H221481   5.511   2.307   3.700
 7173TIP3   OH221482   4.244   6.265   4.624
 7173TIP3    H121483   4.212   6.323   4.693
 7173TIP3    H221484   4.223   6.311   4.543
 7174TIP3   OH221485   5.903   0.242   5.251
 7174TIP3    H121486   5.904   0.328   5.293
 7174TIP3    H221487   5.894   0.180   5.324
 7175TIP3   OH221488   2.878   5.502   4.642
 7175TIP3    H121489   2.786   5.491   4.616
 7175TIP3    H221490   2.875   5.562   4.716
 7176TIP3   OH221491   0.862   5.715   2.669
 7176TIP3    H121492   0.876   5.644   2.606
 7176TIP3    H221493   0.864   5.795   2.616
 7177TIP3   OH221494   6.980   3.911   3.367
 7177TIP3    H121495   7.019   3.920   3.280
 7177TIP3    H221496   6.973   3.816   3.380
 7178TIP3   OH221497   2.409   6.555   2.148
 7178TIP3    H121498   2.325   6.600   2.157
 7178TIP3    H221499   2.395   6.469   2.187
 7179TIP3   OH221500   3.518   6.123   5.016
 7179TIP3    H121501   3.548   6.155   4.931
 7179TIP3    H221502   3.497   6.031   5.000
 7180TIP3   OH221503   0.413   1.404   0.260
 7180TIP3    H121504   0.419   1.447   0.175
 7180TIP3    H221505   0.353   1.332   0.247
 7181TIP3   OH221506   1.883   0.433   2.404
 7181TIP3    H121507   1.790   0.409   2.410
 7181TIP3    H221508   1.922   0.398   2.485
 7182TIP3   OH221509   2.704   4.854   4.594
 7182TIP3    H121510   2.789   4.809   4.600
 7182TIP3    H221511   2.647   4.792   4.551
 7183TIP3   OH221512   1.219   2.427   5.458
 7183TIP3    H121513   1.307   2.403   5.485
 7183TIP3    H221514   1.166   2.349   5.474
 7184TIP3   OH221515   4.606   3.048   0.942
 7184TIP3    H121516   4.655   2.996   1.005
 7184TIP3    H221517   4.593   2.989   0.868
 7185TIP3   OH221518   4.090   3.199   2.307
 7185TIP3    H121519   4.093   3.202   2.402
 7185TIP3    H221520   4.180   3.178   2.281
 7186TIP3   OH221521   2.364   3.565   1.494
 7186TIP3    H121522   2.416   3.554   1.573
 7186TIP3    H221523   2.400   3.642   1.451
 7187TIP3   OH221524   5.174   0.760   1.285
 7187TIP3    H121525   5.167   0.806   1.369
 7187TIP3    H221526   5.260   0.718   1.288
 7188TIP3   OH221527   5.374   4.163   0.431
 7188TIP3    H121528   5.324   4.103   0.485
 7188TIP3    H221529   5.377   4.244   0.482
 7189TIP3   OH221530   4.258   6.468   3.984
 7189TIP3    H121531   4.214   6.386   4.006
 7189TIP3    H221532   4.276   6.509   4.068
 7190TIP3   OH221533   1.289   2.360   3.347
 7190TIP3    H121534   1.235   2.367   3.426
 7190TIP3    H221535   1.248   2.291   3.295
 7191TIP3   OH221536   4.209   3.573   4.940
 7191TIP3    H121537   4.122   3.576   4.900
 7191TIP3    H221538   4.260   3.637   4.891
 7192TIP3   OH221539   3.612   4.307   3.765
 7192TIP3    H121540   3.614   4.223   3.810
 7192TIP3    H221541   3.533   4.350   3.798
 7193TIP3   OH221542   2.195   6.304   1.902
 7193TIP3    H121543   2.200   6.209   1.888
 7193TIP3    H221544   2.278   6.326   1.944
 7194TIP3   OH221545   5.796   4.022   5.707
 7194TIP3    H121546   5.846   3.944   5.685
 7194TIP3    H221547   5.795   4.024   5.803
 7195TIP3   OH221548   6.063   1.559   2.142
 7195TIP3    H121549   6.036   1.467   2.144
 7195TIP3    H221550   5.982   1.608   2.158
 7196TIP3   OH221551   6.110   5.442   1.814
 7196TIP3    H121552   6.092   5.364   1.762
 7196TIP3    H221553   6.120   5.410   1.904
 7197TIP3   OH221554   2.706   0.168   3.591
 7197TIP3    H121555   2.630   0.158   3.648
 7197TIP3    H221556   2.683   0.238   3.531
 7198TIP3   OH221557   6.720   1.455   5.566
 7198TIP3    H121558   6.770   1.485   5.490
 7198TIP3    H221559   6.787   1.441   5.634
 7199TIP3   OH221560   0.092   1.337   4.111
 7199TIP3    H121561   0.011   1.388   4.111
 7199TIP3    H221562   0.115   1.329   4.018
 7200TIP3   OH221563   4.066   6.714   3.838
 7200TIP3    H121564   4.069   6.619   3.823
 7200TIP3    H221565   3.987   6.743   3.793
 7201TIP3   OH221566   6.672   5.118   5.461
 7201TIP3    H121567   6.758   5.076   5.465
 7201TIP3    H221568   6.622   5.067   5.398
 7202TIP3   OH221569   6.314   6.164   0.903
 7202TIP3    H121570   6.251   6.215   0.954
 7202TIP3    H221571   6.316   6.208   0.817
 7203TIP3   OH221572   2.412   5.957   2.963
 7203TIP3    H121573   2.461   5.878   2.988
 7203TIP3    H221574   2.332   5.923   2.921
 7204TIP3   OH221575   7.057   0.299   5.531
 7204TIP3    H121576   7.061   0.225   5.592
 7204TIP3    H221577   7.019   0.370   5.583
 7205TIP3   OH221578   0.262   5.491   0.935
 7205TIP3    H121579   0.326   5.444   0.988
 7205TIP3    H221580   0.285   5.583   0.946
 7206TIP3   OH221581   4.950   6.043   3.493
 7206TIP3    H121582   4.962   5.948   3.489
 7206TIP3    H221583   4.862   6.055   3.529
 7207TIP3   OH221584   5.253   2.981   2.545
 7207TIP3    H121585   5.288   2.902   2.504
 7207TIP3    H221586   5.301   2.988   2.628
 7208TIP3   OH221587   5.870   1.998   3.689
 7208TIP3    H121588   5.854   2.087   3.656
 7208TIP3    H221589   5.919   2.010   3.770
 7209TIP3   OH221590   2.970   4.815   5.399
 7209TIP3    H121591   3.065   4.810   5.384
 7209TIP3    H221592   2.957   4.773   5.483
 7210TIP3   OH221593   5.624   2.651   2.651
 7210TIP3    H121594   5.639   2.558   2.632
 7210TIP3    H221595   5.650   2.696   2.571
 7211TIP3   OH221596   6.346   2.082   3.302
 7211TIP3    H121597   6.366   2.067   3.395
 7211TIP3    H221598   6.255   2.111   3.301
 7212TIP3   OH221599   2.879   1.054   3.920
 7212TIP3    H121600   2.939   1.027   3.850
 7212TIP3    H221601   2.917   1.016   4.000
 7213TIP3   OH221602   2.252   3.205   2.467
 7213TIP3    H121603   2.227   3.282   2.416
 7213TIP3    H221604   2.347   3.212   2.474
 7214TIP3   OH221605   2.359   0.386   2.025
 7214TIP3    H121606   2.344   0.295   2.047
 7214TIP3    H221607   2.387   0.427   2.107
 7215TIP3   OH221608   2.313   4.625   2.864
 7215TIP3    H121609   2.302   4.600   2.956
 7215TIP3    H221610   2.404   4.655   2.858
 7216TIP3   OH221611   0.750   0.979   0.082
 7216TIP3    H121612   0.724   0.984   0.174
 7216TIP3    H221613   0.676   1.017   0.035
 7217TIP3   OH221614   4.162   1.707   2.930
 7217TIP3    H121615   4.182   1.799   2.913
 7217TIP3    H221616   4.162   1.699   3.026
 7218TIP3   OH221617   3.161   4.200   4.875
 7218TIP3    H121618   3.156   4.235   4.963
 7218TIP3    H221619   3.241   4.238   4.838
 7219TIP3   OH221620   5.700   5.532   2.551
 7219TIP3    H121621   5.709   5.626   2.567
 7219TIP3    H221622   5.759   5.491   2.614
 7220TIP3   OH221623   1.272   1.615   3.348
 7220TIP3    H121624   1.357   1.583   3.315
 7220TIP3    H221625   1.219   1.536   3.356
 7221TIP3   OH221626   6.680   1.288   4.887
 7221TIP3    H121627   6.761   1.331   4.860
 7221TIP3    H221628   6.703   1.240   4.966
 7222TIP3   OH221629   5.949   3.235   2.663
 7222TIP3    H121630   5.959   3.263   2.572
 7222TIP3    H221631   6.013   3.165   2.675
 7223TIP3   OH221632   4.273   6.803   4.352
 7223TIP3    H121633   4.331   6.840   4.419
 7223TIP3    H221634   4.203   6.867   4.343
 7224TIP3   OH221635   6.388   1.039   0.464
 7224TIP3    H121636   6.469   1.017   0.418
 7224TIP3    H221637   6.326   0.972   0.437
 7225TIP3   OH221638   1.755   2.086   3.411
 7225TIP3    H121639   1.763   2.011   3.470
 7225TIP3    H221640   1.661   2.102   3.405
 7226TIP3   OH221641   0.441   6.531   0.608
 7226TIP3    H121642   0.347   6.548   0.599
 7226TIP3    H221643   0.471   6.519   0.518
 7227TIP3   OH221644   1.616   0.883   5.874
 7227TIP3    H121645   1.644   0.975   5.874
 7227TIP3    H221646   1.684   0.837   5.826
 7228TIP3   OH221647   7.098   3.960   2.342
 7228TIP3    H121648   7.043   3.928   2.271
 7228TIP3    H221649   7.156   3.887   2.363
 7229TIP3   OH221650   2.510   1.733   0.702
 7229TIP3    H121651   2.593   1.723   0.748
 7229TIP3    H221652   2.478   1.819   0.729
 7230TIP3   OH221653   4.816   2.782   4.200
 7230TIP3    H121654   4.770   2.834   4.266
 7230TIP3    H221655   4.778   2.811   4.117
 7231TIP3   OH221656   6.443   1.967   4.361
 7231TIP3    H121657   6.432   1.940   4.269
 7231TIP3    H221658   6.444   2.063   4.357
 7232TIP3   OH221659   3.119   3.676   3.409
 7232TIP3    H121660   3.162   3.747   3.361
 7232TIP3    H221661   3.032   3.709   3.429
 7233TIP3   OH221662   4.225   1.138   4.795
 7233TIP3    H121663   4.132   1.157   4.787
 7233TIP3    H221664   4.228   1.051   4.836
 7234TIP3   OH221665   0.276   4.044   5.072
 7234TIP3    H121666   0.334   4.060   5.147
 7234TIP3    H221667   0.335   4.015   5.002
 7235TIP3   OH221668   4.797   3.495   2.987
 7235TIP3    H121669   4.827   3.576   3.028
 7235TIP3    H221670   4.707   3.513   2.960
 7236TIP3   OH221671   1.719   6.207   5.325
 7236TIP3    H121672   1.767   6.266   5.383
 7236TIP3    H221673   1.641   6.183   5.375
 7237TIP3   OH221674   0.371   6.274   0.996
 7237TIP3    H121675   0.294   6.284   0.940
 7237TIP3    H221676   0.435   6.336   0.960
 7238TIP3   OH221677   5.638   0.114   1.414
 7238TIP3    H121678   5.710   0.051   1.412
 7238TIP3    H221679   5.676   0.195   1.379
 7239TIP3   OH221680   6.675   5.884   1.402
 7239TIP3    H121681   6.595   5.920   1.441
 7239TIP3    H221682   6.645   5.838   1.324
 7240TIP3   OH221683   5.453   4.446   5.292
 7240TIP3    H121684   5.407   4.526   5.320
 7240TIP3    H221685   5.431   4.382   5.359
 7241TIP3   OH221686   6.920   5.671   4.370
 7241TIP3    H121687   7.001   5.707   4.334
 7241TIP3    H221688   6.856   5.680   4.300
 7242TIP3   OH221689   0.020   5.365   1.016
 7242TIP3    H121690  -0.034   5.442   1.031
 7242TIP3    H221691   0.101   5.399   0.978
 7243TIP3   OH221692   6.898   3.623   5.771
 7243TIP3    H121693   6.952   3.546   5.755
 7243TIP3    H221694   6.848   3.634   5.690
 7244TIP3   OH221695   4.153   5.337   1.241
 7244TIP3    H121696   4.166   5.245   1.219
 7244TIP3    H221697   4.061   5.353   1.222
 7245TIP3   OH221698   5.429   4.102   3.419
 7245TIP3    H121699   5.445   4.015   3.382
 7245TIP3    H221700   5.474   4.162   3.358
 7246TIP3   OH221701   5.638   6.402   0.443
 7246TIP3    H121702   5.564   6.440   0.490
 7246TIP3    H221703   5.693   6.363   0.511
 7247TIP3   OH221704   5.939   6.479   2.400
 7247TIP3    H121705   5.870   6.518   2.348
 7247TIP3    H221706   5.942   6.532   2.480
 7248TIP3   OH221707   6.025   2.629   0.679
 7248TIP3    H121708   6.028   2.566   0.751
 7248TIP3    H221709   5.933   2.635   0.655
 7249TIP3   OH221710   5.818   4.213   4.985
 7249TIP3    H121711   5.771   4.278   5.037
 7249TIP3    H221712   5.829   4.254   4.899
 7250TIP3   OH221713   3.239   5.865   0.676
 7250TIP3    H121714   3.283   5.808   0.739
 7250TIP3    H221715   3.153   5.825   0.664
 7251TIP3   OH221716   2.300   4.513   0.251
 7251TIP3    H121717   2.264   4.551   0.331
 7251TIP3    H221718   2.278   4.577   0.183
 7252TIP3   OH221719   0.648   0.944   5.202
 7252TIP3    H121720   0.731   0.980   5.170
 7252TIP3    H221721   0.673   0.873   5.261
 7253TIP3   OH221722   2.657   2.460   3.547
 7253TIP3    H121723   2.716   2.518   3.597
 7253TIP3    H221724   2.570   2.491   3.570
 7254TIP3   OH221725   3.133   4.144   1.850
 7254TIP3    H121726   3.083   4.198   1.912
 7254TIP3    H221727   3.071   4.076   1.823
 7255TIP3   OH221728   4.082   0.978   5.695
 7255TIP3    H121729   3.988   0.990   5.694
 7255TIP3    H221730   4.118   1.063   5.672
 7256TIP3   OH221731   2.370   0.024   0.316
 7256TIP3    H121732   2.330   0.059   0.396
 7256TIP3    H221733   2.439  -0.034   0.347
 7257TIP3   OH221734   3.989   3.559   0.566
 7257TIP3    H121735   3.950   3.623   0.506
 7257TIP3    H221736   4.083   3.568   0.552
 7258TIP3   OH221737   3.241   0.818   0.924
 7258TIP3    H121738   3.217   0.830   0.832
 7258TIP3    H221739   3.334   0.838   0.928
 7259TIP3   OH221740   5.734   1.419   5.530
 7259TIP3    H121741   5.673   1.424   5.604
 7259TIP3    H221742   5.759   1.510   5.514
 7260TIP3   OH221743   2.012   3.715   2.803
 7260TIP3    H121744   1.931   3.766   2.798
 7260TIP3    H221745   1.983   3.624   2.811
 7261TIP3   OH221746   2.220   3.915   2.198
 7261TIP3    H121747   2.207   3.945   2.108
 7261TIP3    H221748   2.190   3.988   2.252
 7262TIP3   OH221749   1.497   4.827   4.144
 7262TIP3    H121750   1.508   4.735   4.169
 7262TIP3    H221751   1.534   4.833   4.056
 7263TIP3   OH221752   3.372   4.749   3.756
 7263TIP3    H121753   3.299   4.789   3.709
 7263TIP3    H221754   3.348   4.656   3.765
 7264TIP3   OH221755   0.802   3.056   1.801
 7264TIP3    H121756   0.770   2.980   1.753
 7264TIP3    H221757   0.790   3.032   1.893
 7265TIP3   OH221758   6.083   2.181   2.155
 7265TIP3    H121759   6.177   2.159   2.151
 7265TIP3    H221760   6.052   2.140   2.236
 7266TIP3   OH221761   5.194   3.025   5.814
 7266TIP3    H121762   5.211   3.011   5.721
 7266TIP3    H221763   5.104   3.058   5.817
 7267TIP3   OH221764   6.291   0.244   5.851
 7267TIP3    H121765   6.213   0.296   5.836
 7267TIP3    H221766   6.282   0.213   5.941
 7268TIP3   OH221767   3.057   0.514   4.083
 7268TIP3    H121768   3.026   0.520   4.173
 7268TIP3    H221769   2.978   0.527   4.030
 7269TIP3   OH221770   5.008   1.875   3.980
 7269TIP3    H121771   4.974   1.958   3.948
 7269TIP3    H221772   5.008   1.884   4.075
 7270TIP3   OH221773   3.398   3.253   1.418
 7270TIP3    H121774   3.422   3.336   1.377
 7270TIP3    H221775   3.432   3.186   1.359
 7271TIP3   OH221776   7.087   6.300   0.185
 7271TIP3    H121777   7.021   6.318   0.118
 7271TIP3    H221778   7.051   6.228   0.235
 7272TIP3   OH221779   3.375   4.097   5.018
 7272TIP3    H121780   3.329   4.180   5.030
 7272TIP3    H221781   3.416   4.105   4.932
 7273TIP3   OH221782   3.491   2.889   3.453
 7273TIP3    H121783   3.515   2.814   3.507
 7273TIP3    H221784   3.523   2.965   3.500
 7274TIP3   OH221785   5.467   3.261   1.286
 7274TIP3    H121786   5.458   3.250   1.192
 7274TIP3    H221787   5.437   3.178   1.323
 7275TIP3   OH221788   0.797   6.446   1.382
 7275TIP3    H121789   0.789   6.354   1.408
 7275TIP3    H221790   0.813   6.493   1.464
 7276TIP3   OH221791   1.738   5.114   4.740
 7276TIP3    H121792   1.701   5.049   4.799
 7276TIP3    H221793   1.715   5.199   4.779
 7277TIP3   OH221794   0.742   6.481   3.551
 7277TIP3    H121795   0.805   6.467   3.622
 7277TIP3    H221796   0.768   6.418   3.483
 7278TIP3   OH221797   0.650   4.767   5.645
 7278TIP3    H121798   0.581   4.726   5.593
 7278TIP3    H221799   0.704   4.693   5.674
 7279TIP3   OH221800   4.464   0.530   2.015
 7279TIP3    H121801   4.446   0.437   2.030
 7279TIP3    H221802   4.514   0.532   1.934
 7280TIP3   OH221803   0.698   2.523   1.329
 7280TIP3    H121804   0.734   2.551   1.413
 7280TIP3    H221805   0.620   2.576   1.318
 7281TIP3   OH221806   0.271   1.321   2.076
 7281TIP3    H121807   0.197   1.378   2.097
 7281TIP3    H221808   0.328   1.327   2.152
 7282TIP3   OH221809   4.656   3.931   4.340
 7282TIP3    H121810   4.619   4.018   4.354
 7282TIP3    H221811   4.669   3.925   4.245
 7283TIP3   OH221812   2.194   4.631  -0.024
 7283TIP3    H121813   2.278   4.673  -0.040
 7283TIP3    H221814   2.131   4.681  -0.077
 7284TIP3   OH221815   4.446   3.990   4.780
 7284TIP3    H121816   4.384   3.992   4.707
 7284TIP3    H221817   4.446   4.079   4.814
 7285TIP3   OH221818   1.634   4.457   4.981
 7285TIP3    H121819   1.566   4.500   4.928
 7285TIP3    H221820   1.652   4.375   4.934
 7286TIP3   OH221821   2.903   3.768   3.954
 7286TIP3    H121822   2.931   3.677   3.942
 7286TIP3    H221823   2.974   3.820   3.916
 7287TIP3   OH221824   2.409   2.736   0.462
 7287TIP3    H121825   2.364   2.653   0.446
 7287TIP3    H221826   2.358   2.800   0.413
 7288TIP3   OH221827   3.929   5.978   2.618
 7288TIP3    H121828   3.887   6.019   2.693
 7288TIP3    H221829   3.884   6.014   2.542
 7289TIP3   OH221830   4.329   3.041   4.596
 7289TIP3    H121831   4.422   3.020   4.586
 7289TIP3    H221832   4.314   3.038   4.691
 7290TIP3   OH221833   6.799   4.841   0.760
 7290TIP3    H121834   6.820   4.788   0.837
 7290TIP3    H221835   6.746   4.784   0.705
 7291TIP3   OH221836   0.843   4.437   1.267
 7291TIP3    H121837   0.832   4.511   1.327
 7291TIP3    H221838   0.758   4.394   1.267
 7292TIP3   OH221839   1.804   5.756   2.163
 7292TIP3    H121840   1.859   5.682   2.135
 7292TIP3    H221841   1.814   5.821   2.093
 7293TIP3   OH221842   3.575   1.802   2.361
 7293TIP3    H121843   3.640   1.801   2.291
 7293TIP3    H221844   3.491   1.797   2.316
 7294TIP3   OH221845   1.796   5.548   3.424
 7294TIP3    H121846   1.766   5.505   3.344
 7294TIP3    H221847   1.769   5.488   3.494
 7295TIP3   OH221848   3.691   5.839   1.815
 7295TIP3    H121849   3.751   5.807   1.882
 7295TIP3    H221850   3.727   5.807   1.733
 7296TIP3   OH221851   0.744   2.613   1.065
 7296TIP3    H121852   0.830   2.654   1.058
 7296TIP3    H221853   0.737   2.585   1.156
 7297TIP3   OH221854   6.685   1.480   2.140
 7297TIP3    H121855   6.668   1.514   2.228
 7297TIP3    H221856   6.614   1.515   2.086
 7298TIP3   OH221857   3.915   2.794   3.568
 7298TIP3    H121858   3.983   2.827   3.626
 7298TIP3    H221859   3.945   2.815   3.480
 7299TIP3   OH221860   0.656   5.003   5.489
 7299TIP3    H121861   0.655   4.924   5.542
 7299TIP3    H221862   0.746   5.034   5.494
 7300TIP3   OH221863   0.457   2.036   4.158
 7300TIP3    H121864   0.436   2.114   4.208
 7300TIP3    H221865   0.483   2.069   4.072
 7301TIP3   OH221866   1.736   2.734   0.565
 7301TIP3    H121867   1.704   2.725   0.476
 7301TIP3    H221868   1.734   2.828   0.582
 7302TIP3   OH221869   7.158   3.456   3.202
 7302TIP3    H121870   7.233   3.514   3.197
 7302TIP3    H221871   7.151   3.419   3.114
 7303TIP3   OH221872   3.120   0.514   0.322
 7303TIP3    H121873   3.111   0.427   0.361
 7303TIP3    H221874   3.033   0.534   0.288
 7304TIP3   OH221875   4.943   0.086   5.338
 7304TIP3    H121876   4.952   0.109   5.430
 7304TIP3    H221877   4.849   0.070   5.326
 7305TIP3   OH221878   1.215   5.837   3.195
 7305TIP3    H121879   1.203   5.899   3.123
 7305TIP3    H221880   1.286   5.873   3.247
 7306TIP3   OH221881   2.358   1.712   1.111
 7306TIP3    H121882   2.290   1.676   1.168
 7306TIP3    H221883   2.391   1.636   1.063
 7307TIP3   OH221884   3.846   0.284   4.526
 7307TIP3    H121885   3.904   0.245   4.461
 7307TIP3    H221886   3.758   0.271   4.490
 7308TIP3   OH221887   1.460   1.529   3.912
 7308TIP3    H121888   1.442   1.444   3.952
 7308TIP3    H221889   1.463   1.590   3.986
 7309TIP3   OH221890   3.559   4.655   5.485
 7309TIP3    H121891   3.498   4.599   5.533
 7309TIP3    H221892   3.507   4.732   5.461
 7310TIP3   OH221893   3.405   6.463   2.021
 7310TIP3    H121894   3.421   6.492   2.110
 7310TIP3    H221895   3.396   6.368   2.028
 7311TIP3   OH221896   0.719   2.981   1.230
 7311TIP3    H121897   0.633   2.951   1.198
 7311TIP3    H221898   0.780   2.952   1.162
 7312TIP3   OH221899   2.733   3.253   2.714
 7312TIP3    H121900   2.776   3.172   2.687
 7312TIP3    H221901   2.686   3.230   2.794
 7313TIP3   OH221902   2.504   0.115   4.533
 7313TIP3    H121903   2.521   0.148   4.445
 7313TIP3    H221904   2.582   0.138   4.583
 7314TIP3   OH221905   1.912   1.350   0.081
 7314TIP3    H121906   1.910   1.443   0.056
 7314TIP3    H221907   1.951   1.306   0.005
 7315TIP3   OH221908   2.523   2.334   4.127
 7315TIP3    H121909   2.557   2.291   4.205
 7315TIP3    H221910   2.483   2.264   4.076
 7316TIP3   OH221911   2.521   0.964   4.412
 7316TIP3    H121912   2.438   0.959   4.366
 7316TIP3    H221913   2.525   1.053   4.445
 7317TIP3   OH221914   4.622   0.575   5.642
 7317TIP3    H121915   4.573   0.501   5.605
 7317TIP3    H221916   4.554   0.638   5.666
 7318TIP3   OH221917   5.877   2.120   0.262
 7318TIP3    H121918   5.810   2.053   0.274
 7318TIP3    H221919   5.832   2.192   0.219
 7319TIP3   OH221920   0.434   4.527   5.745
 7319TIP3    H121921   0.365   4.513   5.681
 7319TIP3    H221922   0.400   4.490   5.827
 7320TIP3   OH221923   6.060   4.270   2.846
 7320TIP3    H121924   6.143   4.243   2.806
 7320TIP3    H221925   6.060   4.228   2.932
 7321TIP3   OH221926   3.680   3.295   2.765
 7321TIP3    H121927   3.635   3.378   2.748
 7321TIP3    H221928   3.648   3.236   2.697
 7322TIP3   OH221929   5.951   0.561   0.105
 7322TIP3    H121930   6.033   0.538   0.149
 7322TIP3    H221931   5.883   0.522   0.161
 7323TIP3   OH221932   4.312   5.872   3.832
 7323TIP3    H121933   4.379   5.851   3.767
 7323TIP3    H221934   4.353   5.852   3.916
 7324TIP3   OH221935   4.926   6.563   2.881
 7324TIP3    H121936   4.994   6.589   2.943
 7324TIP3    H221937   4.933   6.468   2.876
 7325TIP3   OH221938   5.294   5.338   4.033
 7325TIP3    H121939   5.253   5.366   3.951
 7325TIP3    H221940   5.246   5.259   4.058
 7326TIP3   OH221941   4.223   5.327   5.822
 7326TIP3    H121942   4.172   5.312   5.901
 7326TIP3    H221943   4.314   5.321   5.851
 7327TIP3   OH221944   4.211   0.349   1.051
 7327TIP3    H121945   4.273   0.323   0.983
 7327TIP3    H221946   4.145   0.280   1.051
 7328TIP3   OH221947   4.316   2.392   0.606
 7328TIP3    H121948   4.282   2.457   0.544
 7328TIP3    H221949   4.320   2.438   0.690
 7329TIP3   OH221950   1.757   2.636   2.238
 7329TIP3    H121951   1.667   2.635   2.203
 7329TIP3    H221952   1.752   2.694   2.314
 7330TIP3   OH221953   0.685   1.335   3.157
 7330TIP3    H121954   0.679   1.348   3.063
 7330TIP3    H221955   0.658   1.244   3.171
 7331TIP3   OH221956   1.271   5.540   0.823
 7331TIP3    H121957   1.220   5.556   0.744
 7331TIP3    H221958   1.207   5.544   0.894
 7332TIP3   OH221959   1.886   0.264   0.265
 7332TIP3    H121960   1.800   0.259   0.308
 7332TIP3    H221961   1.918   0.351   0.285
 7333TIP3   OH221962   1.640   3.218   0.769
 7333TIP3    H121963   1.639   3.312   0.784
 7333TIP3    H221964   1.731   3.192   0.782
 7334TIP3   OH221965   4.458   1.602   2.138
 7334TIP3    H121966   4.465   1.666   2.209
 7334TIP3    H221967   4.389   1.638   2.081
 7335TIP3   OH221968   5.728   0.053   0.420
 7335TIP3    H121969   5.700   0.124   0.362
 7335TIP3    H221970   5.817   0.033   0.392
 7336TIP3   OH221971   3.068   5.765   1.101
 7336TIP3    H121972   3.013   5.820   1.045
 7336TIP3    H221973   3.045   5.675   1.077
 7337TIP3   OH221974   0.339   0.502   2.977
 7337TIP3    H121975   0.249   0.526   2.955
 7337TIP3    H221976   0.380   0.485   2.892
 7338TIP3   OH221977   5.952   6.639   2.036
 7338TIP3    H121978   6.047   6.636   2.022
 7338TIP3    H221979   5.915   6.638   1.947
 7339TIP3   OH221980   4.818   3.993   5.747
 7339TIP3    H121981   4.887   4.053   5.719
 7339TIP3    H221982   4.775   3.966   5.666
 7340TIP3   OH221983   6.425   1.212   0.171
 7340TIP3    H121984   6.371   1.290   0.175
 7340TIP3    H221985   6.398   1.167   0.091
 7341TIP3   OH221986   5.767   3.581   3.448
 7341TIP3    H121987   5.681   3.555   3.482
 7341TIP3    H221988   5.761   3.677   3.439
 7342TIP3   OH221989   5.994   6.338   2.115
 7342TIP3    H121990   5.940   6.398   2.165
 7342TIP3    H221991   6.043   6.288   2.180
 7343TIP3   OH221992   1.333   2.645   0.863
 7343TIP3    H121993   1.388   2.636   0.786
 7343TIP3    H221994   1.243   2.645   0.829
 7344TIP3   OH221995   0.380   0.361   1.967
 7344TIP3    H121996   0.432   0.283   1.986
 7344TIP3    H221997   0.444   0.430   1.949
 7345TIP3   OH221998   1.465   5.554   3.585
 7345TIP3    H121999   1.527   5.484   3.607
 7345TIP3    H222000   1.496   5.588   3.501
 7346TIP3   OH222001   1.002   1.352   1.770
 7346TIP3    H122002   0.985   1.318   1.683
 7346TIP3    H222003   0.921   1.334   1.819
 7347TIP3   OH222004   0.601   3.109   0.613
 7347TIP3    H122005   0.670   3.174   0.627
 7347TIP3    H222006   0.521   3.152   0.644
 7348TIP3   OH222007   2.831   5.497   2.515
 7348TIP3    H122008   2.809   5.558   2.444
 7348TIP3    H222009   2.753   5.442   2.525
 7349TIP3   OH222010   2.091   1.610   3.268
 7349TIP3    H122011   2.167   1.583   3.217
 7349TIP3    H222012   2.027   1.539   3.257
 7350TIP3   OH222013   3.027   2.957   1.406
 7350TIP3    H122014   2.942   2.915   1.399
 7350TIP3    H222015   3.064   2.922   1.487
 7351TIP3   OH222016   1.625   0.593   3.736
 7351TIP3    H122017   1.687   0.524   3.759
 7351TIP3    H222018   1.582   0.561   3.656
 7352TIP3   OH222019   1.637   5.067   1.646
 7352TIP3    H122020   1.569   5.106   1.702
 7352TIP3    H222021   1.597   5.065   1.559
 7353TIP3   OH222022   4.319   4.206   4.232
 7353TIP3    H122023   4.410   4.190   4.208
 7353TIP3    H222024   4.324   4.267   4.306
 7354TIP3   OH222025   6.053   0.684   3.537
 7354TIP3    H122026   6.071   0.590   3.530
 7354TIP3    H222027   6.114   0.714   3.605
 7355TIP3   OH222028   4.550   3.498   0.481
 7355TIP3    H122029   4.464   3.535   0.499
 7355TIP3    H222030   4.603   3.520   0.558
 7356TIP3   OH222031   1.022   3.888   5.336
 7356TIP3    H122032   1.103   3.843   5.359
 7356TIP3    H222033   1.029   3.904   5.242
 7357TIP3   OH222034   6.014   2.369   5.214
 7357TIP3    H122035   5.969   2.286   5.228
 7357TIP3    H222036   6.084   2.371   5.279
 7358TIP3   OH222037   1.541   0.317   1.522
 7358TIP3    H122038   1.554   0.387   1.585
 7358TIP3    H222039   1.527   0.362   1.439
 7359TIP3   OH222040   5.773   1.542   3.196
 7359TIP3    H122041   5.823   1.543   3.114
 7359TIP3    H222042   5.823   1.485   3.254
 7360TIP3   OH222043   6.276   6.469   0.422
 7360TIP3    H122044   6.186   6.491   0.444
 7360TIP3    H222045   6.329   6.540   0.460
 7361TIP3   OH222046   1.990   5.688   5.053
 7361TIP3    H122047   1.925   5.630   5.094
 7361TIP3    H222048   1.970   5.774   5.090
 7362TIP3   OH222049   1.485   1.422   1.283
 7362TIP3    H122050   1.514   1.334   1.307
 7362TIP3    H222051   1.390   1.421   1.298
 7363TIP3   OH222052   2.459   5.845   5.203
 7363TIP3    H122053   2.543   5.813   5.171
 7363TIP3    H222054   2.394   5.788   5.161
 7364TIP3   OH222055   4.253   2.448   2.332
 7364TIP3    H122056   4.304   2.529   2.337
 7364TIP3    H222057   4.289   2.393   2.402
 7365TIP3   OH222058   2.164   3.546   4.630
 7365TIP3    H122059   2.226   3.489   4.675
 7365TIP3    H222060   2.085   3.543   4.684
 7366TIP3   OH222061   4.680   1.679   5.958
 7366TIP3    H122062   4.589   1.709   5.947
 7366TIP3    H222063   4.681   1.591   5.920
 7367TIP3   OH222064   1.231   0.829   2.324
 7367TIP3    H122065   1.292   0.819   2.251
 7367TIP3    H222066   1.278   0.884   2.386
 7368TIP3   OH222067   0.421   1.657   5.557
 7368TIP3    H122068   0.454   1.700   5.479
 7368TIP3    H222069   0.346   1.606   5.527
 7369TIP3   OH222070   1.223   0.269   1.731
 7369TIP3    H122071   1.317   0.271   1.744
 7369TIP3    H222072   1.210   0.246   1.639
 7370TIP3   OH222073   1.262   3.524   2.180
 7370TIP3    H122074   1.201   3.496   2.248
 7370TIP3    H222075   1.301   3.604   2.215
 7371TIP3   OH222076   4.363   5.402   1.084
 7371TIP3    H122077   4.306   5.394   1.160
 7371TIP3    H222078   4.448   5.368   1.113
 7372TIP3   OH222079   0.366   6.585   4.246
 7372TIP3    H122080   0.278   6.603   4.281
 7372TIP3    H222081   0.384   6.659   4.188
 7373TIP3   OH222082   4.440   4.102   3.675
 7373TIP3    H122083   4.412   4.133   3.589
 7373TIP3    H222084   4.415   4.173   3.735
 7374TIP3   OH222085   4.693   3.536   5.817
 7374TIP3    H122086   4.762   3.601   5.803
 7374TIP3    H222087   4.619   3.587   5.851
 7375TIP3   OH222088   6.109   2.425   1.680
 7375TIP3    H122089   6.056   2.504   1.695
 7375TIP3    H222090   6.118   2.385   1.767
 7376TIP3   OH222091   5.533   5.317   3.873
 7376TIP3    H122092   5.496   5.306   3.786
 7376TIP3    H222093   5.457   5.326   3.931
 7377TIP3   OH222094   1.027   1.768   0.322
 7377TIP3    H122095   1.032   1.860   0.296
 7377TIP3    H222096   1.045   1.768   0.416
 7378TIP3   OH222097   0.354   6.564   5.194
 7378TIP3    H122098   0.293   6.578   5.121
 7378TIP3    H222099   0.304   6.512   5.256
 7379TIP3   OH222100   1.655   3.460   1.752
 7379TIP3    H122101   1.607   3.504   1.823
 7379TIP3    H222102   1.740   3.504   1.750
 7380TIP3   OH222103   5.523   4.671   0.592
 7380TIP3    H122104   5.434   4.692   0.564
 7380TIP3    H222105   5.571   4.656   0.511
 7381TIP3   OH222106   3.688   5.029   4.064
 7381TIP3    H122107   3.723   5.005   4.150
 7381TIP3    H222108   3.704   5.123   4.056
 7382TIP3   OH222109   4.217   0.322   1.331
 7382TIP3    H122110   4.223   0.413   1.360
 7382TIP3    H222111   4.217   0.328   1.235
 7383TIP3   OH222112   6.034   2.405   0.858
 7383TIP3    H122113   6.100   2.337   0.871
 7383TIP3    H222114   6.048   2.467   0.930
 7384TIP3   OH222115   6.917   4.236   2.420
 7384TIP3    H122116   6.855   4.213   2.489
 7384TIP3    H222117   7.003   4.231   2.463
 7385TIP3   OH222118   3.552   3.744   0.215
 7385TIP3    H122119   3.635   3.696   0.212
 7385TIP3    H222120   3.542   3.781   0.128
 7386TIP3   OH222121   5.600   6.214   0.252
 7386TIP3    H122122   5.565   6.158   0.322
 7386TIP3    H222123   5.598   6.303   0.289
 7387TIP3   OH222124   3.538   5.090   0.460
 7387TIP3    H122125   3.583   5.165   0.498
 7387TIP3    H222126   3.475   5.063   0.526
 7388TIP3   OH222127   2.262   5.861   2.136
 7388TIP3    H122128   2.259   5.785   2.077
 7388TIP3    H222129   2.313   5.831   2.210
 7389TIP3   OH222130   2.506   4.652   1.294
 7389TIP3    H122131   2.592   4.691   1.278
 7389TIP3    H222132   2.524   4.562   1.321
 7390TIP3   OH222133   2.439   1.210   2.636
 7390TIP3    H122134   2.530   1.228   2.658
 7390TIP3    H222135   2.432   1.115   2.637
 7391TIP3   OH222136   4.950   5.192   1.807
 7391TIP3    H122137   4.883   5.153   1.863
 7391TIP3    H222138   4.948   5.140   1.727
 7392TIP3   OH222139   2.220   2.801   5.223
 7392TIP3    H122140   2.130   2.780   5.248
 7392TIP3    H222141   2.212   2.876   5.164
 7393TIP3   OH222142   3.621   1.388   4.951
 7393TIP3    H122143   3.548   1.447   4.971
 7393TIP3    H222144   3.581   1.312   4.911
 7394TIP3   OH222145   6.809   6.098   2.240
 7394TIP3    H122146   6.787   6.017   2.286
 7394TIP3    H222147   6.831   6.070   2.151
 7395TIP3   OH222148   2.155   3.075   3.231
 7395TIP3    H122149   2.097   3.150   3.218
 7395TIP3    H222150   2.220   3.105   3.295
 7396TIP3   OH222151   2.559   5.668   4.943
 7396TIP3    H122152   2.524   5.639   4.859
 7396TIP3    H222153   2.483   5.673   5.001
 7397TIP3   OH222154   1.031   3.164   3.268
 7397TIP3    H122155   1.105   3.104   3.261
 7397TIP3    H222156   1.005   3.180   3.177
 7398TIP3   OH222157   1.432   5.576   2.683
 7398TIP3    H122158   1.514   5.541   2.648
 7398TIP3    H222159   1.431   5.667   2.654
 7399TIP3   OH222160   6.829   3.861   2.638
 7399TIP3    H122161   6.762   3.862   2.569
 7399TIP3    H222162   6.843   3.953   2.659
 7400TIP3   OH222163   6.167   3.447   1.318
 7400TIP3    H122164   6.093   3.387   1.331
 7400TIP3    H222165   6.134   3.532   1.347
 7401TIP3   OH222166   4.144   0.398   3.590
 7401TIP3    H122167   4.232   0.364   3.570
 7401TIP3    H222168   4.158   0.488   3.618
 7402TIP3   OH222169   2.534   1.208   5.178
 7402TIP3    H122170   2.558   1.228   5.269
 7402TIP3    H222171   2.608   1.157   5.145
 7403TIP3   OH222172   0.527   5.890   1.344
 7403TIP3    H122173   0.519   5.972   1.294
 7403TIP3    H222174   0.542   5.918   1.434
 7404TIP3   OH222175   6.462   5.505   4.933
 7404TIP3    H122176   6.393   5.463   4.881
 7404TIP3    H222177   6.542   5.493   4.882
 7405TIP3   OH222178   0.795   6.065   1.662
 7405TIP3    H122179   0.806   6.120   1.584
 7405TIP3    H222180   0.855   5.992   1.648
 7406TIP3   OH222181   3.443   2.940   2.624
 7406TIP3    H122182   3.438   2.972   2.714
 7406TIP3    H222183   3.476   2.851   2.632
 7407TIP3   OH222184   5.927   3.496   4.900
 7407TIP3    H122185   6.002   3.546   4.933
 7407TIP3    H222186   5.903   3.438   4.972
 7408TIP3   OH222187   5.877   1.803   5.826
 7408TIP3    H122188   5.957   1.808   5.879
 7408TIP3    H222189   5.836   1.721   5.852
 7409TIP3   OH222190   4.151   6.518   0.136
 7409TIP3    H122191   4.136   6.491   0.226
 7409TIP3    H222192   4.106   6.452   0.083
 7410TIP3   OH222193   4.782   1.222   0.957
 7410TIP3    H122194   4.831   1.234   0.876
 7410TIP3    H222195   4.696   1.190   0.929
 7411TIP3   OH222196   3.835   2.205   5.416
 7411TIP3    H122197   3.824   2.194   5.510
 7411TIP3    H222198   3.922   2.171   5.397
 7412TIP3   OH222199   3.758   1.775   2.138
 7412TIP3    H122200   3.772   1.681   2.129
 7412TIP3    H222201   3.834   1.815   2.096
 7413TIP3   OH222202   5.523   1.358   5.716
 7413TIP3    H122203   5.575   1.409   5.779
 7413TIP3    H222204   5.438   1.348   5.758
 7414TIP3   OH222205   4.029   5.840   1.332
 7414TIP3    H122206   3.977   5.898   1.387
 7414TIP3    H222207   4.064   5.775   1.393
 7415TIP3   OH222208   5.756   5.163   4.376
 7415TIP3    H122209   5.850   5.168   4.364
 7415TIP3    H222210   5.728   5.086   4.327
 7416TIP3   OH222211   6.910   5.843   1.546
 7416TIP3    H122212   6.834   5.896   1.523
 7416TIP3    H222213   6.912   5.774   1.479
 7417TIP3   OH222214   1.122   2.108   2.817
 7417TIP3    H122215   1.133   2.192   2.774
 7417TIP3    H222216   1.208   2.088   2.853
 7418TIP3   OH222217   4.043   5.334   1.551
 7418TIP3    H122218   4.002   5.279   1.618
 7418TIP3    H222219   3.995   5.315   1.471
 7419TIP3   OH222220   3.245   6.394   0.517
 7419TIP3    H122221   3.247   6.304   0.548
 7419TIP3    H222222   3.171   6.397   0.457
 7420TIP3   OH222223   4.058   2.904   1.364
 7420TIP3    H122224   4.077   2.816   1.398
 7420TIP3    H222225   3.981   2.892   1.308
 7421TIP3   OH222226   4.045   3.861   4.451
 7421TIP3    H122227   3.998   3.820   4.523
 7421TIP3    H222228   4.046   3.794   4.382
 7422TIP3   OH222229   6.831   1.008   0.324
 7422TIP3    H122230   6.833   1.103   0.328
 7422TIP3    H222231   6.755   0.988   0.269
 7423TIP3   OH222232   0.594   1.372   0.760
 7423TIP3    H122233   0.581   1.388   0.666
 7423TIP3    H222234   0.664   1.432   0.785
 7424TIP3   OH222235   0.623   0.035   4.882
 7424TIP3    H122236   0.703   0.084   4.906
 7424TIP3    H222237   0.653  -0.055   4.871
 7425TIP3   OH222238   1.290   4.421   2.165
 7425TIP3    H122239   1.339   4.469   2.231
 7425TIP3    H222240   1.226   4.484   2.132
 7426TIP3   OH222241   6.487   1.407   3.572
 7426TIP3    H122242   6.540   1.381   3.648
 7426TIP3    H222243   6.406   1.440   3.609
 7427TIP3   OH222244   2.680   2.689   0.474
 7427TIP3    H122245   2.723   2.775   0.470
 7427TIP3    H222246   2.586   2.709   0.472
 7428TIP3   OH222247   1.939   0.849   0.621
 7428TIP3    H122248   1.861   0.888   0.659
 7428TIP3    H222249   1.930   0.862   0.527
 7429TIP3   OH222250   5.321   6.743   0.880
 7429TIP3    H122251   5.365   6.669   0.923
 7429TIP3    H222252   5.277   6.704   0.805
 7430TIP3   OH222253   0.586   2.826   5.561
 7430TIP3    H122254   0.500   2.797   5.534
 7430TIP3    H222255   0.629   2.854   5.480
 7431TIP3   OH222256   1.853   0.498   4.124
 7431TIP3    H122257   1.827   0.548   4.201
 7431TIP3    H222258   1.912   0.430   4.158
 7432TIP3   OH222259   2.314   0.640   1.532
 7432TIP3    H122260   2.297   0.605   1.445
 7432TIP3    H222261   2.228   0.668   1.564
 7433TIP3   OH222262   6.786   5.698   3.299
 7433TIP3    H122263   6.745   5.623   3.256
 7433TIP3    H222264   6.794   5.764   3.231
 7434TIP3   OH222265   0.935   3.876   3.368
 7434TIP3    H122266   0.992   3.910   3.299
 7434TIP3    H222267   0.852   3.924   3.357
 7435TIP3   OH222268   0.769   2.253   1.564
 7435TIP3    H122269   0.816   2.295   1.637
 7435TIP3    H222270   0.832   2.253   1.492
 7436TIP3   OH222271   0.080   4.171   4.521
 7436TIP3    H122272  -0.009   4.137   4.527
 7436TIP3    H222273   0.118   4.125   4.446
 7437TIP3   OH222274   6.380   0.592   2.638
 7437TIP3    H122275   6.470   0.582   2.668
 7437TIP3    H222276   6.331   0.617   2.716
 7438TIP3   OH222277   3.005   3.710   2.837
 7438TIP3    H122278   3.003   3.652   2.914
 7438TIP3    H222279   2.913   3.716   2.810
 7439TIP3   OH222280   4.365   3.775   2.211
 7439TIP3    H122281   4.389   3.837   2.142
 7439TIP3    H222282   4.271   3.787   2.223
 7440TIP3   OH222283   6.403   2.030   3.577
 7440TIP3    H122284   6.371   2.103   3.629
 7440TIP3    H222285   6.392   1.954   3.633
 7441TIP3   OH222286   0.756   6.751   3.389
 7441TIP3    H122287   0.791   6.671   3.428
 7441TIP3    H222288   0.673   6.724   3.350
 7442TIP3   OH222289   2.885   1.128   0.549
 7442TIP3    H122290   2.976   1.110   0.572
 7442TIP3    H222291   2.888   1.154   0.457
 7443TIP3   OH222292   5.025   3.986   1.347
 7443TIP3    H122293   4.947   3.954   1.394
 7443TIP3    H222294   4.991   4.018   1.264
 7444TIP3   OH222295   2.499   3.002   2.375
 7444TIP3    H122296   2.410   2.975   2.349
 7444TIP3    H222297   2.528   2.932   2.433
 7445TIP3   OH222298   0.255   6.345   4.442
 7445TIP3    H122299   0.268   6.440   4.434
 7445TIP3    H222300   0.340   6.312   4.470
 7446TIP3   OH222301   3.912   0.544   4.050
 7446TIP3    H122302   3.972   0.569   3.980
 7446TIP3    H222303   3.962   0.485   4.105
 7447TIP3   OH222304   2.654   1.051   2.516
 7447TIP3    H122305   2.669   0.992   2.442
 7447TIP3    H222306   2.570   1.093   2.496
 7448TIP3   OH222307   5.578   5.016   0.900
 7448TIP3    H122308   5.611   4.927   0.888
 7448TIP3    H222309   5.559   5.047   0.811
 7449TIP3   OH222310   5.163   1.651   5.059
 7449TIP3    H122311   5.182   1.576   5.003
 7449TIP3    H222312   5.068   1.658   5.060
 7450TIP3   OH222313   0.717   0.344   3.685
 7450TIP3    H122314   0.743   0.252   3.692
 7450TIP3    H222315   0.788   0.385   3.636
 7451TIP3   OH222316   0.472   0.881   1.567
 7451TIP3    H122317   0.439   0.902   1.654
 7451TIP3    H222318   0.394   0.852   1.518
 7452TIP3   OH222319   5.758   4.418   2.260
 7452TIP3    H122320   5.799   4.348   2.210
 7452TIP3    H222321   5.675   4.434   2.214
 7453TIP3   OH222322   4.745   5.777   1.392
 7453TIP3    H122323   4.768   5.835   1.464
 7453TIP3    H222324   4.653   5.797   1.375
 7454TIP3   OH222325   3.203   0.640   1.154
 7454TIP3    H122326   3.190   0.553   1.117
 7454TIP3    H222327   3.214   0.697   1.078
 7455TIP3   OH222328   5.623   2.394   3.861
 7455TIP3    H122329   5.639   2.436   3.945
 7455TIP3    H222330   5.563   2.454   3.816
 7456TIP3   OH222331   4.164   0.839   1.495
 7456TIP3    H122332   4.188   0.877   1.579
 7456TIP3    H222333   4.076   0.873   1.477
 7457TIP3   OH222334   4.064   6.773   5.473
 7457TIP3    H122335   4.020   6.778   5.558
 7457TIP3    H222336   4.034   6.691   5.435
 7458TIP3   OH222337   6.197   2.666   2.926
 7458TIP3    H122338   6.252   2.621   2.991
 7458TIP3    H222339   6.186   2.754   2.961
 7459TIP3   OH222340   3.646   4.722   2.971
 7459TIP3    H122341   3.662   4.771   2.890
 7459TIP3    H222342   3.714   4.750   3.031
 7460TIP3   OH222343   2.603   4.749   5.624
 7460TIP3    H122344   2.515   4.745   5.662
 7460TIP3    H222345   2.589   4.788   5.537
 7461TIP3   OH222346   2.684   2.726   5.750
 7461TIP3    H122347   2.758   2.704   5.806
 7461TIP3    H222348   2.708   2.811   5.711
 7462TIP3   OH222349   6.075   5.546   3.241
 7462TIP3    H122350   5.982   5.525   3.226
 7462TIP3    H222351   6.092   5.516   3.330
 7463TIP3   OH222352   4.302   4.661   4.011
 7463TIP3    H122353   4.392   4.661   3.977
 7463TIP3    H222354   4.265   4.744   3.981
 7464TIP3   OH222355   5.726   0.881   2.661
 7464TIP3    H122356   5.698   0.967   2.694
 7464TIP3    H222357   5.644   0.836   2.639
 7465TIP3   OH222358   2.715   3.849   3.306
 7465TIP3    H122359   2.755   3.855   3.393
 7465TIP3    H222360   2.636   3.904   3.313
 7466TIP3   OH222361   0.216   4.624   2.876
 7466TIP3    H122362   0.124   4.610   2.898
 7466TIP3    H222363   0.265   4.587   2.950
 7467TIP3   OH222364   6.761   1.425   1.536
 7467TIP3    H122365   6.776   1.333   1.557
 7467TIP3    H222366   6.702   1.423   1.461
 7468TIP3   OH222367   4.047   0.488   1.607
 7468TIP3    H122368   3.988   0.557   1.638
 7468TIP3    H222369   3.994   0.434   1.549
 7469TIP3   OH222370   0.031   5.069   2.046
 7469TIP3    H122371   0.116   5.044   2.083
 7469TIP3    H222372   0.028   5.164   2.057
 7470TIP3   OH222373   5.140   5.164   2.267
 7470TIP3    H122374   5.117   5.129   2.181
 7470TIP3    H222375   5.106   5.253   2.267
 7471TIP3   OH222376   6.868   5.447   1.230
 7471TIP3    H122377   6.938   5.401   1.276
 7471TIP3    H222378   6.791   5.391   1.241
 7472TIP3   OH222379   6.837   1.210   2.290
 7472TIP3    H122380   6.823   1.156   2.213
 7472TIP3    H222381   6.840   1.300   2.256
 7473TIP3   OH222382   5.848   2.608   5.844
 7473TIP3    H122383   5.858   2.526   5.796
 7473TIP3    H222384   5.769   2.647   5.809
 7474TIP3   OH222385   4.399   4.262   4.787
 7474TIP3    H122386   4.486   4.293   4.809
 7474TIP3    H222387   4.365   4.328   4.727
 7475TIP3   OH222388   2.736   6.050   4.919
 7475TIP3    H122389   2.831   6.057   4.921
 7475TIP3    H222390   2.719   5.956   4.928
 7476TIP3   OH222391   1.724   0.998   1.695
 7476TIP3    H122392   1.771   0.967   1.617
 7476TIP3    H222393   1.639   1.025   1.662
 7477TIP3   OH222394   3.432   3.992   1.658
 7477TIP3    H122395   3.350   3.961   1.619
 7477TIP3    H222396   3.499   3.974   1.592
 7478TIP3   OH222397  -0.004   4.296   5.594
 7478TIP3    H122398   0.027   4.213   5.631
 7478TIP3    H222399   0.020   4.291   5.501
 7479TIP3   OH222400   5.769   3.870   4.017
 7479TIP3    H122401   5.685   3.907   3.988
 7479TIP3    H222402   5.819   3.945   4.047
 7480TIP3   OH222403   6.466   0.819   5.424
 7480TIP3    H122404   6.428   0.732   5.435
 7480TIP3    H222405   6.390   0.877   5.414
 7481TIP3   OH222406   6.641   5.693   3.574
 7481TIP3    H122407   6.649   5.735   3.488
 7481TIP3    H222408   6.555   5.720   3.606
 7482TIP3   OH222409   3.712   0.179   3.579
 7482TIP3    H122410   3.686   0.117   3.646
 7482TIP3    H222411   3.632   0.193   3.528
 7483TIP3   OH222412   6.974   6.625   3.613
 7483TIP3    H122413   6.896   6.637   3.558
 7483TIP3    H222414   6.993   6.712   3.647
 7484TIP3   OH222415   3.862   2.075   4.257
 7484TIP3    H122416   3.914   2.111   4.185
 7484TIP3    H222417   3.805   2.148   4.284
 7485TIP3   OH222418   6.119   6.178   2.299
 7485TIP3    H122419   6.206   6.216   2.315
 7485TIP3    H222420   6.106   6.115   2.370
 7486TIP3   OH222421   2.049   2.511   0.959
 7486TIP3    H122422   2.044   2.574   1.031
 7486TIP3    H222423   2.006   2.555   0.886
 7487TIP3   OH222424   5.114   6.787   0.136
 7487TIP3    H122425   5.086   6.711   0.187
 7487TIP3    H222426   5.132   6.854   0.203
 7488TIP3   OH222427   6.298   4.948   1.986
 7488TIP3    H122428   6.347   4.892   2.046
 7488TIP3    H222429   6.207   4.941   2.015
 7489TIP3   OH222430   1.580   2.087   2.231
 7489TIP3    H122431   1.596   2.060   2.141
 7489TIP3    H222432   1.620   2.174   2.238
 7490TIP3   OH222433   2.837   0.574   4.809
 7490TIP3    H122434   2.838   0.507   4.877
 7490TIP3    H222435   2.832   0.525   4.727
 7491TIP3   OH222436   6.687   0.464   2.030
 7491TIP3    H122437   6.767   0.510   2.056
 7491TIP3    H222438   6.650   0.518   1.960
 7492TIP3   OH222439   6.400   3.015   0.835
 7492TIP3    H122440   6.492   2.989   0.845
 7492TIP3    H222441   6.383   3.004   0.741
 7493TIP3   OH222442   3.812   2.538   3.960
 7493TIP3    H122443   3.759   2.459   3.947
 7493TIP3    H222444   3.846   2.530   4.049
 7494TIP3   OH222445   2.976   2.596   3.162
 7494TIP3    H122446   2.999   2.627   3.249
 7494TIP3    H222447   2.955   2.503   3.174
 7495TIP3   OH222448   3.365   2.341   1.990
 7495TIP3    H122449   3.415   2.265   2.018
 7495TIP3    H222450   3.415   2.378   1.917
 7496TIP3   OH222451   3.105   5.007   2.358
 7496TIP3    H122452   3.102   4.912   2.349
 7496TIP3    H222453   3.025   5.030   2.406
 7497TIP3   OH222454   5.036   4.559   4.003
 7497TIP3    H122455   5.059   4.650   3.985
 7497TIP3    H222456   4.994   4.528   3.923
 7498TIP3   OH222457   2.217   2.922   5.685
 7498TIP3    H122458   2.287   2.859   5.702
 7498TIP3    H222459   2.138   2.877   5.715
 7499TIP3   OH222460   1.489   6.230   4.433
 7499TIP3    H122461   1.514   6.297   4.496
 7499TIP3    H222462   1.395   6.245   4.418
 7500TIP3   OH222463   4.851   4.373   4.631
 7500TIP3    H122464   4.945   4.389   4.639
 7500TIP3    H222465   4.841   4.333   4.544
 7501TIP3   OH222466   2.511   1.577   2.130
 7501TIP3    H122467   2.544   1.653   2.081
 7501TIP3    H222468   2.533   1.596   2.221
 7502TIP3   OH222469   0.899   1.285   0.855
 7502TIP3    H122470   0.864   1.367   0.889
 7502TIP3    H222471   0.873   1.285   0.763
 7503TIP3   OH222472   6.082   1.634   0.110
 7503TIP3    H122473   6.039   1.671   0.188
 7503TIP3    H222474   6.109   1.710   0.059
 7504TIP3   OH222475   4.630   0.239   3.778
 7504TIP3    H122476   4.652   0.329   3.757
 7504TIP3    H222477   4.538   0.230   3.753
 7505TIP3   OH222478   6.361   2.511   3.602
 7505TIP3    H122479   6.395   2.549   3.683
 7505TIP3    H222480   6.346   2.419   3.623
 7506TIP3   OH222481   0.647   3.134   4.289
 7506TIP3    H122482   0.581   3.069   4.264
 7506TIP3    H222483   0.596   3.213   4.309
 7507TIP3   OH222484   3.565   4.961   4.742
 7507TIP3    H122485   3.656   4.963   4.712
 7507TIP3    H222486   3.523   4.895   4.687
 7508TIP3   OH222487   7.202   1.744   1.660
 7508TIP3    H122488   7.140   1.685   1.703
 7508TIP3    H222489   7.180   1.737   1.567
 7509TIP3   OH222490   2.968   2.677   2.388
 7509TIP3    H122491   2.977   2.749   2.450
 7509TIP3    H222492   2.884   2.694   2.344
 7510TIP3   OH222493   1.228   5.928   4.417
 7510TIP3    H122494   1.278   5.889   4.488
 7510TIP3    H222495   1.285   5.920   4.340
 7511TIP3   OH222496   6.278   5.551   1.550
 7511TIP3    H122497   6.255   5.634   1.508
 7511TIP3    H222498   6.262   5.566   1.643
 7512TIP3   OH222499   6.761   0.665   4.000
 7512TIP3    H122500   6.710   0.597   4.043
 7512TIP3    H222501   6.806   0.621   3.928
 7513TIP3   OH222502   6.785   4.714   3.191
 7513TIP3    H122503   6.721   4.783   3.175
 7513TIP3    H222504   6.733   4.635   3.202
 7514TIP3   OH222505   1.740   0.062   4.021
 7514TIP3    H122506   1.714   0.149   3.990
 7514TIP3    H222507   1.803   0.080   4.090
 7515TIP3   OH222508   4.641   4.826   1.747
 7515TIP3    H122509   4.697   4.833   1.670
 7515TIP3    H222510   4.578   4.757   1.725
 7516TIP3   OH222511   5.560   3.330   3.152
 7516TIP3    H122512   5.512   3.294   3.227
 7516TIP3    H222513   5.548   3.425   3.160
 7517TIP3   OH222514   7.055   3.162   5.003
 7517TIP3    H122515   7.008   3.088   4.965
 7517TIP3    H222516   6.998   3.237   4.985
 7518TIP3   OH222517   5.789   6.074   0.120
 7518TIP3    H122518   5.783   5.981   0.143
 7518TIP3    H222519   5.724   6.117   0.176
 7519TIP3   OH222520   2.142   0.703   3.898
 7519TIP3    H122521   2.086   0.779   3.909
 7519TIP3    H222522   2.084   0.628   3.910
 7520TIP3   OH222523   1.727   5.335   3.593
 7520TIP3    H122524   1.795   5.272   3.571
 7520TIP3    H222525   1.717   5.328   3.688
 7521TIP3   OH222526   6.893   6.098   3.462
 7521TIP3    H122527   6.798   6.091   3.447
 7521TIP3    H222528   6.918   6.177   3.414
 7522TIP3   OH222529   2.343   1.383   5.651
 7522TIP3    H122530   2.390   1.463   5.625
 7522TIP3    H222531   2.383   1.359   5.735
 7523TIP3   OH222532   2.305   3.969   2.501
 7523TIP3    H122533   2.389   4.010   2.523
 7523TIP3    H222534   2.252   4.041   2.468
 7524TIP3   OH222535   1.498   3.465   0.197
 7524TIP3    H122536   1.559   3.508   0.256
 7524TIP3    H222537   1.545   3.387   0.167
 7525TIP3   OH222538   3.322   3.307   2.879
 7525TIP3    H122539   3.376   3.370   2.927
 7525TIP3    H222540   3.235   3.346   2.876
 7526TIP3   OH222541   6.965   3.082   4.021
 7526TIP3    H122542   6.982   2.987   4.024
 7526TIP3    H222543   6.870   3.089   4.015
 7527TIP3   OH222544   3.236   1.179   0.924
 7527TIP3    H122545   3.312   1.132   0.958
 7527TIP3    H222546   3.164   1.153   0.983
 7528TIP3   OH222547   5.943   5.292   0.790
 7528TIP3    H122548   5.919   5.346   0.715
 7528TIP3    H222549   6.006   5.346   0.839
 7529TIP3   OH222550   6.387   6.251   2.498
 7529TIP3    H122551   6.472   6.234   2.458
 7529TIP3    H222552   6.367   6.171   2.546
 7530TIP3   OH222553   1.561   3.625   1.496
 7530TIP3    H122554   1.595   3.546   1.537
 7530TIP3    H222555   1.473   3.601   1.466
 7531TIP3   OH222556   6.658   6.173   2.812
 7531TIP3    H122557   6.696   6.106   2.868
 7531TIP3    H222558   6.706   6.167   2.730
 7532TIP3   OH222559   0.131   5.264   2.310
 7532TIP3    H122560   0.070   5.334   2.334
 7532TIP3    H222561   0.120   5.198   2.379
 7533TIP3   OH222562   0.186   2.783   0.466
 7533TIP3    H122563   0.164   2.724   0.395
 7533TIP3    H222564   0.261   2.833   0.433
 7534TIP3   OH222565   2.588   1.707   1.458
 7534TIP3    H122566   2.659   1.650   1.488
 7534TIP3    H222567   2.509   1.672   1.499
 7535TIP3   OH222568   5.119   6.719   1.716
 7535TIP3    H122569   5.155   6.644   1.670
 7535TIP3    H222570   5.139   6.794   1.660
 7536TIP3   OH222571   3.179   0.678   2.391
 7536TIP3    H122572   3.160   0.595   2.433
 7536TIP3    H222573   3.211   0.654   2.304
 7537TIP3   OH222574   4.035   0.607   5.389
 7537TIP3    H122575   3.983   0.596   5.469
 7537TIP3    H222576   4.009   0.533   5.333
 7538TIP3   OH222577   6.594   1.699   4.898
 7538TIP3    H122578   6.505   1.711   4.866
 7538TIP3    H222579   6.636   1.645   4.830
 7539TIP3   OH222580   4.671   3.946   5.510
 7539TIP3    H122581   4.597   3.902   5.468
 7539TIP3    H222582   4.684   4.025   5.457
 7540TIP3   OH222583   4.733   4.479   0.376
 7540TIP3    H122584   4.706   4.387   0.385
 7540TIP3    H222585   4.727   4.514   0.465
 7541TIP3   OH222586   3.330   0.042   1.006
 7541TIP3    H122587   3.410   0.047   1.057
 7541TIP3    H222588   3.320  -0.051   0.985
 7542TIP3   OH222589   1.010   2.430   3.078
 7542TIP3    H122590   0.996   2.380   3.158
 7542TIP3    H222591   0.963   2.381   3.011
 7543TIP3   OH222592   7.160   4.929   3.213
 7543TIP3    H122593   7.112   5.012   3.216
 7543TIP3    H222594   7.164   4.907   3.120
 7544TIP3   OH222595   6.046   2.610   3.481
 7544TIP3    H122596   6.094   2.556   3.544
 7544TIP3    H222597   5.960   2.568   3.475
 7545TIP3   OH222598   5.401   4.145   4.837
 7545TIP3    H122599   5.390   4.199   4.916
 7545TIP3    H222600   5.375   4.057   4.864
 7546TIP3   OH222601   1.766   6.342   1.107
 7546TIP3    H122602   1.705   6.277   1.072
 7546TIP3    H222603   1.852   6.316   1.073
 7547TIP3   OH222604   2.252   0.598   2.797
 7547TIP3    H122605   2.282   0.518   2.840
 7547TIP3    H222606   2.274   0.668   2.858
 7548TIP3   OH222607   7.202   1.119   2.177
 7548TIP3    H122608   7.214   1.066   2.098
 7548TIP3    H222609   7.181   1.206   2.145
 7549TIP3   OH222610   1.890   2.712   2.003
 7549TIP3    H122611   1.825   2.693   1.935
 7549TIP3    H222612   1.867   2.654   2.075
 7550TIP3   OH222613   6.837   4.718   0.393
 7550TIP3    H122614   6.756   4.765   0.409
 7550TIP3    H222615   6.826   4.635   0.440
 7551TIP3   OH222616   3.258   6.772   2.272
 7551TIP3    H122617   3.246   6.677   2.281
 7551TIP3    H222618   3.170   6.808   2.274
 7552TIP3   OH222619   0.507   0.021   5.200
 7552TIP3    H122620   0.589   0.034   5.249
 7552TIP3    H222621   0.487   0.108   5.165
 7553TIP3   OH222622   6.915   4.308   0.798
 7553TIP3    H122623   6.848   4.359   0.843
 7553TIP3    H222624   6.910   4.335   0.706
 7554TIP3   OH222625   5.644   4.671   3.796
 7554TIP3    H122626   5.682   4.668   3.884
 7554TIP3    H222627   5.715   4.643   3.738
 7555TIP3   OH222628   0.371   3.064   2.899
 7555TIP3    H122629   0.298   3.112   2.860
 7555TIP3    H222630   0.347   2.972   2.890
 7556TIP3   OH222631   6.239   1.255   2.860
 7556TIP3    H122632   6.303   1.196   2.820
 7556TIP3    H222633   6.270   1.343   2.838
 7557TIP3   OH222634   6.944   4.737   5.038
 7557TIP3    H122635   6.892   4.817   5.045
 7557TIP3    H222636   6.971   4.735   4.946
 7558TIP3   OH222637   6.258   4.363   4.504
 7558TIP3    H122638   6.257   4.386   4.411
 7558TIP3    H222639   6.210   4.281   4.509
 7559TIP3   OH222640   0.388   0.333   5.553
 7559TIP3    H122641   0.411   0.252   5.599
 7559TIP3    H222642   0.293   0.328   5.542
 7560TIP3   OH222643   6.446   0.618   2.913
 7560TIP3    H122644   6.501   0.696   2.920
 7560TIP3    H222645   6.385   0.625   2.986
 7561TIP3   OH222646   0.902   5.775   2.944
 7561TIP3    H122647   0.922   5.869   2.943
 7561TIP3    H222648   0.890   5.753   2.852
 7562TIP3   OH222649   2.567   4.484   0.397
 7562TIP3    H122650   2.574   4.392   0.372
 7562TIP3    H222651   2.501   4.520   0.337
 7563TIP3   OH222652   2.819   2.918   3.276
 7563TIP3    H122653   2.896   2.953   3.232
 7563TIP3    H222654   2.790   2.988   3.333
 7564TIP3   OH222655   4.860   0.806   1.963
 7564TIP3    H122656   4.768   0.822   1.943
 7564TIP3    H222657   4.866   0.818   2.058
 7565TIP3   OH222658   2.086   0.058   3.775
 7565TIP3    H122659   2.014   0.090   3.721
 7565TIP3    H222660   2.052  -0.020   3.818
 7566TIP3   OH222661   1.548   0.996   0.145
 7566TIP3    H122662   1.583   1.029   0.228
 7566TIP3    H222663   1.454   1.010   0.151
 7567TIP3   OH222664   2.898   0.029   0.375
 7567TIP3    H122665   2.850   0.102   0.336
 7567TIP3    H222666   2.835  -0.043   0.377
 7568TIP3   OH222667   1.365   1.984   4.482
 7568TIP3    H122668   1.270   1.978   4.471
 7568TIP3    H222669   1.376   2.015   4.572
 7569TIP3   OH222670   2.641   4.167   2.850
 7569TIP3    H122671   2.633   4.239   2.913
 7569TIP3    H222672   2.642   4.088   2.904
 7570TIP3   OH222673   3.146   2.862   2.739
 7570TIP3    H122674   3.114   2.819   2.818
 7570TIP3    H222675   3.240   2.871   2.752
 7571TIP3   OH222676   6.194   0.111   1.142
 7571TIP3    H122677   6.280   0.090   1.105
 7571TIP3    H222678   6.148   0.027   1.145
 7572TIP3   OH222679   2.961   4.112   5.171
 7572TIP3    H122680   3.017   4.041   5.140
 7572TIP3    H222681   2.935   4.158   5.092
 7573TIP3   OH222682   2.002   6.167   3.456
 7573TIP3    H122683   1.922   6.137   3.414
 7573TIP3    H222684   1.983   6.160   3.550
 7574TIP3   OH222685   1.187   4.278   1.880
 7574TIP3    H122686   1.225   4.297   1.966
 7574TIP3    H222687   1.209   4.186   1.864
 7575TIP3   OH222688   5.993   6.250   3.207
 7575TIP3    H122689   6.030   6.334   3.177
 7575TIP3    H222690   5.903   6.251   3.175
 7576TIP3   OH222691   4.565   3.551   5.521
 7576TIP3    H122692   4.654   3.568   5.551
 7576TIP3    H222693   4.510   3.566   5.599
 7577TIP3   OH222694   2.807   3.475   1.476
 7577TIP3    H122695   2.810   3.403   1.540
 7577TIP3    H222696   2.814   3.554   1.529
 7578TIP3   OH222697   5.015   5.153   2.643
 7578TIP3    H122698   5.022   5.211   2.719
 7578TIP3    H222699   5.084   5.088   2.656
 7579TIP3   OH222700   7.063   5.126   2.591
 7579TIP3    H122701   7.136   5.181   2.621
 7579TIP3    H222702   7.096   5.083   2.513
 7580TIP3   OH222703   3.804   0.370   1.095
 7580TIP3    H122704   3.836   0.437   1.155
 7580TIP3    H222705   3.883   0.329   1.060
 7581TIP3   OH222706   0.088   4.506   4.988
 7581TIP3    H122707   0.092   4.436   4.923
 7581TIP3    H222708   0.155   4.484   5.052
 7582TIP3   OH222709   2.366   4.244   1.305
 7582TIP3    H122710   2.341   4.181   1.238
 7582TIP3    H222711   2.322   4.325   1.279
 7583TIP3   OH222712   1.099   3.770   1.586
 7583TIP3    H122713   1.041   3.714   1.637
 7583TIP3    H222714   1.166   3.800   1.648
 7584TIP3   OH222715   4.751   6.235   4.068
 7584TIP3    H122716   4.663   6.203   4.088
 7584TIP3    H222717   4.767   6.205   3.979
 7585TIP3   OH222718   7.064   5.991   0.654
 7585TIP3    H122719   7.101   6.037   0.579
 7585TIP3    H222720   7.024   6.061   0.707
 7586TIP3   OH222721   0.986   4.259   4.043
 7586TIP3    H122722   0.978   4.262   4.139
 7586TIP3    H222723   1.074   4.225   4.028
 7587TIP3   OH222724   1.755   3.787   1.399
 7587TIP3    H122725   1.683   3.746   1.447
 7587TIP3    H222726   1.755   3.743   1.314
 7588TIP3   OH222727   2.583   1.286   5.437
 7588TIP3    H122728   2.675   1.280   5.464
 7588TIP3    H222729   2.562   1.379   5.443
 7589TIP3   OH222730   6.009   2.863   3.878
 7589TIP3    H122731   5.952   2.923   3.830
 7589TIP3    H222732   6.064   2.823   3.811
 7590TIP3   OH222733   0.850   1.420   5.009
 7590TIP3    H122734   0.938   1.394   4.984
 7590TIP3    H222735   0.835   1.503   4.962
 7591TIP3   OH222736   0.662   6.657   2.998
 7591TIP3    H122737   0.629   6.655   3.087
 7591TIP3    H222738   0.604   6.598   2.949
 7592TIP3   OH222739   3.476   3.564   4.326
 7592TIP3    H122740   3.414   3.616   4.378
 7592TIP3    H222741   3.457   3.473   4.350
 7593TIP3   OH222742   6.723   6.168   5.676
 7593TIP3    H122743   6.737   6.204   5.588
 7593TIP3    H222744   6.631   6.145   5.678
 7594TIP3   OH222745   3.023   1.721   0.905
 7594TIP3    H122746   3.046   1.678   0.987
 7594TIP3    H222747   3.052   1.812   0.916
 7595TIP3   OH222748   4.769   4.235   0.138
 7595TIP3    H122749   4.831   4.170   0.104
 7595TIP3    H222750   4.825   4.305   0.173
 7596TIP3   OH222751   5.000   4.341   0.463
 7596TIP3    H122752   4.945   4.346   0.541
 7596TIP3    H222753   4.997   4.249   0.438
 7597TIP3   OH222754   4.191   3.517   0.889
 7597TIP3    H122755   4.152   3.440   0.930
 7597TIP3    H222756   4.172   3.589   0.949
 7598TIP3   OH222757   1.214   0.507   2.378
 7598TIP3    H122758   1.139   0.566   2.369
 7598TIP3    H222759   1.246   0.494   2.289
 7599TIP3   OH222760   1.521   5.960   1.161
 7599TIP3    H122761   1.552   6.029   1.102
 7599TIP3    H222762   1.439   5.930   1.121
 7600TIP3   OH222763   2.604   6.340   0.429
 7600TIP3    H122764   2.655   6.259   0.419
 7600TIP3    H222765   2.644   6.384   0.504
 7601TIP3   OH222766   2.493   0.561   2.951
 7601TIP3    H122767   2.553   0.507   3.001
 7601TIP3    H222768   2.440   0.607   3.016
 7602TIP3   OH222769   5.347   6.256   3.006
 7602TIP3    H122770   5.334   6.301   2.923
 7602TIP3    H222771   5.348   6.326   3.072
 7603TIP3   OH222772   3.608   4.305   3.477
 7603TIP3    H122773   3.545   4.252   3.527
 7603TIP3    H222774   3.690   4.257   3.483
 7604TIP3   OH222775   0.853   1.150   1.250
 7604TIP3    H122776   0.787   1.084   1.273
 7604TIP3    H222777   0.904   1.109   1.180
 7605TIP3   OH222778   3.120   3.219   5.427
 7605TIP3    H122779   3.175   3.171   5.365
 7605TIP3    H222780   3.177   3.236   5.502
 7606TIP3   OH222781   4.199   6.045   1.042
 7606TIP3    H122782   4.272   6.079   0.989
 7606TIP3    H222783   4.202   5.950   1.028
 7607TIP3   OH222784   4.040   4.881   4.442
 7607TIP3    H122785   4.122   4.929   4.454
 7607TIP3    H222786   4.067   4.789   4.438
 7608TIP3   OH222787   3.555   5.654   3.482
 7608TIP3    H122788   3.589   5.639   3.394
 7608TIP3    H222789   3.463   5.628   3.477
 7609TIP3   OH222790   1.275   1.171   1.683
 7609TIP3    H122791   1.323   1.254   1.681
 7609TIP3    H222792   1.200   1.188   1.740
 7610TIP3   OH222793   2.154   3.858   1.167
 7610TIP3    H122794   2.147   3.796   1.094
 7610TIP3    H222795   2.161   3.802   1.245
 7611TIP3   OH222796   6.225   5.088   3.068
 7611TIP3    H122797   6.263   5.176   3.074
 7611TIP3    H222798   6.285   5.033   3.119
 7612TIP3   OH222799   6.073   5.787   3.615
 7612TIP3    H122800   6.003   5.799   3.551
 7612TIP3    H222801   6.031   5.803   3.700
 7613TIP3   OH222802   2.300   1.280   0.647
 7613TIP3    H122803   2.227   1.340   0.634
 7613TIP3    H222804   2.374   1.323   0.606
 7614TIP3   OH222805   2.677   6.482   0.674
 7614TIP3    H122806   2.760   6.475   0.721
 7614TIP3    H222807   2.623   6.412   0.710
 7615TIP3   OH222808   5.796   2.227   2.092
 7615TIP3    H122809   5.799   2.233   1.996
 7615TIP3    H222810   5.888   2.218   2.118
 7616TIP3   OH222811   5.026   3.716   4.216
 7616TIP3    H122812   5.038   3.766   4.296
 7616TIP3    H222813   4.933   3.723   4.196
 7617TIP3   OH222814   5.499   2.381   1.938
 7617TIP3    H122815   5.481   2.351   2.027
 7617TIP3    H222816   5.553   2.460   1.950
 7618TIP3   OH222817   5.768   1.082   2.016
 7618TIP3    H122818   5.849   1.037   2.041
 7618TIP3    H222819   5.749   1.050   1.928
 7619TIP3   OH222820   0.197   3.255   5.578
 7619TIP3    H122821   0.107   3.280   5.555
 7619TIP3    H222822   0.209   3.290   5.666
 7620TIP3   OH222823   5.824   3.069   0.137
 7620TIP3    H122824   5.798   3.009   0.207
 7620TIP3    H222825   5.779   3.151   0.159
 7621TIP3   OH222826   4.578   2.037   1.890
 7621TIP3    H122827   4.557   2.119   1.936
 7621TIP3    H222828   4.661   2.009   1.928
 7622TIP3   OH222829   2.918   3.907   1.481
 7622TIP3    H122830   2.863   3.979   1.449
 7622TIP3    H222831   2.857   3.850   1.528
 7623TIP3   OH222832   1.760   2.319   4.119
 7623TIP3    H122833   1.695   2.320   4.189
 7623TIP3    H222834   1.789   2.410   4.111
 7624TIP3   OH222835   3.671   2.549   0.427
 7624TIP3    H122836   3.625   2.510   0.352
 7624TIP3    H222837   3.747   2.592   0.390
 7625TIP3   OH222838   2.115   0.819   0.141
 7625TIP3    H122839   2.174   0.753   0.177
 7625TIP3    H222840   2.134   0.898   0.191
 7626TIP3   OH222841   2.806   6.254   5.667
 7626TIP3    H122842   2.721   6.281   5.632
 7626TIP3    H222843   2.800   6.268   5.761
 7627TIP3   OH222844   6.205   5.411   2.353
 7627TIP3    H122845   6.279   5.409   2.414
 7627TIP3    H222846   6.139   5.465   2.398
 7628TIP3   OH222847   3.725   1.624   0.475
 7628TIP3    H122848   3.763   1.632   0.562
 7628TIP3    H222849   3.787   1.667   0.417
 7629TIP3   OH222850   3.302   5.956   5.545
 7629TIP3    H122851   3.251   5.878   5.522
 7629TIP3    H222852   3.243   6.030   5.527
 7630TIP3   OH222853   1.957   3.394   4.755
 7630TIP3    H122854   1.956   3.311   4.707
 7630TIP3    H222855   2.028   3.383   4.819
 7631TIP3   OH222856   5.752   2.895   1.684
 7631TIP3    H122857   5.657   2.902   1.679
 7631TIP3    H222858   5.779   2.867   1.596
 7632TIP3   OH222859   6.502   6.589   1.607
 7632TIP3    H122860   6.425   6.533   1.601
 7632TIP3    H222861   6.498   6.644   1.528
 7633TIP3   OH222862   5.753   6.590   2.222
 7633TIP3    H122863   5.687   6.659   2.214
 7633TIP3    H222864   5.814   6.606   2.150
 7634TIP3   OH222865   4.610   6.363   0.523
 7634TIP3    H122866   4.690   6.332   0.481
 7634TIP3    H222867   4.598   6.452   0.490
 7635TIP3   OH222868   2.566   5.674   1.637
 7635TIP3    H122869   2.490   5.637   1.592
 7635TIP3    H222870   2.639   5.656   1.578
 7636TIP3   OH222871   5.256   2.401   2.165
 7636TIP3    H122872   5.253   2.373   2.256
 7636TIP3    H222873   5.183   2.462   2.156
 7637TIP3   OH222874   4.915   0.993   0.242
 7637TIP3    H122875   4.875   1.076   0.266
 7637TIP3    H222876   4.967   1.012   0.164
 7638TIP3   OH222877   0.232   5.597   1.891
 7638TIP3    H122878   0.218   5.692   1.901
 7638TIP3    H222879   0.230   5.563   1.980
 7639TIP3   OH222880   3.809   0.728   5.220
 7639TIP3    H122881   3.782   0.757   5.133
 7639TIP3    H222882   3.755   0.650   5.237
 7640TIP3   OH222883   3.166   6.083   4.342
 7640TIP3    H122884   3.124   6.017   4.287
 7640TIP3    H222885   3.172   6.042   4.428
 7641TIP3   OH222886   5.996   5.408   1.187
 7641TIP3    H122887   5.930   5.363   1.133
 7641TIP3    H222888   5.950   5.484   1.223
 7642TIP3   OH222889   2.869   0.843   4.967
 7642TIP3    H122890   2.881   0.819   5.059
 7642TIP3    H222891   2.879   0.938   4.966
 7643TIP3   OH222892   6.343   6.074   5.215
 7643TIP3    H122893   6.403   6.028   5.273
 7643TIP3    H222894   6.398   6.130   5.162
 7644TIP3   OH222895   2.017   2.899   1.871
 7644TIP3    H122896   2.022   2.830   1.804
 7644TIP3    H222897   1.959   2.863   1.938
 7645TIP3   OH222898   2.257   0.380   5.448
 7645TIP3    H122899   2.328   0.416   5.502
 7645TIP3    H222900   2.301   0.340   5.373
 7646TIP3   OH222901   0.487   1.459   4.447
 7646TIP3    H122902   0.530   1.478   4.364
 7646TIP3    H222903   0.412   1.405   4.423
 7647TIP3   OH222904   4.457   5.948   0.294
 7647TIP3    H122905   4.423   5.874   0.345
 7647TIP3    H222906   4.419   6.025   0.337
 7648TIP3   OH222907   1.676   1.207   2.988
 7648TIP3    H122908   1.620   1.133   2.966
 7648TIP3    H222909   1.755   1.167   3.025
 7649TIP3   OH222910   0.820   3.966   2.787
 7649TIP3    H122911   0.790   4.053   2.816
 7649TIP3    H222912   0.915   3.969   2.798
 7650TIP3   OH222913   1.467   0.389   5.435
 7650TIP3    H122914   1.445   0.413   5.345
 7650TIP3    H222915   1.455   0.295   5.439
 7651TIP3   OH222916   1.747   4.864   4.257
 7651TIP3    H122917   1.746   4.920   4.335
 7651TIP3    H222918   1.656   4.862   4.228
 7652TIP3   OH222919   3.438   0.979   1.278
 7652TIP3    H122920   3.472   1.067   1.259
 7652TIP3    H222921   3.346   0.983   1.254
 7653TIP3   OH222922   6.409   1.270   5.466
 7653TIP3    H122923   6.368   1.196   5.422
 7653TIP3    H222924   6.476   1.300   5.404
 7654TIP3   OH222925   6.284   0.675   2.123
 7654TIP3    H122926   6.283   0.705   2.214
 7654TIP3    H222927   6.297   0.754   2.071
 7655TIP3   OH222928   0.242   6.067   2.457
 7655TIP3    H122929   0.299   6.144   2.455
 7655TIP3    H222930   0.261   6.026   2.541
 7656TIP3   OH222931   4.156   0.052   1.412
 7656TIP3    H122932   4.197   0.137   1.395
 7656TIP3    H222933   4.068   0.075   1.445
 7657TIP3   OH222934   3.194   1.561   3.323
 7657TIP3    H122935   3.208   1.483   3.270
 7657TIP3    H222936   3.194   1.633   3.260
 7658TIP3   OH222937   4.243   0.361   1.780
 7658TIP3    H122938   4.210   0.397   1.863
 7658TIP3    H222939   4.189   0.405   1.713
 7659TIP3   OH222940   4.450   0.085   0.881
 7659TIP3    H122941   4.511   0.082   0.955
 7659TIP3    H222942   4.468   0.170   0.839
 7660TIP3   OH222943   2.868   3.035   0.987
 7660TIP3    H122944   2.895   3.045   0.896
 7660TIP3    H222945   2.813   3.112   1.003
 7661TIP3   OH222946   1.201   5.210   4.435
 7661TIP3    H122947   1.229   5.120   4.450
 7661TIP3    H222948   1.212   5.223   4.341
 7662TIP3   OH222949   2.814   0.513   2.316
 7662TIP3    H122950   2.803   0.553   2.230
 7662TIP3    H222951   2.745   0.553   2.370
 7663TIP3   OH222952   3.338   1.827   1.588
 7663TIP3    H122953   3.363   1.882   1.662
 7663TIP3    H222954   3.280   1.762   1.625
 7664TIP3   OH222955   7.180   0.452   0.055
 7664TIP3    H122956   7.195   0.466  -0.038
 7664TIP3    H222957   7.163   0.359   0.063
 7665TIP3   OH222958   2.952   1.156   1.039
 7665TIP3    H122959   2.935   1.241   0.999
 7665TIP3    H222960   2.869   1.109   1.031
 7666TIP3   OH222961   3.665   0.214   5.462
 7666TIP3    H122962   3.637   0.130   5.498
 7666TIP3    H222963   3.608   0.227   5.386
 7667TIP3   OH222964   2.174   2.238   0.174
 7667TIP3    H122965   2.230   2.192   0.111
 7667TIP3    H222966   2.221   2.231   0.257
 7668TIP3   OH222967   1.757   2.834   5.751
 7668TIP3    H122968   1.728   2.924   5.760
 7668TIP3    H222969   1.677   2.782   5.756
 7669TIP3   OH222970   0.044   5.689   3.997
 7669TIP3    H122971   0.056   5.719   4.087
 7669TIP3    H222972   0.075   5.598   3.997
 7670TIP3   OH222973   1.896   3.877   3.276
 7670TIP3    H122974   1.876   3.790   3.242
 7670TIP3    H222975   1.926   3.861   3.365
 7671TIP3   OH222976   1.995   1.889   1.906
 7671TIP3    H122977   2.040   1.839   1.838
 7671TIP3    H222978   1.903   1.888   1.880
 7672TIP3   OH222979   2.157   4.079   1.975
 7672TIP3    H122980   2.159   4.099   1.881
 7672TIP3    H222981   2.123   4.158   2.016
 7673TIP3   OH222982   3.797   1.242   1.721
 7673TIP3    H122983   3.733   1.310   1.743
 7673TIP3    H222984   3.881   1.286   1.730
 7674TIP3   OH222985   0.242   4.449   4.192
 7674TIP3    H122986   0.220   4.386   4.260
 7674TIP3    H222987   0.311   4.407   4.141
 7675TIP3   OH222988   4.810   2.860   3.573
 7675TIP3    H122989   4.797   2.774   3.535
 7675TIP3    H222990   4.800   2.847   3.667
 7676TIP3   OH222991   0.858   0.035   1.037
 7676TIP3    H122992   0.911   0.115   1.035
 7676TIP3    H222993   0.887  -0.014   0.961
 7677TIP3   OH222994   5.885   5.935   0.423
 7677TIP3    H122995   5.794   5.964   0.419
 7677TIP3    H222996   5.889   5.864   0.359
 7678TIP3   OH222997   4.520   3.682   4.309
 7678TIP3    H122998   4.466   3.742   4.258
 7678TIP3    H222999   4.563   3.737   4.374
 7679TIP3   OH223000   5.652   3.318   0.237
 7679TIP3    H123001   5.646   3.262   0.314
 7679TIP3    H223002   5.695   3.398   0.268
 7680TIP3   OH223003   6.073   1.067   4.862
 7680TIP3    H123004   6.137   1.126   4.821
 7680TIP3    H223005   6.046   1.112   4.942
 7681TIP3   OH223006   4.740   2.555   4.016
 7681TIP3    H123007   4.671   2.547   4.082
 7681TIP3    H223008   4.798   2.623   4.049
 7682TIP3   OH223009   2.623   0.016   5.701
 7682TIP3    H123010   2.540   0.045   5.739
 7682TIP3    H223011   2.690   0.062   5.752
 7683TIP3   OH223012   0.237   0.412   2.460
 7683TIP3    H123013   0.319   0.388   2.418
 7683TIP3    H223014   0.195   0.328   2.481
 7684TIP3   OH223015   2.447   5.617   3.814
 7684TIP3    H123016   2.425   5.707   3.792
 7684TIP3    H223017   2.368   5.567   3.794
 7685TIP3   OH223018   0.578   0.901   4.202
 7685TIP3    H123019   0.609   0.814   4.226
 7685TIP3    H223020   0.499   0.914   4.255
 7686TIP3   OH223021   5.008   2.359   2.945
 7686TIP3    H123022   4.997   2.316   2.860
 7686TIP3    H223023   4.952   2.436   2.941
 7687TIP3   OH223024   5.698   5.581   0.461
 7687TIP3    H123025   5.667   5.535   0.539
 7687TIP3    H223026   5.618   5.609   0.416
 7688TIP3   OH223027   5.375   6.156   0.706
 7688TIP3    H123028   5.290   6.112   0.712
 7688TIP3    H223029   5.355   6.242   0.670
 7689TIP3   OH223030   2.101   4.908   5.564
 7689TIP3    H123031   2.141   4.829   5.529
 7689TIP3    H223032   2.008   4.899   5.544
 7690TIP3   OH223033   0.246   2.359   5.824
 7690TIP3    H123034   0.328   2.320   5.794
 7690TIP3    H223035   0.267   2.397   5.909
 7691TIP3   OH223036   3.125   3.967   2.897
 7691TIP3    H123037   3.069   3.890   2.891
 7691TIP3    H223038   3.110   4.014   2.815
 7692TIP3   OH223039   5.983   4.036   1.889
 7692TIP3    H123040   5.913   4.075   1.942
 7692TIP3    H223041   6.060   4.089   1.910
 7693TIP3   OH223042   5.563   5.874   3.037
 7693TIP3    H123043   5.570   5.934   2.963
 7693TIP3    H223044   5.500   5.915   3.096
 7694TIP3   OH223045   1.171   4.155   3.220
 7694TIP3    H123046   1.120   4.222   3.265
 7694TIP3    H223047   1.214   4.106   3.291
 7695TIP3   OH223048   4.171   6.388   0.868
 7695TIP3    H123049   4.262   6.395   0.899
 7695TIP3    H223050   4.175   6.322   0.799
 7696TIP3   OH223051   6.613   3.532   5.096
 7696TIP3    H123052   6.614   3.498   5.006
 7696TIP3    H223053   6.682   3.483   5.141
 7697TIP3   OH223054   5.293   6.210   2.206
 7697TIP3    H123055   5.268   6.266   2.279
 7697TIP3    H223056   5.291   6.122   2.241
 7698TIP3   OH223057   0.325   1.864   1.967
 7698TIP3    H123058   0.255   1.929   1.980
 7698TIP3    H223059   0.337   1.825   2.053
 7699TIP3   OH223060   3.186   1.457   2.042
 7699TIP3    H123061   3.157   1.545   2.020
 7699TIP3    H223062   3.134   1.400   1.984
 7700TIP3   OH223063   0.562   6.322   4.544
 7700TIP3    H123064   0.642   6.371   4.561
 7700TIP3    H223065   0.581   6.273   4.464
 7701TIP3   OH223066   3.926   2.525   2.527
 7701TIP3    H123067   3.836   2.499   2.546
 7701TIP3    H223068   3.931   2.617   2.554
 7702TIP3   OH223069   6.933   3.602   2.098
 7702TIP3    H123070   6.900   3.572   2.013
 7702TIP3    H223071   6.864   3.578   2.160
 7703TIP3   OH223072   2.723   3.244   0.404
 7703TIP3    H123073   2.770   3.325   0.384
 7703TIP3    H223074   2.709   3.247   0.499
 7704TIP3   OH223075   1.261   6.268   3.767
 7704TIP3    H123076   1.240   6.320   3.690
 7704TIP3    H223077   1.200   6.299   3.834
 7705TIP3   OH223078   2.442   1.582   4.854
 7705TIP3    H123079   2.530   1.618   4.863
 7705TIP3    H223080   2.454   1.502   4.804
 7706TIP3   OH223081   0.413   5.743   1.636
 7706TIP3    H123082   0.394   5.720   1.545
 7706TIP3    H223083   0.508   5.753   1.640
 7707TIP3   OH223084   4.747   1.187   1.423
 7707TIP3    H123085   4.756   1.248   1.350
 7707TIP3    H223086   4.653   1.170   1.430
 7708TIP3   OH223087   4.585   2.692   3.022
 7708TIP3    H123088   4.539   2.613   2.995
 7708TIP3    H223089   4.557   2.759   2.959
 7709TIP3   OH223090   2.027   6.575   0.782
 7709TIP3    H123091   2.100   6.591   0.841
 7709TIP3    H223092   2.064   6.584   0.694
 7710TIP3   OH223093   5.076   5.800   2.482
 7710TIP3    H123094   5.048   5.710   2.499
 7710TIP3    H223095   5.067   5.844   2.567
 7711TIP3   OH223096   6.193   3.747   1.484
 7711TIP3    H123097   6.106   3.737   1.445
 7711TIP3    H223098   6.249   3.776   1.411
 7712TIP3   OH223099   3.227   5.008   4.563
 7712TIP3    H123100   3.243   5.085   4.508
 7712TIP3    H223101   3.210   5.044   4.650
 7713TIP3   OH223102   3.621   3.833   5.107
 7713TIP3    H123103   3.608   3.757   5.050
 7713TIP3    H223104   3.597   3.801   5.194
 7714TIP3   OH223105   0.207   3.452   0.575
 7714TIP3    H123106   0.196   3.357   0.575
 7714TIP3    H223107   0.296   3.465   0.540
 7715TIP3   OH223108   6.124   6.728   1.607
 7715TIP3    H123109   6.180   6.778   1.547
 7715TIP3    H223110   6.183   6.700   1.677
 7716TIP3   OH223111   0.391   3.713   0.998
 7716TIP3    H123112   0.430   3.694   1.083
 7716TIP3    H223113   0.300   3.732   1.017
 7717TIP3   OH223114   3.721   4.457   5.560
 7717TIP3    H123115   3.708   4.390   5.492
 7717TIP3    H223116   3.659   4.526   5.537
 7718TIP3   OH223117   4.129   3.278   0.548
 7718TIP3    H123118   4.138   3.250   0.457
 7718TIP3    H223119   4.072   3.354   0.544
 7719TIP3   OH223120   3.578   2.522   0.932
 7719TIP3    H123121   3.574   2.531   0.837
 7719TIP3    H223122   3.493   2.484   0.956
 7720TIP3   OH223123   6.842   6.404   2.201
 7720TIP3    H123124   6.807   6.315   2.201
 7720TIP3    H223125   6.928   6.395   2.160
 7721TIP3   OH223126   6.564   3.041   5.760
 7721TIP3    H123127   6.474   3.048   5.792
 7721TIP3    H223128   6.575   3.119   5.705
 7722TIP3   OH223129   2.596   1.720   1.785
 7722TIP3    H123130   2.600   1.795   1.845
 7722TIP3    H223131   2.665   1.737   1.721
 7723TIP3   OH223132   5.678   3.296   1.078
 7723TIP3    H123133   5.628   3.215   1.092
 7723TIP3    H223134   5.717   3.315   1.163
 7724TIP3   OH223135   5.410   4.757   4.213
 7724TIP3    H123136   5.325   4.780   4.251
 7724TIP3    H223137   5.452   4.702   4.279
 7725TIP3   OH223138   5.354   0.529   4.823
 7725TIP3    H123139   5.299   0.558   4.896
 7725TIP3    H223140   5.327   0.439   4.807
 7726TIP3   OH223141   1.356   4.762   0.991
 7726TIP3    H123142   1.366   4.736   0.899
 7726TIP3    H223143   1.273   4.809   0.994
 7727TIP3   OH223144   2.510   6.034   3.510
 7727TIP3    H123145   2.534   5.999   3.424
 7727TIP3    H223146   2.466   5.961   3.554
 7728TIP3   OH223147   5.566   5.472   0.723
 7728TIP3    H123148   5.600   5.452   0.810
 7728TIP3    H223149   5.474   5.446   0.726
 7729TIP3   OH223150   4.868   6.616   0.668
 7729TIP3    H123151   4.963   6.622   0.682
 7729TIP3    H223152   4.854   6.529   0.631
 7730TIP3   OH223153   7.126   3.929   0.593
 7730TIP3    H123154   7.147   3.985   0.667
 7730TIP3    H223155   7.194   3.947   0.529
 7731TIP3   OH223156   5.885   5.673   1.313
 7731TIP3    H123157   5.916   5.725   1.239
 7731TIP3    H223158   5.929   5.711   1.389
 7732TIP3   OH223159   1.265   3.933   3.726
 7732TIP3    H123160   1.309   3.872   3.786
 7732TIP3    H223161   1.173   3.904   3.726
 7733TIP3   OH223162   1.316   0.142   5.536
 7733TIP3    H123163   1.315   0.139   5.632
 7733TIP3    H223164   1.385   0.081   5.511
 7734TIP3   OH223165   1.366   3.727   5.717
 7734TIP3    H123166   1.442   3.708   5.771
 7734TIP3    H223167   1.401   3.774   5.641
 7735TIP3   OH223168   0.581   0.211   1.505
 7735TIP3    H123169   0.532   0.290   1.480
 7735TIP3    H223170   0.535   0.178   1.582
 7736TIP3   OH223171   4.385   2.856   1.606
 7736TIP3    H123172   4.343   2.942   1.612
 7736TIP3    H223173   4.477   2.875   1.588
 7737TIP3   OH223174   4.538   2.411   5.846
 7737TIP3    H123175   4.581   2.329   5.821
 7737TIP3    H223176   4.605   2.478   5.833
 7738TIP3   OH223177   4.577   0.692   4.582
 7738TIP3    H123178   4.580   0.599   4.600
 7738TIP3    H223179   4.525   0.699   4.501
 7739TIP3   OH223180   7.209   3.535   2.914
 7739TIP3    H123181   7.140   3.592   2.878
 7739TIP3    H223182   7.232   3.577   2.998
 7740TIP3   OH223183   3.166   5.056   2.645
 7740TIP3    H123184   3.197   4.967   2.663
 7740TIP3    H223185   3.229   5.091   2.582
 7741TIP3   OH223186   2.815   1.972   4.062
 7741TIP3    H123187   2.765   1.918   4.000
 7741TIP3    H223188   2.863   2.034   4.007
 7742TIP3   OH223189   1.458   1.814   4.793
 7742TIP3    H123190   1.436   1.906   4.780
 7742TIP3    H223191   1.374   1.770   4.808
 7743TIP3   OH223192   6.045   1.955   0.708
 7743TIP3    H123193   6.106   1.882   0.710
 7743TIP3    H223194   6.042   1.981   0.616
 7744TIP3   OH223195   4.811   3.943   2.469
 7744TIP3    H123196   4.748   3.871   2.469
 7744TIP3    H223197   4.884   3.911   2.521
 7745TIP3   OH223198   3.782   2.141   1.917
 7745TIP3    H123199   3.797   2.227   1.957
 7745TIP3    H223200   3.713   2.102   1.971
 7746TIP3   OH223201   5.348   3.059   4.893
 7746TIP3    H123202   5.322   3.065   4.985
 7746TIP3    H223203   5.271   3.024   4.849
 7747TIP3   OH223204   6.614   1.807   1.846
 7747TIP3    H123205   6.618   1.903   1.844
 7747TIP3    H223206   6.602   1.781   1.755
 7748TIP3   OH223207   4.406   3.798   1.690
 7748TIP3    H123208   4.328   3.797   1.634
 7748TIP3    H223209   4.404   3.885   1.732
 7749TIP3   OH223210   3.763   5.120   3.448
 7749TIP3    H123211   3.727   5.202   3.414
 7749TIP3    H223212   3.688   5.076   3.487
 7750TIP3   OH223213   3.879   3.044   1.178
 7750TIP3    H123214   3.971   3.017   1.184
 7750TIP3    H223215   3.879   3.112   1.110
 7751TIP3   OH223216   1.955   3.785   2.496
 7751TIP3    H123217   2.004   3.707   2.470
 7751TIP3    H223218   1.863   3.759   2.488
 7752TIP3   OH223219   7.175   1.947   3.558
 7752TIP3    H123220   7.090   1.912   3.583
 7752TIP3    H223221   7.164   2.042   3.559
 7753TIP3   OH223222   0.421   1.309   0.946
 7753TIP3    H123223   0.423   1.214   0.961
 7753TIP3    H223224   0.508   1.329   0.910
 7754TIP3   OH223225   5.265   4.313   3.176
 7754TIP3    H123226   5.293   4.295   3.086
 7754TIP3    H223227   5.170   4.319   3.171
 7755TIP3   OH223228   2.365   6.045   0.726
 7755TIP3    H123229   2.359   6.134   0.692
 7755TIP3    H223230   2.459   6.027   0.730
 7756TIP3   OH223231   5.313   0.493   2.810
 7756TIP3    H123232   5.291   0.453   2.894
 7756TIP3    H223233   5.230   0.498   2.763
 7757TIP3   OH223234   0.289   6.380   4.054
 7757TIP3    H123235   0.339   6.303   4.027
 7757TIP3    H223236   0.345   6.423   4.119
 7758TIP3   OH223237   6.647   6.100   3.702
 7758TIP3    H123238   6.640   6.074   3.610
 7758TIP3    H223239   6.574   6.055   3.745
 7759TIP3   OH223240   6.471   1.754   3.480
 7759TIP3    H123241   6.418   1.798   3.547
 7759TIP3    H223242   6.469   1.661   3.506
 7760TIP3   OH223243   2.032   5.842   0.796
 7760TIP3    H123244   2.016   5.837   0.701
 7760TIP3    H223245   2.077   5.760   0.817
 7761TIP3   OH223246   2.308   4.721   4.175
 7761TIP3    H123247   2.219   4.751   4.161
 7761TIP3    H223248   2.336   4.764   4.256
 7762TIP3   OH223249   5.128   2.791   1.264
 7762TIP3    H123250   5.074   2.791   1.343
 7762TIP3    H223251   5.148   2.698   1.249
 7763TIP3   OH223252   0.638   1.907   1.118
 7763TIP3    H123253   0.680   1.895   1.203
 7763TIP3    H223254   0.658   1.827   1.069
 7764TIP3   OH223255   6.006   2.137   1.439
 7764TIP3    H123256   5.974   2.171   1.355
 7764TIP3    H223257   5.932   2.147   1.499
 7765TIP3   OH223258   4.222   3.070   1.530
 7765TIP3    H123259   4.170   3.137   1.575
 7765TIP3    H223260   4.160   3.027   1.471
 7766TIP3   OH223261   5.834   1.648   1.468
 7766TIP3    H123262   5.746   1.639   1.503
 7766TIP3    H223263   5.868   1.729   1.506
 7767TIP3   OH223264   6.897   6.041   3.809
 7767TIP3    H123265   6.817   6.051   3.758
 7767TIP3    H223266   6.955   5.990   3.753
 7768TIP3   OH223267   6.335   2.319   0.793
 7768TIP3    H123268   6.348   2.377   0.868
 7768TIP3    H223269   6.398   2.350   0.728
 7769TIP3   OH223270   4.399   0.036   3.541
 7769TIP3    H123271   4.377   0.023   3.448
 7769TIP3    H223272   4.403  -0.052   3.577
 7770TIP3   OH223273   3.892   6.212   0.978
 7770TIP3    H123274   3.933   6.217   1.065
 7770TIP3    H223275   3.946   6.149   0.930
 7771TIP3   OH223276   6.343   5.756   3.597
 7771TIP3    H123277   6.249   5.763   3.615
 7771TIP3    H223278   6.350   5.687   3.531
 7772TIP3   OH223279   6.786   0.424   0.259
 7772TIP3    H123280   6.847   0.399   0.329
 7772TIP3    H223281   6.719   0.355   0.260
 7773TIP3   OH223282   6.500   0.273   2.349
 7773TIP3    H123283   6.414   0.295   2.385
 7773TIP3    H223284   6.492   0.290   2.255
 7774TIP3   OH223285   2.125   3.485   1.583
 7774TIP3    H123286   2.207   3.526   1.556
 7774TIP3    H223287   2.061   3.515   1.519
 7775TIP3   OH223288   1.380   6.009   5.711
 7775TIP3    H123289   1.382   5.923   5.667
 7775TIP3    H223290   1.319   5.997   5.784
 7776TIP3   OH223291   3.283   4.210   4.523
 7776TIP3    H123292   3.297   4.244   4.612
 7776TIP3    H223293   3.332   4.128   4.521
 7777TIP3   OH223294   0.058   2.730   3.157
 7777TIP3    H123295   0.083   2.669   3.227
 7777TIP3    H223296   0.124   2.799   3.161
 7778TIP3   OH223297   5.489   3.587   3.212
 7778TIP3    H123298   5.503   3.613   3.303
 7778TIP3    H223299   5.430   3.653   3.176
 7779TIP3   OH223300   5.655   2.507   4.095
 7779TIP3    H123301   5.696   2.464   4.170
 7779TIP3    H223302   5.706   2.586   4.081
 7780TIP3   OH223303   5.644   1.584   0.225
 7780TIP3    H123304   5.708   1.562   0.158
 7780TIP3    H223305   5.632   1.679   0.216
 7781TIP3   OH223306   2.249   4.459   5.072
 7781TIP3    H123307   2.210   4.546   5.078
 7781TIP3    H223308   2.179   4.402   5.041
 7782TIP3   OH223309   0.696   1.997   2.835
 7782TIP3    H123310   0.650   1.959   2.761
 7782TIP3    H223311   0.742   2.073   2.799
 7783TIP3   OH223312   3.671   2.773   2.544
 7783TIP3    H123313   3.751   2.783   2.596
 7783TIP3    H223314   3.672   2.847   2.484
 7784TIP3   OH223315   1.331   4.697   5.257
 7784TIP3    H123316   1.374   4.617   5.226
 7784TIP3    H223317   1.333   4.756   5.182
 7785TIP3   OH223318   3.385   2.893   4.233
 7785TIP3    H123319   3.480   2.882   4.238
 7785TIP3    H223320   3.353   2.864   4.318
 7786TIP3   OH223321   4.603   0.846   1.882
 7786TIP3    H123322   4.606   0.938   1.857
 7786TIP3    H223323   4.582   0.799   1.801
 7787TIP3   OH223324   1.678   3.760   2.481
 7787TIP3    H123325   1.608   3.714   2.435
 7787TIP3    H223326   1.639   3.787   2.564
 7788TIP3   OH223327   6.562   2.218   2.726
 7788TIP3    H123328   6.515   2.140   2.755
 7788TIP3    H223329   6.493   2.278   2.695
 7789TIP3   OH223330   0.590   2.864   1.637
 7789TIP3    H123331   0.669   2.870   1.583
 7789TIP3    H223332   0.518   2.885   1.577
 7790TIP3   OH223333   0.899   0.725   4.792
 7790TIP3    H123334   0.845   0.670   4.849
 7790TIP3    H223335   0.947   0.662   4.738
 7791TIP3   OH223336   2.137   6.270   1.290
 7791TIP3    H123337   2.139   6.182   1.251
 7791TIP3    H223338   2.059   6.269   1.347
 7792TIP3   OH223339   1.350   3.198   0.722
 7792TIP3    H123340   1.288   3.268   0.742
 7792TIP3    H223341   1.433   3.228   0.757
 7793TIP3   OH223342   5.901   6.126   5.193
 7793TIP3    H123343   5.876   6.034   5.195
 7793TIP3    H223344   5.818   6.173   5.178
 7794TIP3   OH223345   5.352   5.001   2.362
 7794TIP3    H123346   5.368   4.964   2.275
 7794TIP3    H223347   5.274   5.056   2.351
 7795TIP3   OH223348   6.556   4.226   4.466
 7795TIP3    H123349   6.582   4.141   4.431
 7795TIP3    H223350   6.624   4.247   4.530
 7796TIP3   OH223351   5.608   1.265   1.133
 7796TIP3    H123352   5.581   1.285   1.223
 7796TIP3    H223353   5.561   1.184   1.112
 7797TIP3   OH223354   6.267   4.516   0.666
 7797TIP3    H123355   6.356   4.508   0.631
 7797TIP3    H223356   6.243   4.607   0.652
 7798TIP3   OH223357   2.889   2.988   4.784
 7798TIP3    H123358   2.974   3.030   4.803
 7798TIP3    H223359   2.847   3.048   4.723
 7799TIP3   OH223360   3.478   4.708   2.557
 7799TIP3    H123361   3.519   4.742   2.478
 7799TIP3    H223362   3.474   4.613   2.543
 7800TIP3   OH223363   6.653   2.364   0.939
 7800TIP3    H123364   6.622   2.426   0.873
 7800TIP3    H223365   6.734   2.403   0.972
 7801TIP3   OH223366   6.919   5.542   0.563
 7801TIP3    H123367   6.953   5.491   0.637
 7801TIP3    H223368   6.997   5.582   0.525
 7802TIP3   OH223369   6.638   0.084   3.974
 7802TIP3    H123370   6.597   0.003   3.942
 7802TIP3    H223371   6.574   0.152   3.952
 7803TIP3   OH223372   2.827   6.208   4.127
 7803TIP3    H123373   2.773   6.236   4.201
 7803TIP3    H223374   2.869   6.288   4.096
 7804TIP3   OH223375   2.769   1.357   4.291
 7804TIP3    H123376   2.696   1.354   4.229
 7804TIP3    H223377   2.843   1.320   4.244
 7805TIP3   OH223378   4.274   3.912   3.175
 7805TIP3    H123379   4.289   3.855   3.251
 7805TIP3    H223380   4.354   3.964   3.168
 7806TIP3   OH223381   2.291   3.132   3.488
 7806TIP3    H123382   2.280   3.057   3.545
 7806TIP3    H223383   2.232   3.199   3.523
 7807TIP3   OH223384   6.354   1.325   4.957
 7807TIP3    H123385   6.267   1.349   4.925
 7807TIP3    H223386   6.391   1.272   4.886
 7808TIP3   OH223387   1.050   2.685   2.710
 7808TIP3    H123388   1.002   2.647   2.784
 7808TIP3    H223389   1.127   2.725   2.750
 7809TIP3   OH223390   4.875   4.202   3.919
 7809TIP3    H123391   4.958   4.159   3.940
 7809TIP3    H223392   4.897   4.262   3.847
 7810TIP3   OH223393   5.551   5.013   4.943
 7810TIP3    H123394   5.512   4.938   4.899
 7810TIP3    H223395   5.546   5.084   4.878
 7811TIP3   OH223396   0.022   1.460   2.753
 7811TIP3    H123397   0.117   1.467   2.739
 7811TIP3    H223398   0.005   1.513   2.831
 7812TIP3   OH223399   0.512   0.658   5.026
 7812TIP3    H123400   0.457   0.590   4.988
 7812TIP3    H223401   0.475   0.674   5.112
 7813TIP3   OH223402   4.174   6.787   0.227
 7813TIP3    H123403   4.169   6.698   0.194
 7813TIP3    H223404   4.266   6.799   0.250
 7814TIP3   OH223405   6.779   0.258   1.171
 7814TIP3    H123406   6.738   0.180   1.208
 7814TIP3    H223407   6.707   0.316   1.150
 7815TIP3   OH223408   2.520   3.477   1.690
 7815TIP3    H123409   2.504   3.383   1.689
 7815TIP3    H223410   2.597   3.488   1.745
 7816TIP3   OH223411   0.798   5.165   3.462
 7816TIP3    H123412   0.859   5.231   3.496
 7816TIP3    H223413   0.830   5.146   3.374
 7817TIP3   OH223414   0.011   1.689   0.342
 7817TIP3    H123415  -0.059   1.727   0.395
 7817TIP3    H223416   0.083   1.751   0.348
 7818TIP3   OH223417   0.988   6.026   2.871
 7818TIP3    H123418   1.065   6.052   2.922
 7818TIP3    H223419   1.023   6.001   2.785
 7819TIP3   OH223420   5.030   5.537   2.558
 7819TIP3    H123421   5.089   5.484   2.505
 7819TIP3    H223422   4.942   5.513   2.529
 7820TIP3   OH223423   5.603   5.228   0.419
 7820TIP3    H123424   5.683   5.236   0.471
 7820TIP3    H223425   5.626   5.173   0.345
 7821TIP3   OH223426   5.971   0.970   0.307
 7821TIP3    H123427   5.894   0.985   0.361
 7821TIP3    H223428   5.994   1.057   0.273
 7822TIP3   OH223429   7.011   1.003   3.503
 7822TIP3    H123430   6.988   0.951   3.580
 7822TIP3    H223431   6.985   1.092   3.526
 7823TIP3   OH223432   1.053   1.907   3.716
 7823TIP3    H123433   0.997   1.972   3.759
 7823TIP3    H223434   1.069   1.944   3.629
 7824TIP3   OH223435   3.896   3.424   0.788
 7824TIP3    H123436   3.971   3.456   0.736
 7824TIP3    H223437   3.820   3.441   0.733
 7825TIP3   OH223438   1.684   2.618   4.946
 7825TIP3    H123439   1.598   2.659   4.955
 7825TIP3    H223440   1.671   2.528   4.977
 7826TIP3   OH223441   1.795   2.894   3.217
 7826TIP3    H123442   1.800   2.973   3.163
 7826TIP3    H223443   1.809   2.926   3.306
 7827TIP3   OH223444   1.655   6.396   1.602
 7827TIP3    H123445   1.583   6.363   1.548
 7827TIP3    H223446   1.645   6.491   1.599
 7828TIP3   OH223447   4.032   2.602   5.439
 7828TIP3    H123448   4.083   2.534   5.395
 7828TIP3    H223449   3.959   2.555   5.479
 7829TIP3   OH223450   7.145   1.878   3.017
 7829TIP3    H123451   7.237   1.891   3.040
 7829TIP3    H223452   7.136   1.783   3.005
 7830TIP3   OH223453   3.906   0.673   5.639
 7830TIP3    H123454   3.925   0.682   5.733
 7830TIP3    H223455   3.847   0.597   5.635
 7831TIP3   OH223456   2.963   3.583   4.781
 7831TIP3    H123457   2.960   3.554   4.872
 7831TIP3    H223458   3.019   3.518   4.737
 7832TIP3   OH223459   0.756   2.139   0.408
 7832TIP3    H123460   0.683   2.077   0.406
 7832TIP3    H223461   0.744   2.188   0.489
 7833TIP3   OH223462   1.028   3.780   3.723
 7833TIP3    H123463   0.947   3.800   3.770
 7833TIP3    H223464   0.999   3.733   3.644
 7834TIP3   OH223465   6.483   4.082   1.221
 7834TIP3    H123466   6.429   4.128   1.156
 7834TIP3    H223467   6.432   4.086   1.302
 7835TIP3   OH223468   2.657   5.796   3.017
 7835TIP3    H123469   2.737   5.801   3.068
 7835TIP3    H223470   2.686   5.775   2.928
 7836TIP3   OH223471   0.021   5.970   4.537
 7836TIP3    H123472   0.114   5.987   4.524
 7836TIP3    H223473   0.018   5.884   4.578
 7837TIP3   OH223474   1.362   3.425   3.300
 7837TIP3    H123475   1.400   3.344   3.334
 7837TIP3    H223476   1.314   3.462   3.374
 7838TIP3   OH223477   2.544   5.643   2.579
 7838TIP3    H123478   2.551   5.547   2.582
 7838TIP3    H223479   2.628   5.674   2.612
 7839TIP3   OH223480   0.795   0.814   1.144
 7839TIP3    H123481   0.748   0.827   1.226
 7839TIP3    H223482   0.736   0.848   1.077
 7840TIP3   OH223483   4.152   0.895   1.135
 7840TIP3    H123484   4.240   0.911   1.102
 7840TIP3    H223485   4.150   0.801   1.154
 7841TIP3   OH223486   3.575   2.481   3.695
 7841TIP3    H123487   3.600   2.437   3.776
 7841TIP3    H223488   3.658   2.512   3.659
 7842TIP3   OH223489   2.714   6.464   2.403
 7842TIP3    H123490   2.720   6.407   2.327
 7842TIP3    H223491   2.623   6.457   2.432
 7843TIP3   OH223492   1.094   3.288   5.049
 7843TIP3    H123493   1.043   3.210   5.069
 7843TIP3    H223494   1.034   3.361   5.065
 7844TIP3   OH223495   6.096   1.921   0.065
 7844TIP3    H123496   6.085   2.016   0.062
 7844TIP3    H223497   6.045   1.889  -0.010
 7845TIP3   OH223498   2.447   3.598   2.490
 7845TIP3    H123499   2.474   3.518   2.535
 7845TIP3    H223500   2.384   3.639   2.550
 7846TIP3   OH223501   6.213   2.618   2.629
 7846TIP3    H123502   6.186   2.528   2.610
 7846TIP3    H223503   6.161   2.642   2.707
 7847TIP3   OH223504   0.097   3.200   0.670
 7847TIP3    H123505   0.062   3.112   0.656
 7847TIP3    H223506   0.040   3.236   0.739
 7848TIP3   OH223507   4.043   5.550   2.778
 7848TIP3    H123508   4.101   5.480   2.808
 7848TIP3    H223509   4.035   5.536   2.684
 7849TIP3   OH223510   4.612   6.364   2.234
 7849TIP3    H123511   4.700   6.391   2.208
 7849TIP3    H223512   4.622   6.328   2.322
 7850TIP3   OH223513   6.174   5.836   3.278
 7850TIP3    H123514   6.152   5.745   3.297
 7850TIP3    H223515   6.128   5.856   3.197
 7851TIP3   OH223516   4.253   3.327   5.307
 7851TIP3    H123517   4.339   3.313   5.346
 7851TIP3    H223518   4.270   3.336   5.213
 7852TIP3   OH223519   2.604   4.018   2.588
 7852TIP3    H123520   2.686   4.045   2.545
 7852TIP3    H223521   2.597   4.075   2.664
 7853TIP3   OH223522   2.440   4.120   3.804
 7853TIP3    H123523   2.505   4.128   3.874
 7853TIP3    H223524   2.491   4.092   3.727
 7854TIP3   OH223525   5.042   0.657   4.441
 7854TIP3    H123526   5.018   0.733   4.389
 7854TIP3    H223527   4.968   0.645   4.501
 7855TIP3   OH223528   4.929   4.058   5.251
 7855TIP3    H123529   4.973   4.089   5.330
 7855TIP3    H223530   4.907   3.967   5.270
 7856TIP3   OH223531   1.491   6.397   5.756
 7856TIP3    H123532   1.476   6.413   5.662
 7856TIP3    H223533   1.466   6.479   5.798
 7857TIP3   OH223534   4.058   2.625   0.468
 7857TIP3    H123535   4.008   2.552   0.504
 7857TIP3    H223536   4.123   2.585   0.411
 7858TIP3   OH223537   2.718   1.169   1.230
 7858TIP3    H123538   2.811   1.187   1.215
 7858TIP3    H223539   2.694   1.107   1.161
 7859TIP3   OH223540   3.463   3.469   2.206
 7859TIP3    H123541   3.468   3.495   2.114
 7859TIP3    H223542   3.401   3.531   2.245
 7860TIP3   OH223543   0.783   3.838   1.955
 7860TIP3    H123544   0.734   3.905   2.002
 7860TIP3    H223545   0.716   3.781   1.916
 7861TIP3   OH223546   5.065   6.172   2.895
 7861TIP3    H123547   5.097   6.229   2.965
 7861TIP3    H223548   5.094   6.085   2.920
 7862TIP3   OH223549   3.863   6.158   1.830
 7862TIP3    H123550   3.858   6.207   1.749
 7862TIP3    H223551   3.952   6.123   1.833
 7863TIP3   OH223552   3.507   2.074   2.842
 7863TIP3    H123553   3.575   2.083   2.908
 7863TIP3    H223554   3.554   2.047   2.763
 7864TIP3   OH223555   6.018   0.498   0.987
 7864TIP3    H123556   6.086   0.433   0.973
 7864TIP3    H223557   6.006   0.500   1.082
 7865TIP3   OH223558   0.834   2.549   0.510
 7865TIP3    H123559   0.868   2.473   0.557
 7865TIP3    H223560   0.854   2.624   0.566
 7866TIP3   OH223561   0.687   4.220   0.461
 7866TIP3    H123562   0.714   4.155   0.526
 7866TIP3    H223563   0.591   4.220   0.466
 7867TIP3   OH223564   1.628   6.081   1.356
 7867TIP3    H123565   1.579   6.026   1.296
 7867TIP3    H223566   1.596   6.170   1.339
 7868TIP3   OH223567   3.704   4.540   3.678
 7868TIP3    H123568   3.673   4.555   3.589
 7868TIP3    H223569   3.666   4.456   3.703
 7869TIP3   OH223570   3.390   3.965   5.297
 7869TIP3    H123571   3.395   3.986   5.204
 7869TIP3    H223572   3.430   3.878   5.304
 7870TIP3   OH223573   6.398   4.838   2.864
 7870TIP3    H123574   6.479   4.826   2.914
 7870TIP3    H223575   6.388   4.933   2.856
 7871TIP3   OH223576   2.406   5.207   2.076
 7871TIP3    H123577   2.490   5.254   2.073
 7871TIP3    H223578   2.421   5.128   2.024
 7872TIP3   OH223579   3.952   5.198   2.985
 7872TIP3    H123580   3.998   5.222   2.905
 7872TIP3    H223581   3.860   5.205   2.963
 7873TIP3   OH223582   2.346   1.937   3.485
 7873TIP3    H123583   2.261   1.963   3.452
 7873TIP3    H223584   2.403   2.011   3.466
 7874TIP3   OH223585   2.065   1.443   0.664
 7874TIP3    H123586   1.973   1.469   0.655
 7874TIP3    H223587   2.089   1.469   0.753
 7875TIP3   OH223588   0.523   5.324   2.465
 7875TIP3    H123589   0.538   5.382   2.391
 7875TIP3    H223590   0.594   5.260   2.461
 7876TIP3   OH223591   5.865   2.852   4.426
 7876TIP3    H123592   5.908   2.875   4.508
 7876TIP3    H223593   5.936   2.850   4.361
 7877TIP3   OH223594   5.595   0.953   0.338
 7877TIP3    H123595   5.610   0.875   0.283
 7877TIP3    H223596   5.661   0.947   0.406
 7878TIP3   OH223597   6.173   0.226   1.926
 7878TIP3    H123598   6.215   0.162   1.984
 7878TIP3    H223599   6.211   0.310   1.950
 7879TIP3   OH223600   3.115   2.543   3.732
 7879TIP3    H123601   3.068   2.462   3.754
 7879TIP3    H223602   3.089   2.605   3.800
 7880TIP3   OH223603   3.858   1.939   0.083
 7880TIP3    H123604   3.884   1.870   0.144
 7880TIP3    H223605   3.934   1.951   0.026
 7881TIP3   OH223606   4.047   4.130   2.081
 7881TIP3    H123607   4.077   4.202   2.026
 7881TIP3    H223608   4.076   4.154   2.169
 7882TIP3   OH223609   6.319   3.770   3.773
 7882TIP3    H123610   6.384   3.777   3.704
 7882TIP3    H223611   6.326   3.852   3.821
 7883TIP3   OH223612   2.644   4.911   0.336
 7883TIP3    H123613   2.550   4.898   0.322
 7883TIP3    H223614   2.683   4.825   0.323
 7884TIP3   OH223615   5.146   1.942   1.592
 7884TIP3    H123616   5.099   1.951   1.509
 7884TIP3    H223617   5.079   1.954   1.659
 7885TIP3   OH223618   3.133   0.405   3.598
 7885TIP3    H123619   3.050   0.417   3.554
 7885TIP3    H223620   3.151   0.489   3.641
 7886TIP3   OH223621   1.289   5.888   2.517
 7886TIP3    H123622   1.340   5.854   2.591
 7886TIP3    H223623   1.329   5.974   2.498
 7887TIP3   OH223624   3.806   2.860   0.702
 7887TIP3    H123625   3.867   2.829   0.770
 7887TIP3    H223626   3.731   2.894   0.751
 7888TIP3   OH223627   4.992   6.332   3.155
 7888TIP3    H123628   4.984   6.380   3.238
 7888TIP3    H223629   4.908   6.288   3.145
 7889TIP3   OH223630   2.643   4.421   1.181
 7889TIP3    H123631   2.640   4.356   1.111
 7889TIP3    H223632   2.678   4.373   1.257
 7890TIP3   OH223633   3.269   2.006   1.825
 7890TIP3    H123634   3.229   2.090   1.845
 7890TIP3    H223635   3.358   2.026   1.798
 7891TIP3   OH223636   0.204   2.988   2.412
 7891TIP3    H123637   0.149   2.930   2.360
 7891TIP3    H223638   0.147   3.061   2.437
 7892TIP3   OH223639   5.225   0.814   2.677
 7892TIP3    H123640   5.206   0.888   2.618
 7892TIP3    H223641   5.309   0.780   2.646
 7893TIP3   OH223642   0.045   2.832   1.389
 7893TIP3    H123643   0.125   2.869   1.427
 7893TIP3    H223644  -0.025   2.891   1.416
 7894TIP3   OH223645   6.772   2.476   2.308
 7894TIP3    H123646   6.842   2.541   2.301
 7894TIP3    H223647   6.737   2.469   2.219
 7895TIP3   OH223648   3.427   3.011   1.809
 7895TIP3    H123649   3.406   3.048   1.895
 7895TIP3    H223650   3.447   3.087   1.754
 7896TIP3   OH223651   1.665   1.186   4.216
 7896TIP3    H123652   1.668   1.161   4.308
 7896TIP3    H223653   1.656   1.281   4.217
 7897TIP3   OH223654   0.053   5.762   5.656
 7897TIP3    H123655   0.050   5.681   5.604
 7897TIP3    H223656   0.051   5.832   5.592
 7898TIP3   OH223657   2.583   5.984   5.400
 7898TIP3    H123658   2.515   6.042   5.436
 7898TIP3    H223659   2.534   5.914   5.358
 7899TIP3   OH223660   5.739   0.529   3.966
 7899TIP3    H123661   5.747   0.544   4.061
 7899TIP3    H223662   5.806   0.584   3.927
 7900TIP3   OH223663   1.949   5.991   4.718
 7900TIP3    H123664   1.932   6.063   4.657
 7900TIP3    H223665   2.006   5.931   4.669
 7901TIP3   OH223666   1.069   2.945   2.550
 7901TIP3    H123667   1.153   2.947   2.503
 7901TIP3    H223668   1.004   2.970   2.484
 7902TIP3   OH223669   0.547   5.586   1.825
 7902TIP3    H123670   0.544   5.491   1.815
 7902TIP3    H223671   0.487   5.619   1.758
 7903TIP3   OH223672   2.538   2.136   1.208
 7903TIP3    H123673   2.538   2.064   1.144
 7903TIP3    H223674   2.498   2.097   1.286
 7904TIP3   OH223675   0.802   0.621   5.013
 7904TIP3    H123676   0.827   0.677   5.086
 7904TIP3    H223677   0.708   0.607   5.024
 7905TIP3   OH223678   4.818   5.035   5.844
 7905TIP3    H123679   4.790   4.943   5.834
 7905TIP3    H223680   4.741   5.086   5.817
 7906TIP3   OH223681   4.179   1.677   5.388
 7906TIP3    H123682   4.214   1.730   5.460
 7906TIP3    H223683   4.130   1.738   5.334
 7907TIP3   OH223684   6.513   3.190   3.079
 7907TIP3    H123685   6.543   3.260   3.021
 7907TIP3    H223686   6.440   3.228   3.128
 7908TIP3   OH223687   6.655   1.631   2.685
 7908TIP3    H123688   6.591   1.577   2.731
 7908TIP3    H223689   6.706   1.569   2.633
 7909TIP3   OH223690   2.906   0.666   0.264
 7909TIP3    H123691   2.820   0.650   0.225
 7909TIP3    H223692   2.945   0.734   0.210
 7910TIP3   OH223693   4.688   1.529   3.774
 7910TIP3    H123694   4.753   1.467   3.805
 7910TIP3    H223695   4.718   1.614   3.807
 7911TIP3   OH223696   3.847   1.872   0.751
 7911TIP3    H123697   3.940   1.892   0.762
 7911TIP3    H223698   3.844   1.776   0.750
 7912TIP3   OH223699   3.254   3.156   3.675
 7912TIP3    H123700   3.251   3.071   3.719
 7912TIP3    H223701   3.335   3.153   3.623
 7913TIP3   OH223702   6.281   2.755   0.983
 7913TIP3    H123703   6.292   2.784   0.893
 7913TIP3    H223704   6.293   2.660   0.980
 7914TIP3   OH223705   2.788   5.203   3.928
 7914TIP3    H123706   2.701   5.223   3.962
 7914TIP3    H223707   2.830   5.288   3.920
 7915TIP3   OH223708   0.593   2.143   5.116
 7915TIP3    H123709   0.648   2.211   5.078
 7915TIP3    H223710   0.503   2.172   5.098
 7916TIP3   OH223711   3.763   3.304   5.296
 7916TIP3    H123712   3.849   3.275   5.325
 7916TIP3    H223713   3.734   3.366   5.364
 7917TIP3   OH223714   4.350   6.676   5.572
 7917TIP3    H123715   4.313   6.612   5.510
 7917TIP3    H223716   4.367   6.754   5.519
 7918TIP3   OH223717   5.127   6.039   0.753
 7918TIP3    H123718   5.050   6.065   0.702
 7918TIP3    H223719   5.110   6.073   0.841
 7919TIP3   OH223720   1.993   1.947   4.585
 7919TIP3    H123721   2.005   1.858   4.617
 7919TIP3    H223722   1.998   1.939   4.489
 7920TIP3   OH223723   1.771   4.973   3.696
 7920TIP3    H123724   1.733   4.937   3.616
 7920TIP3    H223725   1.829   5.043   3.666
 7921TIP3   OH223726   5.956   6.424   0.337
 7921TIP3    H123727   5.863   6.437   0.319
 7921TIP3    H223728   5.958   6.378   0.421
 7922TIP3   OH223729   1.446   1.383   2.962
 7922TIP3    H123730   1.360   1.345   2.944
 7922TIP3    H223731   1.506   1.309   2.962
 7923TIP3   OH223732   6.908   3.165   1.035
 7923TIP3    H123733   6.936   3.078   1.061
 7923TIP3    H223734   6.889   3.210   1.117
 7924TIP3   OH223735   5.160   1.520   1.727
 7924TIP3    H123736   5.081   1.546   1.680
 7924TIP3    H223737   5.130   1.501   1.816
 7925TIP3   OH223738   6.925   6.632   4.072
 7925TIP3    H123739   6.849   6.657   4.019
 7925TIP3    H223740   6.963   6.558   4.026
 7926TIP3   OH223741   3.422   5.913   2.989
 7926TIP3    H123742   3.438   5.913   3.084
 7926TIP3    H223743   3.337   5.957   2.980
 7927TIP3   OH223744   0.856   6.206   4.765
 7927TIP3    H123745   0.783   6.211   4.827
 7927TIP3    H223746   0.898   6.122   4.784
 7928TIP3   OH223747   5.357   1.140   1.358
 7928TIP3    H123748   5.349   1.119   1.451
 7928TIP3    H223749   5.404   1.223   1.357
 7929TIP3   OH223750   2.481   1.997   5.479
 7929TIP3    H123751   2.537   1.975   5.554
 7929TIP3    H223752   2.448   2.084   5.498
 7930TIP3   OH223753   3.824   3.724   2.246
 7930TIP3    H123754   3.784   3.798   2.292
 7930TIP3    H223755   3.805   3.648   2.300
 7931TIP3   OH223756   1.741   5.041   4.471
 7931TIP3    H123757   1.752   5.051   4.565
 7931TIP3    H223758   1.708   5.125   4.441
 7932TIP3   OH223759   4.531   6.357   2.886
 7932TIP3    H123760   4.572   6.441   2.864
 7932TIP3    H223761   4.603   6.300   2.910
 7933TIP3   OH223762   6.116   6.308   3.771
 7933TIP3    H123763   6.067   6.230   3.744
 7933TIP3    H223764   6.208   6.281   3.765
 7934TIP3   OH223765   4.015   4.142   3.737
 7934TIP3    H123766   4.083   4.208   3.727
 7934TIP3    H223767   4.047   4.084   3.806
 7935TIP3   OH223768   3.779   4.907   5.180
 7935TIP3    H123769   3.724   4.834   5.210
 7935TIP3    H223770   3.865   4.869   5.167
 7936TIP3   OH223771   3.440   3.120   0.641
 7936TIP3    H123772   3.464   3.031   0.665
 7936TIP3    H223773   3.350   3.130   0.673
 7937TIP3   OH223774   7.096   5.881   4.326
 7937TIP3    H123775   7.146   5.938   4.268
 7937TIP3    H223776   7.132   5.897   4.413
 7938TIP3   OH223777   4.714   3.638   3.589
 7938TIP3    H123778   4.625   3.673   3.597
 7938TIP3    H223779   4.760   3.704   3.537
 7939TIP3   OH223780   3.128   4.713   4.439
 7939TIP3    H123781   3.184   4.635   4.447
 7939TIP3    H223782   3.189   4.784   4.421
 7940TIP3   OH223783   0.157   1.174   5.323
 7940TIP3    H123784   0.204   1.256   5.339
 7940TIP3    H223785   0.220   1.106   5.346
 7941TIP3   OH223786   7.070   1.206   4.874
 7941TIP3    H123787   7.152   1.255   4.880
 7941TIP3    H223788   7.014   1.246   4.941
 7942TIP3   OH223789   6.760   5.907   3.108
 7942TIP3    H123790   6.761   6.003   3.110
 7942TIP3    H223791   6.669   5.884   3.126
 7943TIP3   OH223792   4.593   6.148   4.349
 7943TIP3    H123793   4.519   6.164   4.291
 7943TIP3    H223794   4.572   6.197   4.429
 7944TIP3   OH223795   1.300   4.650   3.372
 7944TIP3    H123796   1.228   4.714   3.373
 7944TIP3    H223797   1.337   4.659   3.284
 7945TIP3   OH223798   3.882   2.704   1.202
 7945TIP3    H123799   3.801   2.756   1.203
 7945TIP3    H223800   3.852   2.613   1.204
 7946TIP3   OH223801   2.659   0.830   4.750
 7946TIP3    H123802   2.591   0.894   4.729
 7946TIP3    H223803   2.730   0.850   4.689
 7947TIP3   OH223804   2.343   4.058   2.832
 7947TIP3    H123805   2.369   4.105   2.753
 7947TIP3    H223806   2.426   4.037   2.876
 7948TIP3   OH223807   0.410   5.031   3.352
 7948TIP3    H123808   0.460   4.975   3.292
 7948TIP3    H223809   0.336   5.060   3.300
 7949TIP3   OH223810   3.630   1.238   1.481
 7949TIP3    H123811   3.717   1.248   1.520
 7949TIP3    H223812   3.604   1.327   1.459
 7950TIP3   OH223813   5.563   4.843   0.082
 7950TIP3    H123814   5.516   4.774   0.128
 7950TIP3    H223815   5.503   4.871   0.012
 7951TIP3   OH223816   3.239   2.605   3.477
 7951TIP3    H123817   3.248   2.585   3.570
 7951TIP3    H223818   3.174   2.675   3.474
 7952TIP3   OH223819   5.650   4.541   0.345
 7952TIP3    H123820   5.615   4.598   0.277
 7952TIP3    H223821   5.622   4.453   0.320
 7953TIP3   OH223822   2.946   0.834   2.381
 7953TIP3    H123823   2.931   0.863   2.291
 7953TIP3    H223824   3.027   0.783   2.377
 7954TIP3   OH223825   1.198   0.032   5.030
 7954TIP3    H123826   1.268   0.064   4.973
 7954TIP3    H223827   1.120   0.078   5.001
 7955TIP3   OH223828   5.444   1.273   0.864
 7955TIP3    H123829   5.524   1.323   0.882
 7955TIP3    H223830   5.468   1.214   0.793
 7956TIP3   OH223831   5.018   5.572   1.343
 7956TIP3    H123832   5.091   5.510   1.345
 7956TIP3    H223833   5.005   5.597   1.434
 7957TIP3   OH223834   5.578   5.093   4.603
 7957TIP3    H123835   5.641   5.155   4.640
 7957TIP3    H223836   5.610   5.076   4.515
 7958TIP3   OH223837   6.517   6.443   2.861
 7958TIP3    H123838   6.569   6.518   2.831
 7958TIP3    H223839   6.575   6.368   2.851
 7959TIP3   OH223840   4.366   3.248   0.299
 7959TIP3    H123841   4.402   3.197   0.226
 7959TIP3    H223842   4.414   3.219   0.376
 7960TIP3   OH223843   1.610   4.721   5.089
 7960TIP3    H123844   1.646   4.637   5.060
 7960TIP3    H223845   1.618   4.719   5.184
 7961TIP3   OH223846   5.071   1.344   4.491
 7961TIP3    H123847   5.010   1.372   4.423
 7961TIP3    H223848   5.048   1.253   4.509
 7962TIP3   OH223849   4.687   4.173   0.414
 7962TIP3    H123850   4.718   4.143   0.329
 7962TIP3    H223851   4.594   4.152   0.415
 7963TIP3   OH223852   5.784   3.915   3.714
 7963TIP3    H123853   5.845   3.847   3.742
 7963TIP3    H223854   5.835   3.996   3.718
 7964TIP3   OH223855   5.860   2.290   3.234
 7964TIP3    H123856   5.882   2.378   3.206
 7964TIP3    H223857   5.779   2.300   3.285
 7965TIP3   OH223858   7.165   0.247   0.912
 7965TIP3    H123859   7.121   0.163   0.919
 7965TIP3    H223860   7.257   0.226   0.898
 7966TIP3   OH223861   4.443   6.709   2.695
 7966TIP3    H123862   4.497   6.677   2.767
 7966TIP3    H223863   4.495   6.779   2.655
 7967TIP3   OH223864   2.330   2.734   4.245
 7967TIP3    H123865   2.419   2.744   4.211
 7967TIP3    H223866   2.273   2.759   4.172
 7968TIP3   OH223867   5.091   5.225   5.378
 7968TIP3    H123868   5.078   5.317   5.402
 7968TIP3    H223869   5.120   5.183   5.460
 7969TIP3   OH223870   2.002   4.659   0.669
 7969TIP3    H123871   1.930   4.700   0.622
 7969TIP3    H223872   2.064   4.730   0.686
 7970TIP3   OH223873   5.948   4.896   1.763
 7970TIP3    H123874   6.002   4.874   1.840
 7970TIP3    H223875   5.967   4.826   1.700
 7971TIP3   OH223876   3.137   4.961   3.828
 7971TIP3    H123877   3.132   5.048   3.788
 7971TIP3    H223878   3.205   4.970   3.895
 7972TIP3   OH223879   1.014   4.250   3.024
 7972TIP3    H123880   1.073   4.228   3.096
 7972TIP3    H223881   1.043   4.336   2.994
 7973TIP3   OH223882   4.868   1.001   4.906
 7973TIP3    H123883   4.810   0.996   4.831
 7973TIP3    H223884   4.904   1.090   4.903
 7974TIP3   OH223885   6.426   0.365   1.035
 7974TIP3    H123886   6.388   0.452   1.049
 7974TIP3    H223887   6.492   0.378   0.967
 7975TIP3   OH223888   0.212   5.633   3.642
 7975TIP3    H123889   0.270   5.635   3.718
 7975TIP3    H223890   0.136   5.686   3.667
 7976TIP3   OH223891   4.734   1.356   5.926
 7976TIP3    H123892   4.792   1.310   5.865
 7976TIP3    H223893   4.670   1.291   5.952
 7977TIP3   OH223894   3.510   0.062   5.097
 7977TIP3    H123895   3.597   0.022   5.105
 7977TIP3    H223896   3.495   0.067   5.003
 7978TIP3   OH223897   4.114   0.907   2.151
 7978TIP3    H123898   4.160   0.829   2.118
 7978TIP3    H223899   4.043   0.921   2.088
 7979TIP3   OH223900   1.817   0.555   2.772
 7979TIP3    H123901   1.790   0.629   2.719
 7979TIP3    H223902   1.839   0.486   2.709
 7980TIP3   OH223903   2.549   5.863   1.374
 7980TIP3    H123904   2.506   5.814   1.304
 7980TIP3    H223905   2.488   5.860   1.447
 7981TIP3   OH223906   7.016   4.914   4.501
 7981TIP3    H123907   6.985   4.829   4.470
 7981TIP3    H223908   7.064   4.951   4.427
 7982TIP3   OH223909   1.004   0.648   3.284
 7982TIP3    H123910   0.922   0.607   3.311
 7982TIP3    H223911   0.978   0.734   3.251
 7983TIP3   OH223912   4.687   2.747   3.802
 7983TIP3    H123913   4.692   2.679   3.869
 7983TIP3    H223914   4.673   2.828   3.850
 7984TIP3   OH223915   5.095   3.574   0.791
 7984TIP3    H123916   5.147   3.535   0.721
 7984TIP3    H223917   5.084   3.504   0.855
 7985TIP3   OH223918   4.802   3.642   2.542
 7985TIP3    H123919   4.738   3.581   2.507
 7985TIP3    H223920   4.863   3.587   2.591
 7986TIP3   OH223921   1.230   2.225   1.691
 7986TIP3    H123922   1.134   2.232   1.701
 7986TIP3    H223923   1.259   2.316   1.685
 7987TIP3   OH223924   2.893   5.839   1.659
 7987TIP3    H123925   2.836   5.785   1.713
 7987TIP3    H223926   2.841   5.862   1.582
 7988TIP3   OH223927   0.905   6.180   5.396
 7988TIP3    H123928   0.828   6.235   5.382
 7988TIP3    H223929   0.878   6.093   5.367
 7989TIP3   OH223930   4.286   6.263   2.758
 7989TIP3    H123931   4.356   6.304   2.809
 7989TIP3    H223932   4.319   6.264   2.668
 7990TIP3   OH223933   0.924   0.558   2.735
 7990TIP3    H123934   0.905   0.651   2.724
 7990TIP3    H223935   0.992   0.555   2.802
 7991TIP3   OH223936   1.439   0.955   3.479
 7991TIP3    H123937   1.495   0.907   3.418
 7991TIP3    H223938   1.478   0.940   3.565
 7992TIP3   OH223939   4.430   1.311   2.157
 7992TIP3    H123940   4.426   1.313   2.061
 7992TIP3    H223941   4.454   1.400   2.182
 7993TIP3   OH223942   5.023   5.734   3.314
 7993TIP3    H123943   5.069   5.675   3.374
 7993TIP3    H223944   5.056   5.710   3.227
 7994TIP3   OH223945   0.713   1.821   0.705
 7994TIP3    H123946   0.723   1.910   0.671
 7994TIP3    H223947   0.626   1.821   0.746
 7995TIP3   OH223948   0.455   3.419   3.721
 7995TIP3    H123949   0.532   3.445   3.772
 7995TIP3    H223950   0.489   3.399   3.634
 7996TIP3   OH223951   5.496   3.834   3.612
 7996TIP3    H123952   5.499   3.916   3.661
 7996TIP3    H223953   5.562   3.845   3.543
 7997TIP3   OH223954   1.359   3.748   1.721
 7997TIP3    H123955   1.453   3.765   1.713
 7997TIP3    H223956   1.334   3.787   1.805
 7998TIP3   OH223957   3.623   0.756   3.537
 7998TIP3    H123958   3.618   0.775   3.443
 7998TIP3    H223959   3.599   0.664   3.544
 7999TIP3   OH223960   6.664   3.222   5.197
 7999TIP3    H123961   6.692   3.298   5.248
 7999TIP3    H223962   6.593   3.183   5.248
 8000TIP3   OH223963   2.524   2.044   0.836
 8000TIP3    H123964   2.459   2.011   0.898
 8000TIP3    H223965   2.541   2.134   0.866
 8001TIP3   OH223966   5.746   3.140   0.448
 8001TIP3    H123967   5.727   3.066   0.390
 8001TIP3    H223968   5.797   3.102   0.519
 8002TIP3   OH223969   1.110   0.229   3.474
 8002TIP3    H123970   1.027   0.185   3.452
 8002TIP3    H223971   1.170   0.158   3.495
 8003TIP3   OH223972   5.353   5.548   1.986
 8003TIP3    H123973   5.352   5.590   1.900
 8003TIP3    H223974   5.262   5.550   2.014
 8004TIP3   OH223975   4.440   4.716   3.214
 8004TIP3    H123976   4.414   4.690   3.302
 8004TIP3    H223977   4.531   4.687   3.207
 8005TIP3   OH223978   2.059   1.469   3.838
 8005TIP3    H123979   2.115   1.544   3.857
 8005TIP3    H223980   2.008   1.495   3.762
 8006TIP3   OH223981   3.644   5.761   2.918
 8006TIP3    H123982   3.643   5.757   2.822
 8006TIP3    H223983   3.562   5.804   2.941
 8007TIP3   OH223984   3.373   0.614   1.354
 8007TIP3    H123985   3.357   0.673   1.428
 8007TIP3    H223986   3.313   0.644   1.287
 8008TIP3   OH223987   2.514   2.169   3.434
 8008TIP3    H123988   2.539   2.179   3.343
 8008TIP3    H223989   2.516   2.258   3.470
 8009TIP3   OH223990   3.781   1.231   2.597
 8009TIP3    H123991   3.705   1.243   2.540
 8009TIP3    H223992   3.763   1.286   2.673
 8010TIP3   OH223993   6.643   5.940   4.461
 8010TIP3    H123994   6.559   5.986   4.455
 8010TIP3    H223995   6.700   5.986   4.399
 8011TIP3   OH223996   0.839   1.677   2.830
 8011TIP3    H123997   0.809   1.649   2.917
 8011TIP3    H223998   0.808   1.767   2.822
 8012TIP3   OH223999   4.881   4.803   1.959
 8012TIP3    H124000   4.832   4.757   2.027
 8012TIP3    H224001   4.832   4.884   1.944
 8013TIP3   OH224002   4.240   2.934   1.023
 8013TIP3    H124003   4.214   2.842   1.024
 8013TIP3    H224004   4.287   2.946   1.106
 8014TIP3   OH224005   0.180   6.355   5.689
 8014TIP3    H124006   0.184   6.302   5.769
 8014TIP3    H224007   0.269   6.388   5.677
 8015TIP3   OH224008   0.121   2.795   1.677
 8015TIP3    H124009   0.182   2.839   1.619
 8015TIP3    H224010   0.095   2.862   1.741
 8016TIP3   OH224011   0.049   4.699   2.023
 8016TIP3    H124012   0.069   4.744   1.941
 8016TIP3    H224013  -0.045   4.683   2.020
 8017TIP3   OH224014   3.198   3.418   3.831
 8017TIP3    H124015   3.249   3.341   3.805
 8017TIP3    H224016   3.242   3.449   3.911
 8018TIP3   OH224017   4.531   6.097   2.490
 8018TIP3    H124018   4.462   6.156   2.460
 8018TIP3    H224019   4.583   6.079   2.411
 8019TIP3   OH224020   3.260   3.698   4.722
 8019TIP3    H124021   3.212   3.660   4.796
 8019TIP3    H224022   3.332   3.638   4.707
 8020TIP3   OH224023   5.204   6.572   2.975
 8020TIP3    H124024   5.226   6.658   3.012
 8020TIP3    H224025   5.232   6.510   3.042
 8021TIP3   OH224026   5.771   5.334   3.740
 8021TIP3    H124027   5.826   5.256   3.742
 8021TIP3    H224028   5.708   5.321   3.811
 8022TIP3   OH224029   2.656   3.060   4.406
 8022TIP3    H124030   2.644   2.966   4.422
 8022TIP3    H224031   2.607   3.102   4.477
 8023TIP3   OH224032   2.169   5.082   0.882
 8023TIP3    H124033   2.230   5.083   0.809
 8023TIP3    H224034   2.117   5.161   0.872
 8024TIP3   OH224035   5.306   3.919   4.961
 8024TIP3    H124036   5.245   3.976   5.009
 8024TIP3    H224037   5.267   3.831   4.969
 8025TIP3   OH224038   0.624   0.185   0.913
 8025TIP3    H124039   0.589   0.096   0.908
 8025TIP3    H224040   0.698   0.185   0.852
 8026TIP3   OH224041   4.564   1.135   4.860
 8026TIP3    H124042   4.581   1.042   4.872
 8026TIP3    H224043   4.498   1.138   4.791
 8027TIP3   OH224044   3.430   3.685   1.709
 8027TIP3    H124045   3.384   3.681   1.625
 8027TIP3    H224046   3.522   3.675   1.686
 8028TIP3   OH224047   0.620   6.250   5.473
 8028TIP3    H124048   0.653   6.229   5.560
 8028TIP3    H224049   0.554   6.184   5.455
 8029TIP3   OH224050   0.606   2.512   0.063
 8029TIP3    H124051   0.645   2.428   0.085
 8029TIP3    H224052   0.623   2.523  -0.030
 8030TIP3   OH224053   1.588   2.432   5.804
 8030TIP3    H124054   1.579   2.347   5.846
 8030TIP3    H224055   1.676   2.432   5.768
 8031TIP3   OH224056   5.866   1.640   4.593
 8031TIP3    H124057   5.803   1.701   4.633
 8031TIP3    H224058   5.912   1.602   4.668
 8032TIP3   OH224059   0.121   6.494   2.568
 8032TIP3    H124060   0.183   6.567   2.564
 8032TIP3    H224061   0.097   6.488   2.661
 8033TIP3   OH224062   6.271   3.935   0.989
 8033TIP3    H124063   6.301   4.024   0.970
 8033TIP3    H224064   6.176   3.943   0.997
 8034TIP3   OH224065   1.705   6.099   4.003
 8034TIP3    H124066   1.796   6.099   3.974
 8034TIP3    H224067   1.688   6.190   4.031
 8035TIP3   OH224068   4.971   1.226   4.842
 8035TIP3    H124069   5.044   1.286   4.855
 8035TIP3    H224070   4.894   1.282   4.839
 8036TIP3   OH224071   5.551   4.778   1.095
 8036TIP3    H124072   5.582   4.768   1.005
 8036TIP3    H224073   5.560   4.691   1.134
 8037TIP3   OH224074   6.861   4.523   2.760
 8037TIP3    H124075   6.903   4.437   2.763
 8037TIP3    H224076   6.798   4.522   2.833
 8038TIP3   OH224077   6.805   4.779   1.051
 8038TIP3    H124078   6.829   4.723   1.125
 8038TIP3    H224079   6.766   4.856   1.092
 8039TIP3   OH224080   4.883   3.846   3.428
 8039TIP3    H124081   4.918   3.797   3.354
 8039TIP3    H224082   4.808   3.893   3.392
 8040TIP3   OH224083   1.500   3.315   5.577
 8040TIP3    H124084   1.552   3.302   5.498
 8040TIP3    H224085   1.424   3.366   5.548
 8041TIP3   OH224086   3.943   1.636   0.686
 8041TIP3    H124087   4.016   1.660   0.744
 8041TIP3    H224088   3.981   1.638   0.598
 8042TIP3   OH224089   6.429   5.943   2.208
 8042TIP3    H124090   6.375   5.866   2.190
 8042TIP3    H224091   6.518   5.916   2.189
 8043TIP3   OH224092   3.976   2.558   1.657
 8043TIP3    H124093   3.996   2.652   1.658
 8043TIP3    H224094   4.044   2.519   1.711
 8044TIP3   OH224095   4.923   1.629   1.873
 8044TIP3    H124096   4.930   1.719   1.841
 8044TIP3    H224097   4.853   1.633   1.939
 8045TIP3   OH224098   0.285   5.262   2.600
 8045TIP3    H124099   0.289   5.167   2.592
 8045TIP3    H224100   0.354   5.294   2.542
 8046TIP3   OH224101   2.089   1.096   1.320
 8046TIP3    H124102   2.074   1.093   1.225
 8046TIP3    H224103   2.183   1.113   1.329
 8047TIP3   OH224104   2.793   1.054   5.202
 8047TIP3    H124105   2.853   1.114   5.246
 8047TIP3    H224106   2.822   0.967   5.229
 8048TIP3   OH224107   4.639   1.729   1.071
 8048TIP3    H124108   4.588   1.808   1.051
 8048TIP3    H224109   4.585   1.680   1.134
 8049TIP3   OH224110   4.862   5.448   4.481
 8049TIP3    H124111   4.815   5.450   4.565
 8049TIP3    H224112   4.812   5.507   4.425
 8050TIP3   OH224113   6.930   4.199   0.220
 8050TIP3    H124114   6.932   4.122   0.277
 8050TIP3    H224115   7.022   4.227   0.215
 8051TIP3   OH224116   1.435   1.377   1.675
 8051TIP3    H124117   1.517   1.404   1.715
 8051TIP3    H224118   1.410   1.450   1.619
 8052TIP3   OH224119   3.250   0.828   0.322
 8052TIP3    H124120   3.324   0.771   0.343
 8052TIP3    H224121   3.272   0.911   0.365
 8053TIP3   OH224122   4.073   0.215   0.315
 8053TIP3    H124123   4.078   0.120   0.302
 8053TIP3    H224124   4.147   0.236   0.371
 8054TIP3   OH224125   2.622   0.637   4.070
 8054TIP3    H124126   2.633   0.708   4.006
 8054TIP3    H224127   2.555   0.581   4.032
 8055TIP3   OH224128   3.518   0.307   5.230
 8055TIP3    H124129   3.504   0.230   5.175
 8055TIP3    H224130   3.462   0.375   5.192
 8056TIP3   OH224131   6.583   0.173   5.306
 8056TIP3    H124132   6.546   0.106   5.364
 8056TIP3    H224133   6.607   0.126   5.227
 8057TIP3   OH224134   6.657   1.584   0.784
 8057TIP3    H124135   6.623   1.580   0.694
 8057TIP3    H224136   6.591   1.635   0.832
 8058TIP3   OH224137   5.341   0.343   2.487
 8058TIP3    H124138   5.376   0.432   2.491
 8058TIP3    H224139   5.262   0.351   2.433
 8059TIP3   OH224140   6.625   5.421   0.174
 8059TIP3    H124141   6.555   5.407   0.238
 8059TIP3    H224142   6.704   5.429   0.227
 8060TIP3   OH224143   0.793   3.500   5.331
 8060TIP3    H124144   0.714   3.490   5.385
 8060TIP3    H224145   0.859   3.532   5.392
 8061TIP3   OH224146   7.045   2.287   4.147
 8061TIP3    H124147   6.994   2.234   4.086
 8061TIP3    H224148   7.127   2.304   4.101
 8062TIP3   OH224149   3.870   0.828   1.406
 8062TIP3    H124150   3.879   0.881   1.485
 8062TIP3    H224151   3.782   0.849   1.373
 8063TIP3   OH224152   3.140   3.387   1.140
 8063TIP3    H124153   3.168   3.405   1.051
 8063TIP3    H224154   3.125   3.292   1.142
 8064TIP3   OH224155   5.172   0.974   0.132
 8064TIP3    H124156   5.156   1.069   0.134
 8064TIP3    H224157   5.212   0.956   0.218
 8065TIP3   OH224158   1.453   6.374   2.310
 8065TIP3    H124159   1.442   6.397   2.402
 8065TIP3    H224160   1.370   6.335   2.284
 8066TIP3   OH224161   5.527   5.330   0.068
 8066TIP3    H124162   5.452   5.279   0.037
 8066TIP3    H224163   5.599   5.267   0.072
 8067TIP3   OH224164   0.964   0.654   4.205
 8067TIP3    H124165   0.906   0.584   4.235
 8067TIP3    H224166   0.950   0.725   4.268
 8068TIP3   OH224167   4.242   4.906   3.878
 8068TIP3    H124168   4.148   4.906   3.896
 8068TIP3    H224169   4.272   4.991   3.909
 8069TIP3   OH224170   2.989   3.940   0.972
 8069TIP3    H124171   3.029   3.875   0.915
 8069TIP3    H224172   3.024   3.921   1.059
 8070TIP3   OH224173   5.783   2.015   1.829
 8070TIP3    H124174   5.697   2.056   1.838
 8070TIP3    H224175   5.763   1.921   1.822
 8071TIP3   OH224176   6.880   1.775   2.332
 8071TIP3    H124177   6.937   1.705   2.364
 8071TIP3    H224178   6.791   1.744   2.348
 8072TIP3   OH224179   2.268   4.254   4.000
 8072TIP3    H124180   2.289   4.194   3.928
 8072TIP3    H224181   2.317   4.334   3.979
 8073TIP3   OH224182   1.619   2.301   4.371
 8073TIP3    H124183   1.694   2.298   4.431
 8073TIP3    H224184   1.543   2.316   4.427
 8074TIP3   OH224185   1.428   5.866   1.874
 8074TIP3    H124186   1.344   5.903   1.848
 8074TIP3    H224187   1.406   5.784   1.918
 8075TIP3   OH224188   4.851   1.469   4.902
 8075TIP3    H124189   4.761   1.443   4.924
 8075TIP3    H224190   4.856   1.561   4.928
 8076TIP3   OH224191   4.239   2.317   2.762
 8076TIP3    H124192   4.213   2.385   2.823
 8076TIP3    H224193   4.277   2.248   2.817
 8077TIP3   OH224194   6.342   5.145   3.716
 8077TIP3    H124195   6.299   5.085   3.777
 8077TIP3    H224196   6.408   5.190   3.769
 8078TIP3   OH224197   5.086   6.759   4.989
 8078TIP3    H124198   5.087   6.728   4.899
 8078TIP3    H224199   5.178   6.773   5.011
 8079TIP3   OH224200   0.678   4.692   4.936
 8079TIP3    H124201   0.672   4.704   5.030
 8079TIP3    H224202   0.586   4.690   4.906
 8080TIP3   OH224203   2.189   1.103   3.302
 8080TIP3    H124204   2.103   1.089   3.263
 8080TIP3    H224205   2.186   1.054   3.384
 8081TIP3   OH224206   1.326   1.877   1.867
 8081TIP3    H124207   1.233   1.858   1.857
 8081TIP3    H224208   1.348   1.848   1.955
 8082TIP3   OH224209   1.346   4.480   0.203
 8082TIP3    H124210   1.337   4.485   0.298
 8082TIP3    H224211   1.409   4.548   0.181
 8083TIP3   OH224212   1.299   5.243   5.626
 8083TIP3    H124213   1.224   5.216   5.680
 8083TIP3    H224214   1.318   5.166   5.573
 8084TIP3   OH224215   3.275   5.271   0.212
 8084TIP3    H124216   3.231   5.208   0.269
 8084TIP3    H224217   3.215   5.283   0.139
 8085TIP3   OH224218   4.051   4.261   2.803
 8085TIP3    H124219   4.035   4.345   2.760
 8085TIP3    H224220   3.966   4.237   2.839
 8086TIP3   OH224221   5.928   0.285   1.242
 8086TIP3    H124222   5.902   0.204   1.286
 8086TIP3    H224223   6.020   0.296   1.263
 8087TIP3   OH224224   6.474   4.408   5.321
 8087TIP3    H124225   6.407   4.390   5.255
 8087TIP3    H224226   6.449   4.353   5.396
 8088TIP3   OH224227   5.628   4.879   4.384
 8088TIP3    H124228   5.683   4.802   4.401
 8088TIP3    H224229   5.548   4.863   4.434
 8089TIP3   OH224230   5.389   3.596   4.047
 8089TIP3    H124231   5.437   3.658   3.992
 8089TIP3    H224232   5.392   3.635   4.135
 8090TIP3   OH224233   0.995   1.459   2.780
 8090TIP3    H124234   0.938   1.534   2.797
 8090TIP3    H224235   1.041   1.481   2.700
 8091TIP3   OH224236   0.015   3.427   1.484
 8091TIP3    H124237   0.078   3.366   1.445
 8091TIP3    H224238  -0.052   3.370   1.522
 8092TIP3   OH224239   4.476   4.404   4.035
 8092TIP3    H124240   4.404   4.438   3.981
 8092TIP3    H224241   4.527   4.482   4.059
 8093TIP3   OH224242   0.466   1.021   1.815
 8093TIP3    H124243   0.447   0.965   1.890
 8093TIP3    H224244   0.381   1.056   1.788
 8094TIP3   OH224245   5.352   0.295   3.224
 8094TIP3    H124246   5.354   0.200   3.228
 8094TIP3    H224247   5.427   0.324   3.275
 8095TIP3   OH224248   3.824   0.671   1.673
 8095TIP3    H124249   3.829   0.722   1.592
 8095TIP3    H224250   3.742   0.622   1.666
 8096TIP3   OH224251   3.438   2.152   0.250
 8096TIP3    H124252   3.517   2.183   0.295
 8096TIP3    H224253   3.466   2.133   0.161
 8097TIP3   OH224254   4.122   5.280   0.461
 8097TIP3    H124255   4.167   5.198   0.437
 8097TIP3    H224256   4.193   5.339   0.487
 8098TIP3   OH224257   1.119   0.210   0.460
 8098TIP3    H124258   1.169   0.222   0.380
 8098TIP3    H224259   1.103   0.115   0.465
 8099TIP3   OH224260   0.129   5.351   1.398
 8099TIP3    H124261   0.120   5.388   1.487
 8099TIP3    H224262   0.220   5.369   1.374
 8100TIP3   OH224263   4.525   5.691   3.902
 8100TIP3    H124264   4.587   5.754   3.867
 8100TIP3    H224265   4.542   5.611   3.854
 8101TIP3   OH224266   5.275   5.466   3.277
 8101TIP3    H124267   5.261   5.548   3.230
 8101TIP3    H224268   5.187   5.428   3.285
 8102TIP3   OH224269   4.277   5.850   1.958
 8102TIP3    H124270   4.300   5.926   2.011
 8102TIP3    H224271   4.338   5.854   1.884
 8103TIP3   OH224272   3.108   6.710   4.406
 8103TIP3    H124273   3.162   6.669   4.473
 8103TIP3    H224274   3.019   6.703   4.440
 8104TIP3   OH224275   4.371   0.645   0.556
 8104TIP3    H124276   4.385   0.613   0.645
 8104TIP3    H224277   4.344   0.736   0.567
 8105TIP3   OH224278   1.685   3.251   4.045
 8105TIP3    H124279   1.653   3.249   4.135
 8105TIP3    H224280   1.738   3.172   4.036
 8106TIP3   OH224281   3.281   2.126   5.180
 8106TIP3    H124282   3.346   2.149   5.114
 8106TIP3    H224283   3.217   2.072   5.134
 8107TIP3   OH224284   3.525   6.637   2.287
 8107TIP3    H124285   3.483   6.722   2.295
 8107TIP3    H224286   3.619   6.656   2.288
 8108TIP3   OH224287   7.067   2.368   1.687
 8108TIP3    H124288   7.064   2.440   1.749
 8108TIP3    H224289   7.151   2.378   1.642
 8109TIP3   OH224290   6.791   4.434   1.919
 8109TIP3    H124291   6.733   4.362   1.894
 8109TIP3    H224292   6.861   4.393   1.969
 8110TIP3   OH224293   3.808   4.116   4.044
 8110TIP3    H124294   3.875   4.183   4.056
 8110TIP3    H224295   3.844   4.057   3.977
 8111TIP3   OH224296   2.526   0.012   2.900
 8111TIP3    H124297   2.543   0.089   2.845
 8111TIP3    H224298   2.438  -0.017   2.874
 8112TIP3   OH224299   2.793   3.808   4.803
 8112TIP3    H124300   2.848   3.733   4.780
 8112TIP3    H224301   2.713   3.770   4.837
 8113TIP3   OH224302   0.721   4.804   3.831
 8113TIP3    H124303   0.751   4.752   3.906
 8113TIP3    H224304   0.702   4.739   3.763
 8114TIP3   OH224305   5.095   0.375   4.574
 8114TIP3    H124306   5.164   0.366   4.507
 8114TIP3    H224307   5.050   0.456   4.551
 8115TIP3   OH224308   0.295   0.802   5.447
 8115TIP3    H124309   0.305   0.864   5.375
 8115TIP3    H224310   0.205   0.814   5.476
 8116TIP3   OH224311   1.827   1.506   0.358
 8116TIP3    H124312   1.862   1.439   0.300
 8116TIP3    H224313   1.813   1.461   0.441
 8117TIP3   OH224314   4.211   5.494   0.140
 8117TIP3    H124315   4.274   5.459   0.077
 8117TIP3    H224316   4.226   5.588   0.140
 8118TIP3   OH224317   6.424   4.491   1.939
 8118TIP3    H124318   6.444   4.406   1.979
 8118TIP3    H224319   6.460   4.555   2.001
 8119TIP3   OH224320   2.290   1.843   4.172
 8119TIP3    H124321   2.278   1.849   4.266
 8119TIP3    H224322   2.204   1.864   4.135
 8120TIP3   OH224323   1.521   5.561   4.623
 8120TIP3    H124324   1.553   5.515   4.701
 8120TIP3    H224325   1.467   5.497   4.578
 8121TIP3   OH224326   3.557   0.058   0.216
 8121TIP3    H124327   3.624   0.029   0.155
 8121TIP3    H224328   3.588   0.027   0.302
 8122TIP3   OH224329   3.293   6.659   0.132
 8122TIP3    H124330   3.277   6.704   0.049
 8122TIP3    H224331   3.326   6.573   0.106
 8123TIP3   OH224332   0.390   5.751   4.132
 8123TIP3    H124333   0.448   5.724   4.202
 8123TIP3    H224334   0.302   5.735   4.166
 8124TIP3   OH224335   3.377   6.100   0.061
 8124TIP3    H124336   3.311   6.078  -0.005
 8124TIP3    H224337   3.364   6.192   0.079
 8125TIP3   OH224338   1.290   0.953   0.691
 8125TIP3    H124339   1.285   0.968   0.786
 8125TIP3    H224340   1.325   1.035   0.656
 8126TIP3   OH224341   3.243   3.706   5.096
 8126TIP3    H124342   3.211   3.705   5.186
 8126TIP3    H224343   3.332   3.742   5.102
 8127TIP3   OH224344   4.766   3.946   1.863
 8127TIP3    H124345   4.819   3.946   1.942
 8127TIP3    H224346   4.675   3.949   1.894
 8128TIP3   OH224347   5.693   2.030   1.284
 8128TIP3    H124348   5.645   1.999   1.361
 8128TIP3    H224349   5.694   1.955   1.224
 8129TIP3   OH224350   0.078   5.193   0.353
 8129TIP3    H124351   0.114   5.205   0.441
 8129TIP3    H224352   0.050   5.101   0.351
 8130TIP3   OH224353   1.033   1.085   3.412
 8130TIP3    H124354   1.002   1.028   3.341
 8130TIP3    H224355   1.095   1.032   3.461
 8131TIP3   OH224356   5.117   3.905   3.826
 8131TIP3    H124357   5.099   3.947   3.742
 8131TIP3    H224358   5.048   3.840   3.836
 8132TIP3   OH224359   1.812   0.182   2.280
 8132TIP3    H124360   1.838   0.274   2.280
 8132TIP3    H224361   1.890   0.135   2.251
 8133TIP3   OH224362   1.841   4.125   2.957
 8133TIP3    H124363   1.864   4.213   2.985
 8133TIP3    H224364   1.925   4.084   2.935
 8134TIP3   OH224365   2.513   2.464   0.636
 8134TIP3    H124366   2.577   2.534   0.619
 8134TIP3    H224367   2.445   2.478   0.570
 8135TIP3   OH224368   1.242   5.129   3.969
 8135TIP3    H124369   1.307   5.078   3.921
 8135TIP3    H224370   1.288   5.159   4.047
 8136TIP3   OH224371   3.087   0.405   2.380
 8136TIP3    H124372   3.068   0.311   2.388
 8136TIP3    H224373   3.013   0.439   2.329
 8137TIP3   OH224374   1.684   4.045   5.831
 8137TIP3    H124375   1.671   4.032   5.737
 8137TIP3    H224376   1.651   3.965   5.871
 8138TIP3   OH224377   6.295   3.514   2.180
 8138TIP3    H124378   6.222   3.577   2.175
 8138TIP3    H224379   6.290   3.478   2.268
 8139TIP3   OH224380   2.983   5.814   2.538
 8139TIP3    H124381   2.968   5.904   2.565
 8139TIP3    H224382   2.932   5.805   2.457
 8140TIP3   OH224383   4.318   0.156   5.441
 8140TIP3    H124384   4.313   0.074   5.391
 8140TIP3    H224385   4.228   0.187   5.445
 8141TIP3   OH224386   1.375   3.471   3.035
 8141TIP3    H124387   1.365   3.453   3.129
 8141TIP3    H224388   1.438   3.543   3.031
 8142TIP3   OH224389   4.926   5.199  -0.019
 8142TIP3    H124390   4.861   5.237  -0.078
 8142TIP3    H224391   4.883   5.196   0.066
 8143TIP3   OH224392   6.897   5.051   2.943
 8143TIP3    H124393   6.836   5.026   2.873
 8143TIP3    H224394   6.907   5.146   2.933
 8144TIP3   OH224395   2.747   2.356   2.066
 8144TIP3    H124396   2.828   2.396   2.096
 8144TIP3    H224397   2.766   2.322   1.979
 8145TIP3   OH224398   1.348   1.890   3.918
 8145TIP3    H124399   1.273   1.831   3.919
 8145TIP3    H224400   1.340   1.940   4.000
 8146TIP3   OH224401   0.681   0.819   2.893
 8146TIP3    H124402   0.736   0.898   2.893
 8146TIP3    H224403   0.722   0.762   2.957
 8147TIP3   OH224404   0.385   0.580   1.298
 8147TIP3    H124405   0.329   0.655   1.278
 8147TIP3    H224406   0.455   0.585   1.233
 8148TIP3   OH224407   6.048   6.538   3.916
 8148TIP3    H124408   6.082   6.461   3.870
 8148TIP3    H224409   5.953   6.527   3.913
 8149TIP3   OH224410   3.997   4.761   5.087
 8149TIP3    H124411   4.051   4.820   5.035
 8149TIP3    H224412   3.982   4.685   5.030
 8150TIP3   OH224413   3.603   1.976   2.028
 8150TIP3    H124414   3.632   1.894   2.069
 8150TIP3    H224415   3.570   1.950   1.942
 8151TIP3   OH224416   5.682   0.270   3.913
 8151TIP3    H124417   5.748   0.216   3.957
 8151TIP3    H224418   5.704   0.360   3.937
 8152TIP3   OH224419   6.931   3.764   5.509
 8152TIP3    H124420   6.986   3.841   5.521
 8152TIP3    H224421   6.848   3.798   5.474
 8153TIP3   OH224422   5.481   4.599   3.550
 8153TIP3    H124423   5.563   4.595   3.600
 8153TIP3    H224424   5.508   4.624   3.461
 8154TIP3   OH224425   2.340   3.050   5.473
 8154TIP3    H124426   2.429   3.045   5.507
 8154TIP3    H224427   2.290   2.988   5.527
 8155TIP3   OH224428   6.835   4.832   3.505
 8155TIP3    H124429   6.857   4.837   3.412
 8155TIP3    H224430   6.919   4.825   3.549
 8156TIP3   OH224431   0.583   0.530   1.112
 8156TIP3    H124432   0.610   0.584   1.037
 8156TIP3    H224433   0.653   0.465   1.121
 8157TIP3   OH224434   3.487   2.680   1.303
 8157TIP3    H124435   3.428   2.751   1.328
 8157TIP3    H224436   3.555   2.722   1.251
 8158TIP3   OH224437   2.479   0.647   3.746
 8158TIP3    H124438   2.442   0.732   3.770
 8158TIP3    H224439   2.550   0.669   3.685
 8159TIP3   OH224440   1.317   0.426   4.138
 8159TIP3    H124441   1.383   0.357   4.148
 8159TIP3    H224442   1.353   0.500   4.187
 8160TIP3   OH224443   4.479   5.010   4.080
 8160TIP3    H124444   4.549   4.975   4.134
 8160TIP3    H224445   4.438   5.078   4.133
 8161TIP3   OH224446   6.877   5.202   3.488
 8161TIP3    H124447   6.830   5.285   3.484
 8161TIP3    H224448   6.922   5.197   3.404
 8162TIP3   OH224449   0.769   4.307   3.239
 8162TIP3    H124450   0.736   4.218   3.235
 8162TIP3    H224451   0.694   4.360   3.266
 8163TIP3   OH224452   1.209   6.272   1.973
 8163TIP3    H124453   1.136   6.221   1.940
 8163TIP3    H224454   1.268   6.282   1.898
 8164TIP3   OH224455   4.635   3.156   1.691
 8164TIP3    H124456   4.647   3.179   1.599
 8164TIP3    H224457   4.673   3.068   1.699
 8165TIP3   OH224458   6.759   1.921   4.994
 8165TIP3    H124459   6.714   1.852   4.945
 8165TIP3    H224460   6.740   1.902   5.086
 8166TIP3   OH224461   5.766   1.820   2.413
 8166TIP3    H124462   5.776   1.871   2.493
 8166TIP3    H224463   5.734   1.884   2.348
 8167TIP3   OH224464   2.509   6.432   1.139
 8167TIP3    H124465   2.432   6.424   1.196
 8167TIP3    H224466   2.514   6.349   1.092
 8168TIP3   OH224467   2.961   5.547   0.982
 8168TIP3    H124468   2.925   5.463   0.953
 8168TIP3    H224469   2.885   5.605   0.986
 8169TIP3   OH224470   3.987   2.052   1.034
 8169TIP3    H124471   3.915   1.990   1.025
 8169TIP3    H224472   3.969   2.097   1.117
 8170TIP3   OH224473   3.514   0.968   0.992
 8170TIP3    H124474   3.609   0.961   0.999
 8170TIP3    H224475   3.482   0.969   1.082
 8171TIP3   OH224476   1.193   2.725   1.245
 8171TIP3    H124477   1.247   2.764   1.176
 8171TIP3    H224478   1.234   2.752   1.326
 8172TIP3   OH224479   6.385   6.423   4.761
 8172TIP3    H124480   6.343   6.462   4.684
 8172TIP3    H224481   6.474   6.403   4.732
 8173TIP3   OH224482   2.835   4.056   3.689
 8173TIP3    H124483   2.770   4.021   3.750
 8173TIP3    H224484   2.908   4.084   3.745
 8174TIP3   OH224485   4.237   4.367   5.579
 8174TIP3    H124486   4.158   4.379   5.528
 8174TIP3    H224487   4.290   4.444   5.561
 8175TIP3   OH224488   0.330   2.257   5.121
 8175TIP3    H124489   0.262   2.197   5.090
 8175TIP3    H224490   0.336   2.324   5.053
 8176TIP3   OH224491   4.131   3.055   2.030
 8176TIP3    H124492   4.168   3.134   1.991
 8176TIP3    H224493   4.053   3.085   2.076
 8177TIP3   OH224494   2.479   3.710   4.268
 8177TIP3    H124495   2.502   3.795   4.304
 8177TIP3    H224496   2.403   3.682   4.320
 8178TIP3   OH224497   3.423   6.398   3.358
 8178TIP3    H124498   3.401   6.477   3.309
 8178TIP3    H224499   3.388   6.415   3.446
 8179TIP3   OH224500   4.619   2.353   4.539
 8179TIP3    H124501   4.578   2.282   4.491
 8179TIP3    H224502   4.638   2.316   4.625
 8180TIP3   OH224503   1.205   1.122   1.991
 8180TIP3    H124504   1.122   1.169   1.999
 8180TIP3    H224505   1.245   1.130   2.078
 8181TIP3   OH224506   6.449   5.825   3.326
 8181TIP3    H124507   6.364   5.854   3.293
 8181TIP3    H224508   6.443   5.730   3.332
 8182TIP3   OH224509   0.788   4.876   2.275
 8182TIP3    H124510   0.877   4.911   2.269
 8182TIP3    H224511   0.764   4.854   2.185
 8183TIP3   OH224512   1.820   3.817   5.480
 8183TIP3    H124513   1.849   3.764   5.406
 8183TIP3    H224514   1.821   3.756   5.554
 8184TIP3   OH224515   6.207   1.709   3.001
 8184TIP3    H124516   6.162   1.770   2.942
 8184TIP3    H224517   6.236   1.764   3.074
 8185TIP3   OH224518   6.635   4.617   1.775
 8185TIP3    H124519   6.695   4.570   1.833
 8185TIP3    H224520   6.577   4.666   1.834
 8186TIP3   OH224521   6.134   5.387   0.485
 8186TIP3    H124522   6.093   5.471   0.506
 8186TIP3    H224523   6.167   5.355   0.568
 8187TIP3   OH224524   3.659   5.218   2.999
 8187TIP3    H124525   3.665   5.313   3.010
 8187TIP3    H224526   3.579   5.205   2.947
 8188TIP3   OH224527   6.296   1.015   5.659
 8188TIP3    H124528   6.254   1.093   5.696
 8188TIP3    H224529   6.226   0.967   5.617
 8189TIP3   OH224530   1.551   2.028   0.128
 8189TIP3    H124531   1.615   1.959   0.146
 8189TIP3    H224532   1.474   2.003   0.180
 8190TIP3   OH224533   5.462   0.651   1.186
 8190TIP3    H124534   5.495   0.571   1.146
 8190TIP3    H224535   5.541   0.699   1.211
 8191TIP3   OH224536   2.017   4.754   3.603
 8191TIP3    H124537   1.923   4.765   3.621
 8191TIP3    H224538   2.032   4.660   3.615
 8192TIP3   OH224539   5.675   4.604   5.839
 8192TIP3    H124540   5.762   4.569   5.860
 8192TIP3    H224541   5.689   4.698   5.828
 8193TIP3   OH224542   2.950   4.492   5.819
 8193TIP3    H124543   2.925   4.413   5.771
 8193TIP3    H224544   2.871   4.519   5.865
 8194TIP3   OH224545   5.348   4.700   5.317
 8194TIP3    H124546   5.396   4.775   5.282
 8194TIP3    H224547   5.291   4.737   5.385
 8195TIP3   OH224548   0.706   6.434   4.949
 8195TIP3    H124549   0.710   6.343   4.979
 8195TIP3    H224550   0.612   6.452   4.939
 8196TIP3   OH224551   0.977   6.302   1.619
 8196TIP3    H124552   0.946   6.393   1.623
 8196TIP3    H224553   1.029   6.299   1.539
 8197TIP3   OH224554   2.733   3.181   4.669
 8197TIP3    H124555   2.644   3.178   4.634
 8197TIP3    H224556   2.746   3.273   4.691
 8198TIP3   OH224557   6.802   1.854   5.653
 8198TIP3    H124558   6.857   1.787   5.614
 8198TIP3    H224559   6.715   1.815   5.656
 8199TIP3   OH224560   5.198   3.102   3.822
 8199TIP3    H124561   5.163   3.155   3.751
 8199TIP3    H224562   5.283   3.141   3.842
 8200TIP3   OH224563   7.151   3.086   5.745
 8200TIP3    H124564   7.136   3.117   5.656
 8200TIP3    H224565   7.108   3.000   5.748
 8201TIP3   OH224566   5.399   6.768   3.382
 8201TIP3    H124567   5.332   6.755   3.450
 8201TIP3    H224568   5.471   6.811   3.428
 8202TIP3   OH224569   6.364   5.698   2.435
 8202TIP3    H124570   6.348   5.674   2.343
 8202TIP3    H224571   6.279   5.692   2.477
 8203TIP3   OH224572   1.058   6.311   5.629
 8203TIP3    H124573   0.996   6.285   5.561
 8203TIP3    H224574   1.039   6.403   5.646
 8204TIP3   OH224575   0.143   5.844   3.314
 8204TIP3    H124576   0.152   5.891   3.397
 8204TIP3    H224577   0.217   5.784   3.313
 8205TIP3   OH224578   4.788   2.519   4.434
 8205TIP3    H124579   4.733   2.444   4.456
 8205TIP3    H224580   4.736   2.568   4.369
 8206TIP3   OH224581   2.419   5.911   1.648
 8206TIP3    H124582   2.486   5.844   1.662
 8206TIP3    H224583   2.467   5.993   1.642
 8207TIP3   OH224584   1.011   2.357   0.623
 8207TIP3    H124585   1.053   2.376   0.707
 8207TIP3    H224586   0.995   2.263   0.625
 8208TIP3   OH224587   1.324   4.879   5.070
 8208TIP3    H124588   1.332   4.855   4.978
 8208TIP3    H224589   1.241   4.926   5.075
 8209TIP3   OH224590   1.356   0.901   5.461
 8209TIP3    H124591   1.438   0.855   5.444
 8209TIP3    H224592   1.382   0.983   5.503
 8210TIP3   OH224593   5.558   1.824   5.821
 8210TIP3    H124594   5.654   1.816   5.822
 8210TIP3    H224595   5.528   1.756   5.881
 8211TIP3   OH224596   1.282   2.504   0.113
 8211TIP3    H124597   1.288   2.418   0.072
 8211TIP3    H224598   1.249   2.486   0.201
 8212TIP3   OH224599   6.661   1.101   3.895
 8212TIP3    H124600   6.673   1.033   3.961
 8212TIP3    H224601   6.647   1.053   3.813
 8213TIP3   OH224602   4.823   1.113   0.600
 8213TIP3    H124603   4.794   1.142   0.513
 8213TIP3    H224604   4.859   1.191   0.641
 8214TIP3   OH224605   2.541   2.143   4.795
 8214TIP3    H124606   2.543   2.235   4.820
 8214TIP3    H224607   2.449   2.125   4.776
 8215TIP3   OH224608   5.029   1.903   3.598
 8215TIP3    H124609   5.119   1.934   3.603
 8215TIP3    H224610   4.982   1.972   3.552
 8216TIP3   OH224611   6.617   1.943   1.158
 8216TIP3    H124612   6.660   1.858   1.145
 8216TIP3    H224613   6.608   1.950   1.253
 8217TIP3   OH224614   1.341   1.280   0.951
 8217TIP3    H124615   1.365   1.328   0.872
 8217TIP3    H224616   1.369   1.190   0.935
 8218TIP3   OH224617   0.772   5.051   5.168
 8218TIP3    H124618   0.712   4.981   5.196
 8218TIP3    H224619   0.719   5.106   5.110
 8219TIP3   OH224620   0.599   5.149   3.067
 8219TIP3    H124621   0.584   5.064   3.110
 8219TIP3    H224622   0.521   5.163   3.014
 8220TIP3   OH224623   6.040   1.088   5.792
 8220TIP3    H124624   6.057   1.014   5.849
 8220TIP3    H224625   6.016   1.049   5.708
 8221TIP3   OH224626   1.688   3.412   5.758
 8221TIP3    H124627   1.669   3.370   5.842
 8221TIP3    H224628   1.610   3.394   5.705
 8222TIP3   OH224629   5.469   1.219   4.893
 8222TIP3    H124630   5.532   1.241   4.825
 8222TIP3    H224631   5.421   1.144   4.859
 8223TIP3   OH224632   3.406   0.929   3.371
 8223TIP3    H124633   3.468   0.914   3.300
 8223TIP3    H224634   3.451   0.992   3.428
 8224TIP3   OH224635   1.777   0.856   1.225
 8224TIP3    H124636   1.724   0.918   1.174
 8224TIP3    H224637   1.737   0.770   1.206
 8225TIP3   OH224638   2.130   0.357   4.587
 8225TIP3    H124639   2.049   0.348   4.637
 8225TIP3    H224640   2.199   0.333   4.648
 8226TIP3   OH224641   2.878   4.042   4.476
 8226TIP3    H124642   2.945   3.999   4.423
 8226TIP3    H224643   2.910   4.035   4.566
 8227TIP3   OH224644   4.538   2.173   1.153
 8227TIP3    H124645   4.530   2.236   1.225
 8227TIP3    H224646   4.447   2.155   1.127
 8228TIP3   OH224647   2.728   3.734   1.628
 8228TIP3    H124648   2.712   3.671   1.698
 8228TIP3    H224649   2.677   3.811   1.653
 8229TIP3   OH224650   3.585   0.915   2.576
 8229TIP3    H124651   3.529   0.838   2.587
 8229TIP3    H224652   3.560   0.951   2.491
 8230TIP3   OH224653   3.586   0.216   1.205
 8230TIP3    H124654   3.670   0.205   1.161
 8230TIP3    H224655   3.562   0.307   1.188
 8231TIP3   OH224656   1.161   1.891   0.943
 8231TIP3    H124657   1.179   1.956   1.011
 8231TIP3    H224658   1.182   1.935   0.861
 8232TIP3   OH224659   6.462   2.732   2.213
 8232TIP3    H124660   6.436   2.719   2.304
 8232TIP3    H224661   6.550   2.770   2.218
 8233TIP3   OH224662   4.313   4.786   4.873
 8233TIP3    H124663   4.389   4.793   4.815
 8233TIP3    H224664   4.344   4.736   4.948
 8234TIP3   OH224665   7.051   2.918   2.377
 8234TIP3    H124666   7.114   2.847   2.363
 8234TIP3    H224667   7.090   2.994   2.335
 8235TIP3   OH224668   3.538  -0.018   4.499
 8235TIP3    H124669   3.452   0.021   4.513
 8235TIP3    H224670   3.520  -0.108   4.473
 8236TIP3   OH224671   2.089   3.349   3.930
 8236TIP3    H124672   2.115   3.441   3.934
 8236TIP3    H224673   2.171   3.301   3.939
 8237TIP3   OH224674   6.306   3.722   1.227
 8237TIP3    H124675   6.324   3.636   1.190
 8237TIP3    H224676   6.261   3.769   1.157
 8238TIP3   OH224677   4.587   4.095  -0.009
 8238TIP3    H124678   4.647   4.143   0.048
 8238TIP3    H224679   4.615   4.003  -0.001
 8239TIP3   OH224680   6.826   0.157   4.520
 8239TIP3    H124681   6.903   0.147   4.575
 8239TIP3    H224682   6.788   0.241   4.547
 8240TIP3   OH224683   4.802   4.465   4.114
 8240TIP3    H124684   4.824   4.380   4.076
 8240TIP3    H224685   4.886   4.509   4.127
 8241TIP3   OH224686   5.591   5.904   4.802
 8241TIP3    H124687   5.532   5.970   4.765
 8241TIP3    H224688   5.678   5.944   4.798
 8242TIP3   OH224689   4.316   5.803   4.383
 8242TIP3    H124690   4.242   5.742   4.372
 8242TIP3    H224691   4.320   5.820   4.477
 8243TIP3   OH224692   5.909   0.429   1.985
 8243TIP3    H124693   5.885   0.480   1.908
 8243TIP3    H224694   6.005   0.434   1.988
 8244TIP3   OH224695   7.112   4.675   0.358
 8244TIP3    H124696   7.136   4.720   0.277
 8244TIP3    H224697   7.025   4.708   0.379
 8245TIP3   OH224698   6.084   4.111   5.130
 8245TIP3    H124699   6.053   4.046   5.067
 8245TIP3    H224700   6.085   4.193   5.082
 8246TIP3   OH224701   4.766   3.218   5.040
 8246TIP3    H124702   4.797   3.264   5.118
 8246TIP3    H224703   4.846   3.204   4.988
 8247TIP3   OH224704   0.436   2.677   2.528
 8247TIP3    H124705   0.514   2.635   2.493
 8247TIP3    H224706   0.370   2.667   2.460
 8248TIP3   OH224707   4.246   2.870   2.577
 8248TIP3    H124708   4.179   2.878   2.510
 8248TIP3    H224709   4.258   2.776   2.588
 8249TIP3   OH224710   5.063   6.619   2.153
 8249TIP3    H124711   4.978   6.610   2.110
 8249TIP3    H224712   5.121   6.563   2.103
 8250TIP3   OH224713   4.937   1.929   4.251
 8250TIP3    H124714   4.976   1.845   4.271
 8250TIP3    H224715   4.937   1.977   4.334
 8251TIP3   OH224716   6.042   0.528   1.497
 8251TIP3    H124717   6.126   0.519   1.454
 8251TIP3    H224718   6.060   0.581   1.575
 8252TIP3   OH224719   0.264   5.806   0.784
 8252TIP3    H124720   0.336   5.865   0.809
 8252TIP3    H224721   0.283   5.783   0.693
 8253TIP3   OH224722   5.899   3.812   0.864
 8253TIP3    H124723   5.846   3.845   0.792
 8253TIP3    H224724   5.945   3.736   0.828
 8254TIP3   OH224725   1.749   3.872   4.108
 8254TIP3    H124726   1.693   3.815   4.161
 8254TIP3    H224727   1.752   3.954   4.156
 8255TIP3   OH224728   3.247   1.340   2.849
 8255TIP3    H124729   3.299   1.277   2.798
 8255TIP3    H224730   3.300   1.356   2.927
 8256TIP3   OH224731   0.339   0.297   1.321
 8256TIP3    H124732   0.368   0.286   1.230
 8256TIP3    H224733   0.320   0.391   1.329
 8257TIP3   OH224734   1.456   3.033   4.159
 8257TIP3    H124735   1.445   3.087   4.080
 8257TIP3    H224736   1.534   3.069   4.201
 8258TIP3   OH224737   5.777   0.439   4.637
 8258TIP3    H124738   5.764   0.524   4.681
 8258TIP3    H224739   5.689   0.413   4.611
 8259TIP3   OH224740   5.166   3.692   1.453
 8259TIP3    H124741   5.159   3.771   1.507
 8259TIP3    H224742   5.125   3.715   1.370
 8260TIP3   OH224743   3.398   6.717   5.726
 8260TIP3    H124744   3.324   6.749   5.675
 8260TIP3    H224745   3.406   6.778   5.798
 8261TIP3   OH224746   4.947   5.235   3.657
 8261TIP3    H124747   4.997   5.170   3.706
 8261TIP3    H224748   5.002   5.259   3.583
 8262TIP3   OH224749   0.524   4.857   5.911
 8262TIP3    H124750   0.512   4.823   5.822
 8262TIP3    H224751   0.505   4.950   5.904
 8263TIP3   OH224752   2.239   0.381   4.239
 8263TIP3    H124753   2.214   0.328   4.163
 8263TIP3    H224754   2.262   0.466   4.202
 8264TIP3   OH224755   3.494   3.623   1.428
 8264TIP3    H124756   3.575   3.572   1.431
 8264TIP3    H224757   3.519   3.705   1.385
 8265TIP3   OH224758   1.903   3.938   0.280
 8265TIP3    H124759   1.923   3.984   0.199
 8265TIP3    H224760   1.967   3.971   0.343
 8266TIP3   OH224761   3.861   0.192   0.556
 8266TIP3    H124762   3.807   0.265   0.526
 8266TIP3    H224763   3.917   0.171   0.481
 8267TIP3   OH224764   2.899   4.520   2.525
 8267TIP3    H124765   2.977   4.467   2.508
 8267TIP3    H224766   2.870   4.494   2.612
 8268TIP3   OH224767   3.249   1.952   3.141
 8268TIP3    H124768   3.301   1.943   3.221
 8268TIP3    H224769   3.252   1.865   3.100
 8269TIP3   OH224770   2.446   5.974   4.548
 8269TIP3    H124771   2.454   5.957   4.454
 8269TIP3    H224772   2.487   5.898   4.589
 8270TIP3   OH224773   5.359   1.260   3.896
 8270TIP3    H124774   5.281   1.257   3.953
 8270TIP3    H224775   5.327   1.300   3.815
 8271TIP3   OH224776   2.390   2.934   2.948
 8271TIP3    H124777   2.303   2.956   2.979
 8271TIP3    H224778   2.383   2.843   2.918
 8272TIP3   OH224779   2.539   3.088   3.337
 8272TIP3    H124780   2.455   3.116   3.373
 8272TIP3    H224781   2.532   2.993   3.331
 8273TIP3   OH224782   5.372   3.725   1.138
 8273TIP3    H124783   5.408   3.663   1.074
 8273TIP3    H224784   5.394   3.688   1.223
 8274TIP3   OH224785   2.764   5.830   0.228
 8274TIP3    H124786   2.851   5.797   0.251
 8274TIP3    H224787   2.738   5.883   0.303
 8275TIP3   OH224788   4.205   5.548   1.829
 8275TIP3    H124789   4.199   5.626   1.884
 8275TIP3    H224790   4.114   5.526   1.810
 8276TIP3   OH224791   4.825   2.731   1.327
 8276TIP3    H124792   4.841   2.803   1.388
 8276TIP3    H224793   4.864   2.654   1.369
 8277TIP3   OH224794   3.945   3.623   4.612
 8277TIP3    H124795   3.896   3.559   4.560
 8277TIP3    H224796   3.912   3.613   4.701
 8278TIP3   OH224797   0.129   4.562   1.670
 8278TIP3    H124798   0.189   4.522   1.607
 8278TIP3    H224799   0.139   4.511   1.750
 8279TIP3   OH224800   0.589   2.104   3.287
 8279TIP3    H124801   0.608   2.028   3.233
 8279TIP3    H224802   0.558   2.068   3.370
 8280TIP3   OH224803   0.793   2.627   4.962
 8280TIP3    H124804   0.708   2.612   5.003
 8280TIP3    H224805   0.844   2.672   5.030
 8281TIP3   OH224806   5.503   1.506   5.345
 8281TIP3    H124807   5.569   1.509   5.414
 8281TIP3    H224808   5.499   1.413   5.319
 8282TIP3   OH224809   6.437   2.894   4.751
 8282TIP3    H124810   6.451   2.832   4.823
 8282TIP3    H224811   6.371   2.851   4.696
 8283TIP3   OH224812   5.081   1.820   2.886
 8283TIP3    H124813   5.012   1.885   2.872
 8283TIP3    H224814   5.163   1.867   2.870
 8284TIP3   OH224815   2.164   1.037   0.304
 8284TIP3    H124816   2.209   1.024   0.388
 8284TIP3    H224817   2.218   1.102   0.258
 8285TIP3   OH224818   2.268   2.550   1.462
 8285TIP3    H124819   2.335   2.557   1.531
 8285TIP3    H224820   2.250   2.456   1.455
 8286TIP3   OH224821   6.852   6.305   4.621
 8286TIP3    H124822   6.920   6.237   4.622
 8286TIP3    H224823   6.796   6.280   4.548
 8287TIP3   OH224824   4.437   3.315   1.796
 8287TIP3    H124825   4.507   3.263   1.757
 8287TIP3    H224826   4.449   3.402   1.759
 8288TIP3   OH224827   5.338   1.332   3.075
 8288TIP3    H124828   5.298   1.257   3.117
 8288TIP3    H224829   5.423   1.342   3.118
 8289TIP3   OH224830   4.263   6.077   2.114
 8289TIP3    H124831   4.226   6.164   2.128
 8289TIP3    H224832   4.257   6.034   2.199
 8290TIP3   OH224833   0.645   3.180   4.615
 8290TIP3    H124834   0.604   3.094   4.601
 8290TIP3    H224835   0.604   3.237   4.551
 8291TIP3   OH224836   4.591   6.077   5.741
 8291TIP3    H124837   4.563   6.072   5.832
 8291TIP3    H224838   4.623   5.990   5.720
 8292TIP3   OH224839   1.745   0.355   4.362
 8292TIP3    H124840   1.682   0.313   4.305
 8292TIP3    H224841   1.703   0.437   4.389
 8293TIP3   OH224842   4.461   5.124   3.589
 8293TIP3    H124843   4.504   5.057   3.641
 8293TIP3    H224844   4.519   5.138   3.514
 8294TIP3   OH224845   5.583   6.304   3.362
 8294TIP3    H124846   5.512   6.246   3.335
 8294TIP3    H224847   5.545   6.357   3.432
 8295TIP3   OH224848   4.519   6.689   5.038
 8295TIP3    H124849   4.525   6.620   4.972
 8295TIP3    H224850   4.533   6.644   5.121
 8296TIP3   OH224851   0.326   5.648   1.394
 8296TIP3    H124852   0.234   5.646   1.366
 8296TIP3    H224853   0.368   5.708   1.332
 8297TIP3   OH224854   4.225   5.223   4.765
 8297TIP3    H124855   4.267   5.302   4.799
 8297TIP3    H224856   4.298   5.164   4.746
 8298TIP3   OH224857   5.209   5.077   4.887
 8298TIP3    H124858   5.183   5.084   4.979
 8298TIP3    H224859   5.163   5.000   4.855
 8299TIP3   OH224860   6.657   6.416   4.731
 8299TIP3    H124861   6.720   6.361   4.684
 8299TIP3    H224862   6.701   6.500   4.741
 8300TIP3   OH224863   4.541   6.705   0.081
 8300TIP3    H124864   4.531   6.790   0.039
 8300TIP3    H224865   4.607   6.720   0.149
 8301TIP3   OH224866   0.629   5.369   5.657
 8301TIP3    H124867   0.538   5.393   5.679
 8301TIP3    H224868   0.634   5.379   5.562
 8302TIP3   OH224869   1.898   0.276   1.798
 8302TIP3    H124870   1.862   0.199   1.754
 8302TIP3    H224871   1.981   0.246   1.835
 8303TIP3   OH224872   4.766   4.857   2.508
 8303TIP3    H124873   4.838   4.846   2.571
 8303TIP3    H224874   4.701   4.909   2.555
 8304TIP3   OH224875   4.883   0.507   2.273
 8304TIP3    H124876   4.852   0.432   2.222
 8304TIP3    H224877   4.818   0.575   2.258
 8305TIP3   OH224878   2.401   4.731   5.798
 8305TIP3    H124879   2.353   4.806   5.832
 8305TIP3    H224880   2.401   4.668   5.870
 8306TIP3   OH224881   3.556   0.751   0.632
 8306TIP3    H124882   3.649   0.745   0.653
 8306TIP3    H224883   3.534   0.666   0.594
 8307TIP3   OH224884   5.070   5.094   4.470
 8307TIP3    H124885   5.075   5.099   4.565
 8307TIP3    H224886   4.985   5.130   4.448
 8308TIP3   OH224887   3.026   4.598   5.059
 8308TIP3    H124888   2.939   4.608   5.020
 8308TIP3    H224889   3.047   4.684   5.094
 8309TIP3   OH224890   3.695   6.750   1.643
 8309TIP3    H124891   3.780   6.720   1.611
 8309TIP3    H224892   3.650   6.671   1.672
 8310TIP3   OH224893   1.936   1.180   3.886
 8310TIP3    H124894   1.851   1.181   3.842
 8310TIP3    H224895   1.972   1.267   3.871
 8311TIP3   OH224896   2.880   5.317   0.844
 8311TIP3    H124897   2.785   5.312   0.833
 8311TIP3    H224898   2.908   5.227   0.855
 8312TIP3   OH224899   2.343   3.747   0.909
 8312TIP3    H124900   2.270   3.739   0.847
 8312TIP3    H224901   2.340   3.666   0.960
 8313TIP3   OH224902   4.183   1.963   3.406
 8313TIP3    H124903   4.227   1.921   3.479
 8313TIP3    H224904   4.185   2.057   3.428
 8314TIP3   OH224905   6.100   6.373   5.819
 8314TIP3    H124906   6.162   6.383   5.891
 8314TIP3    H224907   6.032   6.315   5.854
 8315TIP3   OH224908   3.555   5.728   4.691
 8315TIP3    H124909   3.642   5.765   4.707
 8315TIP3    H224910   3.568   5.633   4.697
 8316TIP3   OH224911   3.120   5.541   1.398
 8316TIP3    H124912   3.134   5.546   1.492
 8316TIP3    H224913   3.057   5.611   1.379
 8317TIP3   OH224914   1.739   4.758   1.501
 8317TIP3    H124915   1.771   4.826   1.442
 8317TIP3    H224916   1.740   4.678   1.448
 8318TIP3   OH224917   6.886   0.272   2.537
 8318TIP3    H124918   6.811   0.217   2.513
 8318TIP3    H224919   6.961   0.212   2.533
 8319TIP3   OH224920   0.867   6.192   3.874
 8319TIP3    H124921   0.867   6.110   3.825
 8319TIP3    H224922   0.911   6.171   3.956
 8320TIP3   OH224923   4.883   5.812   3.932
 8320TIP3    H124924   4.872   5.718   3.939
 8320TIP3    H224925   4.976   5.824   3.909
 8321TIP3   OH224926   1.173   6.793   3.048
 8321TIP3    H124927   1.095   6.738   3.046
 8321TIP3    H224928   1.219   6.768   3.128
 8322TIP3   OH224929   0.157   3.399   5.804
 8322TIP3    H124930   0.216   3.432   5.871
 8322TIP3    H224931   0.069   3.413   5.840
 8323TIP3   OH224932   2.101   1.741   5.680
 8323TIP3    H124933   2.111   1.769   5.589
 8323TIP3    H224934   2.164   1.795   5.729
 8324TIP3   OH224935   5.598   0.326   5.592
 8324TIP3    H124936   5.505   0.344   5.582
 8324TIP3    H224937   5.606   0.232   5.578
 8325TIP3   OH224938   4.945   2.122   4.449
 8325TIP3    H124939   4.956   2.201   4.397
 8325TIP3    H224940   4.924   2.154   4.537
 8326TIP3   OH224941   3.223   1.987   5.433
 8326TIP3    H124942   3.232   2.039   5.353
 8326TIP3    H224943   3.311   1.957   5.452
 8327TIP3   OH224944   4.126   4.313   1.889
 8327TIP3    H124945   4.153   4.405   1.891
 8327TIP3    H224946   4.092   4.300   1.800
 8328TIP3   OH224947   6.455   5.857   4.113
 8328TIP3    H124948   6.523   5.860   4.046
 8328TIP3    H224949   6.407   5.776   4.097
 8329TIP3   OH224950   2.052   0.114   0.102
 8329TIP3    H124951   1.985   0.166   0.146
 8329TIP3    H224952   2.056   0.032   0.152
 8330TIP3   OH224953   1.673   3.212   5.397
 8330TIP3    H124954   1.664   3.117   5.402
 8330TIP3    H224955   1.756   3.231   5.440
 8331TIP3   OH224956   6.920   1.483   0.552
 8331TIP3    H124957   6.949   1.560   0.601
 8331TIP3    H224958   6.910   1.415   0.619
 8332TIP3   OH224959   0.283   3.590   5.443
 8332TIP3    H124960   0.281   3.641   5.524
 8332TIP3    H224961   0.193   3.561   5.430
 8333TIP3   OH224962   6.331   5.648   2.166
 8333TIP3    H124963   6.399   5.588   2.135
 8333TIP3    H224964   6.283   5.673   2.086
 8334TIP3   OH224965   1.476   3.829   1.204
 8334TIP3    H124966   1.532   3.905   1.194
 8334TIP3    H224967   1.462   3.822   1.299
 8335TIP3   OH224968   4.753   1.630   0.240
 8335TIP3    H124969   4.786   1.552   0.285
 8335TIP3    H224970   4.734   1.692   0.311
 8336TIP3   OH224971   4.373   6.482   4.245
 8336TIP3    H124972   4.455   6.512   4.205
 8336TIP3    H224973   4.354   6.547   4.312
 8337TIP3   OH224974   7.000   6.168   4.052
 8337TIP3    H124975   7.046   6.103   4.105
 8337TIP3    H224976   6.977   6.122   3.971
 8338TIP3   OH224977   2.918   5.076   1.253
 8338TIP3    H124978   2.994   5.019   1.251
 8338TIP3    H224979   2.955   5.165   1.256
 8339TIP3   OH224980   5.058   4.412   4.950
 8339TIP3    H124981   5.095   4.496   4.975
 8339TIP3    H224982   5.061   4.411   4.855
 8340TIP3   OH224983   2.232   2.385   3.199
 8340TIP3    H124984   2.253   2.477   3.183
 8340TIP3    H224985   2.144   2.373   3.163
 8341TIP3   OH224986   4.433   2.032   3.644
 8341TIP3    H124987   4.365   2.099   3.632
 8341TIP3    H224988   4.498   2.074   3.700
 8342TIP3   OH224989   4.745   0.072   0.301
 8342TIP3    H124990   4.789   0.024   0.231
 8342TIP3    H224991   4.737   0.008   0.372
 8343TIP3   OH224992   4.009   3.402   4.428
 8343TIP3    H124993   4.072   3.353   4.375
 8343TIP3    H224994   4.023   3.369   4.517
 8344TIP3   OH224995   5.170   6.530   1.195
 8344TIP3    H124996   5.211   6.445   1.208
 8344TIP3    H224997   5.168   6.569   1.283
 8345TIP3   OH224998   5.247   0.940   0.783
 8345TIP3    H124999   5.255   0.904   0.871
 8345TIP3    H225000   5.255   0.865   0.725
 8346TIP3   OH225001   5.169   5.049   5.169
 8346TIP3    H125002   5.163   5.119   5.234
 8346TIP3    H225003   5.103   4.986   5.196
 8347TIP3   OH225004   4.892   3.222   5.852
 8347TIP3    H125005   4.936   3.300   5.817
 8347TIP3    H225006   4.800   3.233   5.826
 8348TIP3   OH225007   4.921   4.521   2.770
 8348TIP3    H125008   5.008   4.523   2.730
 8348TIP3    H225009   4.894   4.429   2.764
 8349TIP3   OH225010   0.899   0.864   5.578
 8349TIP3    H125011   0.893   0.933   5.512
 8349TIP3    H225012   0.993   0.857   5.597
 8350TIP3   OH225013   0.126   4.734   3.840
 8350TIP3    H125014   0.043   4.731   3.887
 8350TIP3    H225015   0.193   4.719   3.907
 8351TIP3   OH225016   4.635   1.127   1.859
 8351TIP3    H125017   4.704   1.148   1.921
 8351TIP3    H225018   4.599   1.211   1.832
 8352TIP3   OH225019   2.356   0.061   5.780
 8352TIP3    H125020   2.300   0.133   5.751
 8352TIP3    H225021   2.301   0.011   5.840
 8353TIP3   OH225022   3.095   3.582   4.307
 8353TIP3    H125023   3.139   3.666   4.316
 8353TIP3    H225024   3.082   3.552   4.397
 8354TIP3   OH225025   5.121   4.203   3.424
 8354TIP3    H125026   5.100   4.290   3.391
 8354TIP3    H225027   5.215   4.194   3.409
 8355TIP3   OH225028   0.234   0.269   2.744
 8355TIP3    H125029   0.310   0.296   2.692
 8355TIP3    H225030   0.216   0.345   2.800
 8356TIP3   OH225031   4.968   5.273   1.517
 8356TIP3    H125032   4.926   5.189   1.535
 8356TIP3    H225033   5.042   5.251   1.460
 8357TIP3   OH225034   4.333   5.685   2.788
 8357TIP3    H125035   4.388   5.632   2.730
 8357TIP3    H225036   4.318   5.629   2.864
 8358TIP3   OH225037   2.254   3.727   2.639
 8358TIP3    H125038   2.253   3.821   2.620
 8358TIP3    H225039   2.165   3.708   2.669
 8359TIP3   OH225040   2.680   6.804   2.263
 8359TIP3    H125041   2.713   6.718   2.238
 8359TIP3    H225042   2.719   6.864   2.199
 8360TIP3   OH225043   2.527   1.359   3.070
 8360TIP3    H125044   2.525   1.344   3.164
 8360TIP3    H225045   2.597   1.303   3.037
 8361TIP3   OH225046   5.366   1.780   0.321
 8361TIP3    H125047   5.457   1.807   0.305
 8361TIP3    H225048   5.347   1.812   0.410
 8362TIP3   OH225049   4.768   1.004   1.636
 8362TIP3    H125050   4.799   1.078   1.586
 8362TIP3    H225051   4.704   1.041   1.697
 8363TIP3   OH225052   4.364   4.616   1.253
 8363TIP3    H125053   4.337   4.629   1.344
 8363TIP3    H225054   4.306   4.671   1.202
 8364TIP3   OH225055   6.712   2.578   2.544
 8364TIP3    H125056   6.725   2.539   2.458
 8364TIP3    H225057   6.618   2.599   2.547
 8365TIP3   OH225058   6.230   0.782   2.841
 8365TIP3    H125059   6.187   0.759   2.923
 8365TIP3    H225060   6.161   0.821   2.788
 8366TIP3   OH225061   0.198   0.081   0.923
 8366TIP3    H125062   0.238   0.105   1.007
 8366TIP3    H225063   0.270   0.087   0.860
 8367TIP3   OH225064   2.617   4.343   4.404
 8367TIP3    H125065   2.591   4.264   4.356
 8367TIP3    H225066   2.570   4.337   4.487
 8368TIP3   OH225067   6.440   6.003   4.814
 8368TIP3    H125068   6.437   6.061   4.890
 8368TIP3    H225069   6.532   6.002   4.788
 8369TIP3   OH225070   5.853   1.155   3.057
 8369TIP3    H125071   5.871   1.194   3.142
 8369TIP3    H225072   5.883   1.221   2.994
 8370TIP3   OH225073   1.502   5.207   2.560
 8370TIP3    H125074   1.496   5.114   2.583
 8370TIP3    H225075   1.467   5.211   2.470
 8371TIP3   OH225076   3.120   5.368   2.907
 8371TIP3    H125077   3.214   5.389   2.905
 8371TIP3    H225078   3.087   5.401   2.823
 8372TIP3   OH225079   2.475   6.169   1.063
 8372TIP3    H125080   2.385   6.147   1.040
 8372TIP3    H225081   2.479   6.159   1.158
 8373TIP3   OH225082   0.897   5.329   0.505
 8373TIP3    H125083   0.888   5.260   0.439
 8373TIP3    H225084   0.819   5.384   0.493
 8374TIP3   OH225085   3.773   2.281   3.189
 8374TIP3    H125086   3.717   2.216   3.231
 8374TIP3    H225087   3.712   2.348   3.158
 8375TIP3   OH225088   7.016   1.729   5.058
 8375TIP3    H125089   7.097   1.707   5.012
 8375TIP3    H225090   6.953   1.663   5.028
 8376TIP3   OH225091   1.798   3.372   5.195
 8376TIP3    H125092   1.720   3.369   5.139
 8376TIP3    H225093   1.775   3.321   5.272
 8377TIP3   OH225094   1.058   4.949   2.214
 8377TIP3    H125095   1.102   4.894   2.150
 8377TIP3    H225096   1.063   4.900   2.296
 8378TIP3   OH225097   6.502   6.092   1.086
 8378TIP3    H125098   6.439   6.113   1.017
 8378TIP3    H225099   6.490   5.998   1.102
 8379TIP3   OH225100   3.205   5.812   3.145
 8379TIP3    H125101   3.192   5.843   3.055
 8379TIP3    H225102   3.193   5.717   3.139
 8380TIP3   OH225103   3.633   3.662   1.074
 8380TIP3    H125104   3.592   3.646   0.989
 8380TIP3    H225105   3.592   3.743   1.105
 8381TIP3   OH225106   6.491   2.658   4.326
 8381TIP3    H125107   6.459   2.568   4.317
 8381TIP3    H225108   6.432   2.710   4.271
 8382TIP3   OH225109   3.685   1.990   1.228
 8382TIP3    H125110   3.753   2.054   1.250
 8382TIP3    H225111   3.716   1.949   1.147
 8383TIP3   OH225112   5.631   5.685   5.268
 8383TIP3    H125113   5.637   5.631   5.347
 8383TIP3    H225114   5.663   5.771   5.296
 8384TIP3   OH225115   2.051   2.745   1.400
 8384TIP3    H125116   2.093   2.830   1.416
 8384TIP3    H225117   2.122   2.682   1.404
 8385TIP3   OH225118   2.873   2.571   4.501
 8385TIP3    H125119   2.872   2.477   4.520
 8385TIP3    H225120   2.926   2.609   4.571
 8386TIP3   OH225121   2.427   3.737   4.709
 8386TIP3    H125122   2.442   3.825   4.744
 8386TIP3    H225123   2.334   3.734   4.688
 8387TIP3   OH225124   2.632   3.692   2.000
 8387TIP3    H125125   2.593   3.662   2.082
 8387TIP3    H225126   2.710   3.638   1.989
 8388TIP3   OH225127   5.957   2.826   3.003
 8388TIP3    H125128   5.891   2.759   3.021
 8388TIP3    H225129   5.971   2.869   3.088
 8389TIP3   OH225130   6.827   5.062   0.351
 8389TIP3    H125131   6.739   5.056   0.313
 8389TIP3    H225132   6.840   5.156   0.366
 8390TIP3   OH225133   2.470   3.847   1.842
 8390TIP3    H125134   2.538   3.895   1.794
 8390TIP3    H225135   2.518   3.802   1.912
 8391TIP3   OH225136   7.004   5.569   5.718
 8391TIP3    H125137   7.091   5.572   5.678
 8391TIP3    H225138   6.972   5.659   5.712
 8392TIP3   OH225139   7.127   0.028   5.668
 8392TIP3    H125140   7.160  -0.013   5.588
 8392TIP3    H225141   7.198   0.085   5.697
 8393TIP3   OH225142   4.961   3.857   0.733
 8393TIP3    H125143   4.989   3.904   0.812
 8393TIP3    H225144   5.006   3.773   0.738
 8394TIP3   OH225145   3.503   6.127   4.389
 8394TIP3    H125146   3.492   6.105   4.297
 8394TIP3    H225147   3.565   6.200   4.390
 8395TIP3   OH225148   2.221   5.218   4.234
 8395TIP3    H125149   2.135   5.203   4.273
 8395TIP3    H225150   2.263   5.132   4.234
 8396TIP3   OH225151   3.045   3.435   3.289
 8396TIP3    H125152   3.055   3.351   3.333
 8396TIP3    H225153   3.078   3.499   3.352
 8397TIP3   OH225154   2.005   3.218   4.493
 8397TIP3    H125155   2.023   3.303   4.455
 8397TIP3    H225156   2.023   3.156   4.422
 8398TIP3   OH225157   3.629   4.163   5.102
 8398TIP3    H125158   3.712   4.120   5.081
 8398TIP3    H225159   3.562   4.107   5.062
 8399TIP3   OH225160   3.139   5.015   5.138
 8399TIP3    H125161   3.150   5.099   5.094
 8399TIP3    H225162   3.136   4.951   5.067
 8400TIP3   OH225163   4.484   2.965   3.649
 8400TIP3    H125164   4.467   2.997   3.560
 8400TIP3    H225165   4.532   2.884   3.636
 8401TIP3   OH225166   2.567   2.985   0.258
 8401TIP3    H125167   2.543   3.043   0.185
 8401TIP3    H225168   2.623   2.919   0.218
 8402TIP3   OH225169   4.864   3.355   3.223
 8402TIP3    H125170   4.947   3.397   3.246
 8402TIP3    H225171   4.851   3.376   3.131
 8403TIP3   OH225172   3.264   3.277   1.874
 8403TIP3    H125173   3.208   3.231   1.937
 8403TIP3    H225174   3.349   3.234   1.882
 8404TIP3   OH225175   2.565   1.352   0.821
 8404TIP3    H125176   2.511   1.397   0.756
 8404TIP3    H225177   2.538   1.260   0.816
 8405TIP3   OH225178   7.140   2.240   0.010
 8405TIP3    H125179   7.217   2.281   0.050
 8405TIP3    H225180   7.176   2.188  -0.062
 8406TIP3   OH225181   0.545   0.406   5.332
 8406TIP3    H125182   0.493   0.485   5.317
 8406TIP3    H225183   0.494   0.356   5.395
 8407TIP3   OH225184   7.031   3.715   4.463
 8407TIP3    H125185   7.040   3.736   4.556
 8407TIP3    H225186   7.060   3.624   4.456
 8408TIP3   OH225187   4.702   0.933   4.679
 8408TIP3    H125188   4.691   0.949   4.586
 8408TIP3    H225189   4.642   0.861   4.698
 8409TIP3   OH225190   4.656   1.891   4.219
 8409TIP3    H125191   4.747   1.895   4.190
 8409TIP3    H225192   4.633   1.982   4.237
 8410TIP3   OH225193   3.288   2.877   0.883
 8410TIP3    H125194   3.323   2.810   0.824
 8410TIP3    H225195   3.252   2.827   0.957
 8411TIP3   OH225196   0.445   3.705   3.016
 8411TIP3    H125197   0.430   3.689   3.109
 8411TIP3    H225198   0.536   3.735   3.012
 8412TIP3   OH225199   6.019   2.310   3.565
 8412TIP3    H125200   6.092   2.341   3.618
 8412TIP3    H225201   6.059   2.251   3.501
 8413TIP3   OH225202   6.664   3.701   0.828
 8413TIP3    H125203   6.757   3.707   0.806
 8413TIP3    H225204   6.627   3.644   0.761
 8414TIP3   OH225205   1.411   6.335   1.805
 8414TIP3    H125206   1.379   6.395   1.738
 8414TIP3    H225207   1.496   6.370   1.831
 8415TIP3   OH225208   6.007   5.769   5.263
 8415TIP3    H125209   5.985   5.723   5.182
 8415TIP3    H225210   5.923   5.796   5.299
 8416TIP3   OH225211   6.620   2.147   4.720
 8416TIP3    H125212   6.710   2.120   4.701
 8416TIP3    H225213   6.621   2.172   4.812
 8417TIP3   OH225214   2.143   4.837   2.381
 8417TIP3    H125215   2.059   4.878   2.362
 8417TIP3    H225216   2.132   4.800   2.469
 8418TIP3   OH225217   1.680   3.828   0.005
 8418TIP3    H125218   1.740   3.782   0.065
 8418TIP3    H225219   1.640   3.759  -0.046
 8419TIP3   OH225220   5.083   1.417   2.461
 8419TIP3    H125221   5.146   1.466   2.515
 8419TIP3    H225222   5.034   1.364   2.524
 8420TIP3   OH225223   5.363   3.174   2.786
 8420TIP3    H125224   5.418   3.098   2.766
 8420TIP3    H225225   5.424   3.238   2.822
 8421TIP3   OH225226   6.674   0.075   2.463
 8421TIP3    H125227   6.687   0.029   2.380
 8421TIP3    H225228   6.614   0.147   2.441
 8422TIP3   OH225229   5.230   0.371   1.906
 8422TIP3    H125230   5.311   0.386   1.857
 8422TIP3    H225231   5.203   0.458   1.935
 8423TIP3   OH225232   6.561   1.555   0.539
 8423TIP3    H125233   6.629   1.525   0.478
 8423TIP3    H225234   6.484   1.504   0.515
 8424TIP3   OH225235   1.057   5.850   3.620
 8424TIP3    H125236   1.020   5.762   3.627
 8424TIP3    H225237   1.152   5.836   3.617
 8425TIP3   OH225238   3.755   1.708   2.575
 8425TIP3    H125239   3.705   1.721   2.494
 8425TIP3    H225240   3.808   1.630   2.557
 8426TIP3   OH225241   2.831   1.401   2.129
 8426TIP3    H125242   2.778   1.416   2.208
 8426TIP3    H225243   2.809   1.475   2.072
 8427TIP3   OH225244   1.352   4.621   3.786
 8427TIP3    H125245   1.277   4.579   3.829
 8427TIP3    H225246   1.421   4.555   3.788
 8428TIP3   OH225247   0.442   5.108   5.843
 8428TIP3    H125248   0.378   5.100   5.914
 8428TIP3    H225249   0.396   5.157   5.775
 8429TIP3   OH225250   0.124   6.387   0.418
 8429TIP3    H125251   0.140   6.477   0.447
 8429TIP3    H225252   0.100   6.395   0.326
 8430TIP3   OH225253   3.823   5.662   2.561
 8430TIP3    H125254   3.868   5.725   2.505
 8430TIP3    H225255   3.755   5.714   2.605
 8431TIP3   OH225256   3.923   1.818   2.787
 8431TIP3    H125257   3.975   1.761   2.843
 8431TIP3    H225258   3.911   1.769   2.706
 8432TIP3   OH225259   6.113   2.660   5.449
 8432TIP3    H125260   6.192   2.632   5.402
 8432TIP3    H225261   6.084   2.739   5.403
 8433TIP3   OH225262   3.738   4.638   5.763
 8433TIP3    H125263   3.749   4.570   5.696
 8433TIP3    H225264   3.717   4.717   5.713
 8434TIP3   OH225265   5.983   2.793   4.157
 8434TIP3    H125266   6.052   2.843   4.112
 8434TIP3    H225267   5.999   2.702   4.131
 8435TIP3   OH225268   4.050   2.785   3.984
 8435TIP3    H125269   4.023   2.723   4.051
 8435TIP3    H225270   4.052   2.735   3.903
 8436TIP3   OH225271   6.222   2.249   1.514
 8436TIP3    H125272   6.150   2.200   1.475
 8436TIP3    H225273   6.180   2.308   1.577
 8437TIP3   OH225274   2.158   1.382   5.324
 8437TIP3    H125275   2.098   1.410   5.255
 8437TIP3    H225276   2.244   1.381   5.282
 8438TIP3   OH225277   5.693   5.652   4.731
 8438TIP3    H125278   5.640   5.732   4.736
 8438TIP3    H225279   5.630   5.581   4.733
 8439TIP3   OH225280   5.717   3.857   3.453
 8439TIP3    H125281   5.749   3.900   3.532
 8439TIP3    H225282   5.763   3.900   3.381
 8440TIP3   OH225283   4.156   0.287   4.555
 8440TIP3    H125284   4.225   0.231   4.521
 8440TIP3    H225285   4.080   0.230   4.561
 8441TIP3   OH225286   7.079   0.744   4.025
 8441TIP3    H125287   7.136   0.696   4.086
 8441TIP3    H225288   7.020   0.677   3.990
 8442TIP3   OH225289   3.882   4.795   3.471
 8442TIP3    H125290   3.915   4.807   3.560
 8442TIP3    H225291   3.802   4.847   3.468
 8443TIP3   OH225292   7.133   5.687   0.230
 8443TIP3    H125293   7.176   5.606   0.202
 8443TIP3    H225294   7.115   5.672   0.323
 8444TIP3   OH225295   0.179   0.732   1.175
 8444TIP3    H125296   0.137   0.774   1.100
 8444TIP3    H225297   0.107   0.704   1.231
 8445TIP3   OH225298   6.577   0.846   5.157
 8445TIP3    H125299   6.537   0.827   5.242
 8445TIP3    H225300   6.601   0.939   5.162
 8446TIP3   OH225301   3.061   3.560   0.617
 8446TIP3    H125302   3.075   3.635   0.559
 8446TIP3    H225303   3.132   3.499   0.595
 8447TIP3   OH225304   4.430   5.061   4.826
 8447TIP3    H125305   4.434   5.030   4.917
 8447TIP3    H225306   4.505   5.120   4.818
 8448TIP3   OH225307   6.133   0.433   3.458
 8448TIP3    H125308   6.113   0.399   3.371
 8448TIP3    H225309   6.195   0.370   3.494
 8449TIP3   OH225310   4.363   1.350   4.505
 8449TIP3    H125311   4.325   1.422   4.455
 8449TIP3    H225312   4.341   1.370   4.596
 8450TIP3   OH225313   3.767   3.066   2.908
 8450TIP3    H125314   3.852   3.086   2.948
 8450TIP3    H225315   3.760   3.127   2.835
 8451TIP3   OH225316   6.722   2.391   3.212
 8451TIP3    H125317   6.638   2.372   3.254
 8451TIP3    H225318   6.699   2.422   3.125
 8452TIP3   OH225319   1.448   5.223   2.283
 8452TIP3    H125320   1.436   5.149   2.224
 8452TIP3    H225321   1.542   5.225   2.300
 8453TIP3   OH225322   6.295   3.167   5.254
 8453TIP3    H125323   6.307   3.128   5.167
 8453TIP3    H225324   6.201   3.185   5.260
 8454TIP3   OH225325   4.136   4.570   3.685
 8454TIP3    H125326   4.193   4.633   3.640
 8454TIP3    H225327   4.060   4.621   3.711
 8455TIP3   OH225328   6.018   4.276   3.583
 8455TIP3    H125329   6.065   4.354   3.612
 8455TIP3    H225330   5.982   4.300   3.497
 8456TIP3   OH225331   2.046   5.416   4.819
 8456TIP3    H125332   2.060   5.352   4.748
 8456TIP3    H225333   1.980   5.476   4.784
 8457TIP3   OH225334   6.291   3.572   5.219
 8457TIP3    H125335   6.272   3.624   5.296
 8457TIP3    H225336   6.380   3.540   5.232
 8458TIP3   OH225337   5.653   4.525   1.887
 8458TIP3    H125338   5.746   4.508   1.873
 8458TIP3    H225339   5.645   4.540   1.981
 8459TIP3   OH225340   5.074   3.287   0.872
 8459TIP3    H125341   5.145   3.275   0.935
 8459TIP3    H225342   5.086   3.214   0.810
 8460TIP3   OH225343   4.000   5.600   4.744
 8460TIP3    H125344   4.019   5.582   4.836
 8460TIP3    H225345   4.080   5.573   4.698
 8461TIP3   OH225346   1.874   0.127   4.234
 8461TIP3    H125347   1.880   0.213   4.276
 8461TIP3    H225348   1.824   0.074   4.295
 8462TIP3   OH225349   1.948   4.244   1.291
 8462TIP3    H125350   1.949   4.149   1.285
 8462TIP3    H225351   1.980   4.274   1.206
 8463TIP3   OH225352   0.281   0.147   1.528
 8463TIP3    H125353   0.298   0.210   1.458
 8463TIP3    H225354   0.209   0.186   1.578
 8464TIP3   OH225355   5.746   5.955   3.222
 8464TIP3    H125356   5.740   6.050   3.207
 8464TIP3    H225357   5.690   5.918   3.153
 8465TIP3   OH225358   4.551   0.199   4.146
 8465TIP3    H125359   4.596   0.132   4.198
 8465TIP3    H225360   4.602   0.279   4.162
 8466TIP3   OH225361   2.925   1.620   4.352
 8466TIP3    H125362   2.854   1.581   4.300
 8466TIP3    H225363   2.898   1.608   4.443
 8467TIP3   OH225364   0.358   2.092   2.286
 8467TIP3    H125365   0.298   2.019   2.303
 8467TIP3    H225366   0.316   2.142   2.216
 8468TIP3   OH225367   5.855   4.307   5.675
 8468TIP3    H125368   5.778   4.253   5.656
 8468TIP3    H225369   5.879   4.283   5.764
 8469TIP3   OH225370   7.097   0.850   0.312
 8469TIP3    H125371   7.056   0.771   0.278
 8469TIP3    H225372   7.032   0.919   0.296
 8470TIP3   OH225373   3.261   4.078   2.487
 8470TIP3    H125374   3.233   4.023   2.560
 8470TIP3    H225375   3.300   4.017   2.425
 8471TIP3   OH225376   3.052   3.657   3.108
 8471TIP3    H125377   3.103   3.715   3.164
 8471TIP3    H225378   3.031   3.582   3.163
 8472TIP3   OH225379   1.476   6.220   3.305
 8472TIP3    H125380   1.472   6.286   3.374
 8472TIP3    H225381   1.485   6.270   3.224
 8473TIP3   OH225382   4.141   3.213   1.027
 8473TIP3    H125383   4.188   3.213   0.943
 8473TIP3    H225384   4.198   3.165   1.086
 8474TIP3   OH225385   0.229   5.487   1.630
 8474TIP3    H125386   0.246   5.506   1.722
 8474TIP3    H225387   0.266   5.561   1.582
 8475TIP3   OH225388   6.116   1.800   2.607
 8475TIP3    H125389   6.100   1.846   2.689
 8475TIP3    H225390   6.045   1.736   2.601
 8476TIP3   OH225391   3.283   5.249   4.443
 8476TIP3    H125392   3.294   5.305   4.367
 8476TIP3    H225393   3.219   5.295   4.498
 8477TIP3   OH225394   2.255   1.752   0.553
 8477TIP3    H125395   2.339   1.750   0.601
 8477TIP3    H225396   2.194   1.791   0.616
 8478TIP3   OH225397   0.143   6.565   1.171
 8478TIP3    H125398   0.223   6.542   1.219
 8478TIP3    H225399   0.090   6.613   1.235
 8479TIP3   OH225400   7.158   0.701   1.263
 8479TIP3    H125401   7.086   0.729   1.206
 8479TIP3    H225402   7.125   0.623   1.306
 8480TIP3   OH225403   0.149   5.154   0.093
 8480TIP3    H125404   0.059   5.136   0.068
 8480TIP3    H225405   0.144   5.182   0.184
 8481TIP3   OH225406   6.301   6.271   0.655
 8481TIP3    H125407   6.386   6.244   0.622
 8481TIP3    H225408   6.261   6.319   0.582
 8482TIP3   OH225409   3.091   5.056   2.077
 8482TIP3    H125410   3.166   5.008   2.044
 8482TIP3    H225411   3.108   5.067   2.170
 8483TIP3   OH225412   3.540   3.602   5.009
 8483TIP3    H125413   3.498   3.564   4.932
 8483TIP3    H225414   3.591   3.531   5.047
 8484TIP3   OH225415   0.686   4.978   4.827
 8484TIP3    H125416   0.715   4.888   4.843
 8484TIP3    H225417   0.611   4.969   4.768
 8485TIP3   OH225418   1.948   4.629   1.157
 8485TIP3    H125419   1.875   4.583   1.198
 8485TIP3    H225420   1.957   4.588   1.071
 8486TIP3   OH225421   4.666   2.451   2.281
 8486TIP3    H125422   4.667   2.538   2.243
 8486TIP3    H225423   4.654   2.466   2.375
 8487TIP3   OH225424   2.927   5.454   1.667
 8487TIP3    H125425   2.937   5.392   1.739
 8487TIP3    H225426   2.978   5.531   1.694
 8488TIP3   OH225427   1.549   5.152   1.893
 8488TIP3    H125428   1.634   5.126   1.929
 8488TIP3    H225429   1.555   5.248   1.886
 8489TIP3   OH225430   3.857   0.359   1.440
 8489TIP3    H125431   3.854   0.429   1.374
 8489TIP3    H225432   3.787   0.299   1.414
 8490TIP3   OH225433   5.640   5.816   3.595
 8490TIP3    H125434   5.604   5.732   3.622
 8490TIP3    H225435   5.704   5.794   3.528
 8491TIP3   OH225436   4.871   3.120   3.999
 8491TIP3    H125437   4.861   3.149   3.909
 8491TIP3    H225438   4.893   3.199   4.048
 8492TIP3   OH225439   4.079   2.330   4.823
 8492TIP3    H125440   4.072   2.426   4.830
 8492TIP3    H225441   4.018   2.297   4.888
 8493TIP3   OH225442   6.485   4.203   0.568
 8493TIP3    H125443   6.559   4.178   0.513
 8493TIP3    H225444   6.450   4.121   0.601
 8494TIP3   OH225445   4.000   3.535   2.997
 8494TIP3    H125446   4.056   3.536   3.074
 8494TIP3    H225447   4.010   3.447   2.960
 8495TIP3   OH225448   5.418   0.819   3.182
 8495TIP3    H125449   5.333   0.825   3.138
 8495TIP3    H225450   5.424   0.728   3.212
 8496TIP3   OH225451   3.678   3.857   4.575
 8496TIP3    H125452   3.671   3.793   4.646
 8496TIP3    H225453   3.698   3.804   4.498
 8497TIP3   OH225454   0.263   1.000   2.092
 8497TIP3    H125455   0.240   1.075   2.148
 8497TIP3    H225456   0.264   0.925   2.151
 8498TIP3   OH225457   6.094   4.667   0.933
 8498TIP3    H125458   6.044   4.692   0.855
 8498TIP3    H225459   6.071   4.576   0.948
 8499TIP3   OH225460   3.060   6.109   0.315
 8499TIP3    H125461   3.024   6.095   0.228
 8499TIP3    H225462   3.146   6.069   0.312
 8500TIP3   OH225463   6.031   4.013   3.187
 8500TIP3    H125464   5.988   3.989   3.105
 8500TIP3    H225465   5.970   4.073   3.229
 8501TIP3   OH225466   0.579   4.108   3.270
 8501TIP3    H125467   0.586   4.078   3.360
 8501TIP3    H225468   0.494   4.075   3.240
 8502TIP3   OH225469   5.375   0.820   0.996
 8502TIP3    H125470   5.366   0.748   1.059
 8502TIP3    H225471   5.461   0.807   0.956
 8503TIP3   OH225472   5.475   0.382   1.748
 8503TIP3    H125473   5.540   0.423   1.804
 8503TIP3    H225474   5.482   0.288   1.767
 8504TIP3   OH225475   4.613   1.356   4.994
 8504TIP3    H125476   4.610   1.274   4.945
 8504TIP3    H225477   4.533   1.402   4.968
 8505TIP3   OH225478   6.521   0.347   5.609
 8505TIP3    H125479   6.579   0.277   5.638
 8505TIP3    H225480   6.470   0.307   5.538
 8506TIP3   OH225481   4.068   3.971   3.973
 8506TIP3    H125482   3.999   3.911   3.947
 8506TIP3    H225483   4.084   3.951   4.065
 8507TIP3   OH225484   4.940   0.099   2.791
 8507TIP3    H125485   4.930   0.008   2.765
 8507TIP3    H225486   4.974   0.143   2.713
 8508TIP3   OH225487   1.863   1.920   2.525
 8508TIP3    H125488   1.785   1.976   2.526
 8508TIP3    H225489   1.836   1.840   2.571
 8509TIP3   OH225490   3.114   1.995   0.914
 8509TIP3    H125491   3.027   2.021   0.884
 8509TIP3    H225492   3.171   2.014   0.839
 8510TIP3   OH225493   6.272   2.179   5.365
 8510TIP3    H125494   6.298   2.105   5.419
 8510TIP3    H225495   6.232   2.139   5.288
 8511TIP3   OH225496   0.464   5.924   2.989
 8511TIP3    H125497   0.439   5.835   3.013
 8511TIP3    H225498   0.512   5.957   3.065
 8512TIP3   OH225499   1.951   6.246   0.894
 8512TIP3    H125500   1.952   6.249   0.799
 8512TIP3    H225501   1.891   6.174   0.915
 8513TIP3   OH225502   2.099   5.174   5.621
 8513TIP3    H125503   2.022   5.204   5.572
 8513TIP3    H225504   2.088   5.079   5.625
 8514TIP3   OH225505   6.218   3.392   2.719
 8514TIP3    H125506   6.187   3.362   2.804
 8514TIP3    H225507   6.302   3.434   2.739
 8515TIP3   OH225508   6.177   1.974   1.827
 8515TIP3    H125509   6.247   1.970   1.892
 8515TIP3    H225510   6.219   1.948   1.745
 8516TIP3   OH225511   5.942   5.527   3.693
 8516TIP3    H125512   5.932   5.435   3.716
 8516TIP3    H225513   5.868   5.570   3.736
 8517TIP3   OH225514   6.084   5.617   2.512
 8517TIP3    H125515   6.066   5.645   2.602
 8517TIP3    H225516   6.014   5.656   2.460
 8518TIP3   OH225517   6.227   2.459   3.296
 8518TIP3    H125518   6.217   2.436   3.203
 8518TIP3    H225519   6.140   2.487   3.324
 8519TIP3   OH225520   4.694   5.269   4.123
 8519TIP3    H125521   4.617   5.312   4.086
 8519TIP3    H225522   4.719   5.205   4.057
 8520TIP3   OH225523   3.395   1.407   4.673
 8520TIP3    H125524   3.360   1.365   4.751
 8520TIP3    H225525   3.318   1.430   4.621
 8521TIP3   OH225526   7.158   5.409   0.205
 8521TIP3    H125527   7.095   5.336   0.204
 8521TIP3    H225528   7.235   5.373   0.248
 8522TIP3   OH225529   2.184   2.402   3.479
 8522TIP3    H125530   2.209   2.385   3.389
 8522TIP3    H225531   2.157   2.317   3.513
 8523TIP3   OH225532   0.597   4.631   3.584
 8523TIP3    H125533   0.581   4.541   3.612
 8523TIP3    H225534   0.547   4.685   3.645
 8524TIP3   OH225535   4.617   2.744   5.439
 8524TIP3    H125536   4.566   2.818   5.408
 8524TIP3    H225537   4.555   2.671   5.440
 8525TIP3   OH225538   2.141   2.260   3.973
 8525TIP3    H125539   2.098   2.266   4.059
 8525TIP3    H225540   2.069   2.264   3.910
 8526TIP3   OH225541   0.863   4.990   3.726
 8526TIP3    H125542   0.828   4.923   3.785
 8526TIP3    H225543   0.794   5.004   3.662
 8527TIP3   OH225544   3.357   0.134   1.593
 8527TIP3    H125545   3.446   0.106   1.613
 8527TIP3    H225546   3.316   0.147   1.679
 8528TIP3   OH225547   7.080   1.944   5.690
 8528TIP3    H125548   7.054   1.897   5.769
 8528TIP3    H225549   7.163   1.985   5.713
 8529TIP3   OH225550   2.631   0.840   3.594
 8529TIP3    H125551   2.637   0.923   3.641
 8529TIP3    H225552   2.678   0.855   3.512
 8530TIP3   OH225553   2.624   3.651   0.433
 8530TIP3    H125554   2.556   3.716   0.450
 8530TIP3    H225555   2.614   3.587   0.504
 8531TIP3   OH225556   2.304   0.247   3.412
 8531TIP3    H125557   2.240   0.189   3.373
 8531TIP3    H225558   2.299   0.229   3.506
 8532TIP3   OH225559   0.160   2.786   0.730
 8532TIP3    H125560   0.193   2.785   0.640
 8532TIP3    H225561   0.233   2.754   0.783
 8533TIP3   OH225562   3.177   1.413   0.813
 8533TIP3    H125563   3.197   1.328   0.851
 8533TIP3    H225564   3.261   1.445   0.778
 8534TIP3   OH225565   1.914   6.023   1.958
 8534TIP3    H125566   1.819   6.028   1.972
 8534TIP3    H225567   1.923   5.993   1.868
 8535TIP3   OH225568   2.414   3.734   2.882
 8535TIP3    H125569   2.360   3.716   2.806
 8535TIP3    H225570   2.393   3.665   2.944
 8536TIP3   OH225571   3.361   4.559   0.447
 8536TIP3    H125572   3.302   4.577   0.374
 8536TIP3    H225573   3.444   4.533   0.406
 8537TIP3   OH225574   2.922   2.373   4.299
 8537TIP3    H125575   2.852   2.333   4.351
 8537TIP3    H225576   2.945   2.452   4.347
 8538TIP3   OH225577   5.829   2.652   4.969
 8538TIP3    H125578   5.873   2.733   4.994
 8538TIP3    H225579   5.767   2.678   4.901
 8539TIP3   OH225580   3.176   4.493   2.586
 8539TIP3    H125581   3.159   4.428   2.654
 8539TIP3    H225582   3.266   4.522   2.602
 8540TIP3   OH225583   1.955   0.547   2.032
 8540TIP3    H125584   1.876   0.560   1.978
 8540TIP3    H225585   2.014   0.498   1.976
 8541TIP3   OH225586   6.348   4.887   1.080
 8541TIP3    H125587   6.259   4.870   1.112
 8541TIP3    H225588   6.404   4.833   1.136
 8542TIP3   OH225589   4.351   6.312   2.466
 8542TIP3    H125590   4.271   6.304   2.415
 8542TIP3    H225591   4.380   6.402   2.452
 8543TIP3   OH225592   1.639   6.680   2.141
 8543TIP3    H125593   1.705   6.610   2.150
 8543TIP3    H225594   1.557   6.639   2.167
 8544TIP3   OH225595   6.489   2.431   0.571
 8544TIP3    H125596   6.550   2.490   0.527
 8544TIP3    H225597   6.417   2.420   0.509
 8545TIP3   OH225598   4.907   2.105   3.799
 8545TIP3    H125599   4.918   2.067   3.711
 8545TIP3    H225600   4.969   2.178   3.802
 8546TIP3   OH225601   1.650   3.198   1.602
 8546TIP3    H125602   1.650   3.282   1.648
 8546TIP3    H225603   1.585   3.146   1.649
 8547TIP3   OH225604   6.325   0.846   4.708
 8547TIP3    H125605   6.378   0.817   4.634
 8547TIP3    H225606   6.387   0.889   4.767
 8548TIP3   OH225607   3.913   0.782   0.098
 8548TIP3    H125608   3.996   0.819   0.128
 8548TIP3    H225609   3.871   0.750   0.178
 8549TIP3   OH225610   0.340   1.274   4.261
 8549TIP3    H125611   0.411   1.302   4.204
 8549TIP3    H225612   0.261   1.304   4.216
 8550TIP3   OH225613   5.974   6.213   0.545
 8550TIP3    H125614   5.955   6.145   0.480
 8550TIP3    H225615   6.009   6.165   0.620
 8551TIP3   OH225616   3.123   4.268   2.271
 8551TIP3    H125617   3.108   4.175   2.289
 8551TIP3    H225618   3.216   4.281   2.288
 8552TIP3   OH225619   0.879   5.598   0.692
 8552TIP3    H125620   0.829   5.624   0.615
 8552TIP3    H225621   0.963   5.566   0.657
 8553TIP3   OH225622   1.678   5.931   2.815
 8553TIP3    H125623   1.649   5.890   2.897
 8553TIP3    H225624   1.632   6.015   2.814
 8554TIP3   OH225625   6.793   0.080   3.311
 8554TIP3    H125626   6.830   0.142   3.374
 8554TIP3    H225627   6.850   0.003   3.317
 8555TIP3   OH225628   5.139   6.120   2.622
 8555TIP3    H125629   5.201   6.048   2.618
 8555TIP3    H225630   5.135   6.143   2.715
 8556TIP3   OH225631   4.744   3.112   2.753
 8556TIP3    H125632   4.701   3.195   2.733
 8556TIP3    H225633   4.774   3.080   2.669
 8557TIP3   OH225634   5.926   5.053   5.492
 8557TIP3    H125635   5.861   5.005   5.441
 8557TIP3    H225636   5.882   5.133   5.519
 8558TIP3   OH225637   5.441   3.459   1.008
 8558TIP3    H125638   5.524   3.423   1.038
 8558TIP3    H225639   5.385   3.383   0.994
 8559TIP3   OH225640   5.616   0.318   3.346
 8559TIP3    H125641   5.622   0.286   3.436
 8559TIP3    H225642   5.657   0.405   3.350
 8560TIP3   OH225643   4.410   0.078   5.105
 8560TIP3    H125644   4.397   0.172   5.121
 8560TIP3    H225645   4.335   0.036   5.147
 8561TIP3   OH225646   4.547   5.751   4.164
 8561TIP3    H125647   4.565   5.713   4.078
 8561TIP3    H225648   4.618   5.814   4.179
 8562TIP3   OH225649   5.602   4.371   2.664
 8562TIP3    H125650   5.632   4.288   2.701
 8562TIP3    H225651   5.593   4.353   2.570
 8563TIP3   OH225652   4.397   5.084   0.145
 8563TIP3    H125653   4.479   5.126   0.121
 8563TIP3    H225654   4.387   5.012   0.083
 8564TIP3   OH225655   4.093   4.030   1.615
 8564TIP3    H125656   4.123   4.119   1.600
 8564TIP3    H225657   4.119   4.010   1.705
 8565TIP3   OH225658   3.739   4.290   3.234
 8565TIP3    H125659   3.788   4.367   3.207
 8565TIP3    H225660   3.689   4.318   3.310
 8566TIP3   OH225661   1.506   4.781   0.368
 8566TIP3    H125662   1.484   4.692   0.396
 8566TIP3    H225663   1.520   4.774   0.274
 8567TIP3   OH225664   6.649   3.025   4.312
 8567TIP3    H125665   6.645   2.942   4.361
 8567TIP3    H225666   6.679   2.999   4.225
 8568TIP3   OH225667   0.958   0.164   3.671
 8568TIP3    H125668   0.999   0.078   3.663
 8568TIP3    H225669   1.031   0.226   3.672
 8569TIP3   OH225670   6.310   5.580   0.182
 8569TIP3    H125671   6.317   5.501   0.236
 8569TIP3    H225672   6.215   5.595   0.175
 8570TIP3   OH225673   6.856   5.976   2.825
 8570TIP3    H125674   6.928   6.019   2.778
 8570TIP3    H225675   6.898   5.940   2.904
 8571TIP3   OH225676   4.092   1.905   5.855
 8571TIP3    H125677   4.060   1.982   5.807
 8571TIP3    H225678   4.140   1.942   5.929
 8572TIP3   OH225679   5.618   1.865   4.163
 8572TIP3    H125680   5.611   1.863   4.067
 8572TIP3    H225681   5.698   1.914   4.180
 8573TIP3   OH225682   4.308   4.961   4.442
 8573TIP3    H125683   4.343   4.879   4.475
 8573TIP3    H225684   4.382   5.021   4.443
 8574TIP3   OH225685   4.885   3.140   3.465
 8574TIP3    H125686   4.910   3.053   3.434
 8574TIP3    H225687   4.846   3.183   3.389
 8575TIP3   OH225688   3.226   0.210   2.666
 8575TIP3    H125689   3.228   0.165   2.751
 8575TIP3    H225690   3.133   0.225   2.650
 8576TIP3   OH225691   0.919   2.459   3.539
 8576TIP3    H125692   0.885   2.535   3.493
 8576TIP3    H225693   0.853   2.391   3.527
 8577TIP3   OH225694   5.161   0.071   2.551
 8577TIP3    H125695   5.194  -0.010   2.590
 8577TIP3    H225696   5.186   0.065   2.459
 8578TIP3   OH225697   3.915   6.557   0.542
 8578TIP3    H125698   3.929   6.474   0.588
 8578TIP3    H225699   3.850   6.603   0.595
 8579TIP3   OH225700   5.821   1.855   4.830
 8579TIP3    H125701   5.748   1.907   4.795
 8579TIP3    H225702   5.838   1.892   4.917
 8580TIP3   OH225703   4.724   0.305   0.513
 8580TIP3    H125704   4.696   0.259   0.592
 8580TIP3    H225705   4.789   0.368   0.543
 8581TIP3   OH225706   4.520   0.041   3.041
 8581TIP3    H125707   4.505   0.131   3.013
 8581TIP3    H225708   4.610   0.040   3.073
 8582TIP3   OH225709   3.257   4.168   3.972
 8582TIP3    H125710   3.234   4.259   3.958
 8582TIP3    H225711   3.274   4.162   4.066
 8583TIP3   OH225712   2.887   4.475   0.064
 8583TIP3    H125713   2.980   4.453   0.062
 8583TIP3    H225714   2.862   4.464   0.156
 8584TIP3   OH225715   1.540   5.822   2.625
 8584TIP3    H125716   1.585   5.880   2.563
 8584TIP3    H225717   1.596   5.820   2.702
 8585TIP3   OH225718   5.364   5.975   2.726
 8585TIP3    H125719   5.327   5.959   2.813
 8585TIP3    H225720   5.425   6.047   2.740
 8586TIP3   OH225721   4.475   1.779   2.362
 8586TIP3    H125722   4.428   1.862   2.372
 8586TIP3    H225723   4.519   1.767   2.446
 8587TIP3   OH225724   3.452   1.294   2.087
 8587TIP3    H125725   3.365   1.329   2.068
 8587TIP3    H225726   3.448   1.266   2.178
 8588TIP3   OH225727   2.341   5.253   1.693
 8588TIP3    H125728   2.351   5.274   1.786
 8588TIP3    H225729   2.423   5.281   1.653
 8589TIP3   OH225730   0.190   6.403   5.358
 8589TIP3    H125731   0.183   6.312   5.330
 8589TIP3    H225732   0.128   6.411   5.431
 8590TIP3   OH225733   0.576   6.724   5.147
 8590TIP3    H125734   0.491   6.680   5.138
 8590TIP3    H225735   0.608   6.697   5.233
 8591TIP3   OH225736   4.592   6.622   5.316
 8591TIP3    H125737   4.632   6.588   5.397
 8591TIP3    H225738   4.551   6.705   5.342
 8592TIP3   OH225739   5.692   3.556   1.772
 8592TIP3    H125740   5.648   3.504   1.705
 8592TIP3    H225741   5.783   3.559   1.743
 8593TIP3   OH225742   0.585   6.294   3.833
 8593TIP3    H125743   0.594   6.361   3.900
 8593TIP3    H225744   0.673   6.281   3.799
 8594TIP3   OH225745   1.871   3.414   1.046
 8594TIP3    H125746   1.815   3.425   0.969
 8594TIP3    H225747   1.895   3.321   1.044
 8595TIP3   OH225748   4.435   4.878   2.758
 8595TIP3    H125749   4.482   4.801   2.725
 8595TIP3    H225750   4.401   4.850   2.843
 8596TIP3   OH225751   1.529   0.004   5.429
 8596TIP3    H125752   1.603   0.006   5.369
 8596TIP3    H225753   1.468  -0.060   5.391
 8597TIP3   OH225754   1.835   5.694   0.440
 8597TIP3    H125755   1.906   5.747   0.476
 8597TIP3    H225756   1.879   5.621   0.397
 8598TIP3   OH225757   7.006   5.799   3.038
 8598TIP3    H125758   6.930   5.852   3.061
 8598TIP3    H225759   7.037   5.763   3.121
 8599TIP3   OH225760   3.469   5.369   1.914
 8599TIP3    H125761   3.543   5.317   1.945
 8599TIP3    H225762   3.419   5.390   1.993
 8600TIP3   OH225763   4.330   5.393   0.598
 8600TIP3    H125764   4.397   5.370   0.662
 8600TIP3    H225765   4.372   5.382   0.514
 8601TIP3   OH225766   1.418   0.523   1.899
 8601TIP3    H125767   1.478   0.450   1.885
 8601TIP3    H225768   1.448   0.592   1.840
 8602TIP3   OH225769   4.521   3.265   4.865
 8602TIP3    H125770   4.564   3.209   4.801
 8602TIP3    H225771   4.591   3.294   4.923
 8603TIP3   OH225772   2.002   5.003   2.968
 8603TIP3    H125773   1.920   5.050   2.974
 8603TIP3    H225774   2.069   5.068   2.990
 8604TIP3   OH225775   2.529   0.951   2.877
 8604TIP3    H125776   2.588   0.944   2.952
 8604TIP3    H225777   2.443   0.970   2.916
 8605TIP3   OH225778   3.945   5.615   0.378
 8605TIP3    H125779   3.971   5.536   0.331
 8605TIP3    H225780   4.000   5.684   0.339
 8606TIP3   OH225781   1.239   6.236   5.222
 8606TIP3    H125782   1.265   6.276   5.305
 8606TIP3    H225783   1.315   6.184   5.196
 8607TIP3   OH225784   1.963   6.672   5.556
 8607TIP3    H125785   1.941   6.579   5.554
 8607TIP3    H225786   1.879   6.717   5.557
 8608TIP3   OH225787   1.303   0.544   5.611
 8608TIP3    H125788   1.366   0.565   5.679
 8608TIP3    H225789   1.353   0.493   5.547
 8609TIP3   OH225790   1.257   0.526   3.577
 8609TIP3    H125791   1.235   0.444   3.533
 8609TIP3    H225792   1.280   0.586   3.506
 8610TIP3   OH225793   0.988   0.901   3.179
 8610TIP3    H125794   0.968   0.863   3.094
 8610TIP3    H225795   1.082   0.892   3.189
 8611TIP3   OH225796   6.684   0.159   3.620
 8611TIP3    H125797   6.623   0.232   3.631
 8611TIP3    H225798   6.721   0.172   3.532
 8612TIP3   OH225799   5.047   1.504   0.963
 8612TIP3    H125800   5.110   1.573   0.940
 8612TIP3    H225801   5.101   1.433   0.998
 8613TIP3   OH225802   2.479   6.134   1.331
 8613TIP3    H125803   2.525   6.194   1.390
 8613TIP3    H225804   2.525   6.051   1.341
 8614TIP3   OH225805   4.403   1.695   4.700
 8614TIP3    H125806   4.448   1.776   4.725
 8614TIP3    H225807   4.313   1.722   4.682
 8615TIP3   OH225808   3.773   0.028   0.034
 8615TIP3    H125809   3.821   0.108   0.057
 8615TIP3    H225810   3.831  -0.043   0.062
 8616TIP3   OH225811   3.553   4.129   5.773
 8616TIP3    H125812   3.471   4.126   5.823
 8616TIP3    H225813   3.591   4.214   5.795
 8617TIP3   OH225814   5.428   1.899   5.596
 8617TIP3    H125815   5.459   1.841   5.665
 8617TIP3    H225816   5.347   1.937   5.631
 8618TIP3   OH225817   2.157   4.130   2.345
 8618TIP3    H125818   2.189   4.220   2.338
 8618TIP3    H225819   2.081   4.136   2.402
 8619TIP3   OH225820   5.118   0.083   1.127
 8619TIP3    H125821   5.207   0.070   1.092
 8619TIP3    H225822   5.077   0.143   1.064
 8620TIP3   OH225823   2.863   1.416   5.126
 8620TIP3    H125824   2.837   1.361   5.200
 8620TIP3    H225825   2.790   1.477   5.115
 8621TIP3   OH225826   3.419   4.128   1.880
 8621TIP3    H125827   3.433   4.087   1.795
 8621TIP3    H225828   3.324   4.130   1.890
 8622TIP3   OH225829   6.153   3.577   4.500
 8622TIP3    H125830   6.078   3.615   4.454
 8622TIP3    H225831   6.229   3.620   4.462
 8623TIP3   OH225832   3.062   6.119   2.693
 8623TIP3    H125833   2.985   6.173   2.711
 8623TIP3    H225834   3.131   6.158   2.747
 8624TIP3   OH225835   6.390   6.155   2.768
 8624TIP3    H125836   6.381   6.071   2.723
 8624TIP3    H225837   6.484   6.165   2.783
 8625TIP3   OH225838   1.762   2.988   5.102
 8625TIP3    H125839   1.743   3.014   5.012
 8625TIP3    H225840   1.831   3.049   5.130
 8626TIP3   OH225841   0.049   1.807   5.473
 8626TIP3    H125842   0.135   1.849   5.474
 8626TIP3    H225843  -0.006   1.865   5.421
 8627TIP3   OH225844   1.935   0.853   2.946
 8627TIP3    H125845   1.857   0.799   2.958
 8627TIP3    H225846   1.930   0.917   3.017
 8628TIP3   OH225847   1.293   2.581   5.751
 8628TIP3    H125848   1.267   2.608   5.663
 8628TIP3    H225849   1.244   2.500   5.766
 8629TIP3   OH225850   2.879   4.548   1.847
 8629TIP3    H125851   2.809   4.519   1.907
 8629TIP3    H225852   2.832   4.591   1.776
 8630TIP3   OH225853   0.002   3.218   5.204
 8630TIP3    H125854   0.053   3.137   5.213
 8630TIP3    H225855  -0.040   3.210   5.118
 8631TIP3   OH225856   2.603   1.583   4.397
 8631TIP3    H125857   2.561   1.562   4.481
 8631TIP3    H225858   2.576   1.512   4.338
 8632TIP3   OH225859   3.836   6.465   5.119
 8632TIP3    H125860   3.752   6.435   5.085
 8632TIP3    H225861   3.866   6.393   5.175
 8633TIP3   OH225862   1.916   3.789   4.677
 8633TIP3    H125863   1.884   3.819   4.763
 8633TIP3    H225864   2.007   3.819   4.675
 8634TIP3   OH225865   2.957   4.334   5.603
 8634TIP3    H125866   2.998   4.415   5.573
 8634TIP3    H225867   2.905   4.304   5.529
 8635TIP3   OH225868   7.022   6.340   1.553
 8635TIP3    H125869   7.089   6.395   1.513
 8635TIP3    H225870   7.064   6.255   1.565
 8636TIP3   OH225871   0.327   2.338   3.905
 8636TIP3    H125872   0.334   2.358   3.811
 8636TIP3    H225873   0.241   2.373   3.930
 8637TIP3   OH225874   5.429   6.198   5.705
 8637TIP3    H125875   5.399   6.288   5.699
 8637TIP3    H225876   5.364   6.148   5.656
 8638TIP3   OH225877   0.773   2.376   3.861
 8638TIP3    H125878   0.836   2.430   3.909
 8638TIP3    H225879   0.753   2.427   3.782
 8639TIP3   OH225880   0.015   5.077   1.744
 8639TIP3    H125881  -0.001   5.080   1.838
 8639TIP3    H225882   0.040   4.986   1.727
 8640TIP3   OH225883   6.867   3.432   4.543
 8640TIP3    H125884   6.861   3.371   4.617
 8640TIP3    H225885   6.958   3.462   4.545
 8641TIP3   OH225886   1.673   4.575   0.590
 8641TIP3    H125887   1.741   4.641   0.576
 8641TIP3    H225888   1.646   4.549   0.501
 8642TIP3   OH225889   1.280   0.190   1.172
 8642TIP3    H125890   1.311   0.187   1.081
 8642TIP3    H225891   1.210   0.255   1.171
 8643TIP3   OH225892   3.655   1.684   4.184
 8643TIP3    H125893   3.609   1.725   4.257
 8643TIP3    H225894   3.745   1.714   4.192
 8644TIP3   OH225895   2.834   3.851   3.538
 8644TIP3    H125896   2.839   3.787   3.609
 8644TIP3    H225897   2.838   3.936   3.582
 8645TIP3   OH225898   3.155   6.683   3.271
 8645TIP3    H125899   3.092   6.714   3.205
 8645TIP3    H225900   3.228   6.650   3.220
 8646TIP3   OH225901   0.545   4.631   1.265
 8646TIP3    H125902   0.452   4.638   1.241
 8646TIP3    H225903   0.556   4.539   1.289
 8647TIP3   OH225904   4.212   4.451   0.717
 8647TIP3    H125905   4.285   4.502   0.751
 8647TIP3    H225906   4.137   4.510   0.723
 8648TIP3   OH225907   3.863   6.745   0.757
 8648TIP3    H125908   3.878   6.839   0.763
 8648TIP3    H225909   3.948   6.705   0.771
 8649TIP3   OH225910   2.219   3.853   0.286
 8649TIP3    H125911   2.191   3.886   0.200
 8649TIP3    H225912   2.177   3.912   0.348
 8650TIP3   OH225913   3.033   6.186   0.664
 8650TIP3    H125914   3.129   6.193   0.655
 8650TIP3    H225915   3.020   6.105   0.713
 8651TIP3   OH225916   0.404   2.674   0.836
 8651TIP3    H125917   0.438   2.594   0.876
 8651TIP3    H225918   0.482   2.722   0.810
 8652TIP3   OH225919   6.771   3.617   3.964
 8652TIP3    H125920   6.831   3.621   4.039
 8652TIP3    H225921   6.739   3.527   3.963
 8653TIP3   OH225922   5.176   6.269   5.484
 8653TIP3    H125923   5.265   6.278   5.448
 8653TIP3    H225924   5.175   6.328   5.559
 8654TIP3   OH225925   6.541   1.139   5.127
 8654TIP3    H125926   6.505   1.217   5.083
 8654TIP3    H225927   6.590   1.174   5.201
 8655TIP3   OH225928   1.707   3.127   4.851
 8655TIP3    H125929   1.744   3.105   4.766
 8655TIP3    H225930   1.615   3.144   4.835
 8656TIP3   OH225931   0.164   2.992   5.214
 8656TIP3    H125932   0.217   3.044   5.154
 8656TIP3    H225933   0.116   2.932   5.157
 8657TIP3   OH225934   6.551   6.224   4.519
 8657TIP3    H125935   6.542   6.261   4.431
 8657TIP3    H225936   6.468   6.243   4.561
 8658TIP3   OH225937   3.081   1.400   0.541
 8658TIP3    H125938   3.150   1.361   0.595
 8658TIP3    H225939   3.013   1.425   0.604
 8659TIP3   OH225940   2.829   4.895   2.967
 8659TIP3    H125941   2.897   4.875   2.903
 8659TIP3    H225942   2.876   4.932   3.042
 8660TIP3   OH225943   1.765   3.127   3.035
 8660TIP3    H125944   1.670   3.129   3.027
 8660TIP3    H225945   1.796   3.122   2.944
 8661TIP3   OH225946   6.835   1.144   3.295
 8661TIP3    H125947   6.916   1.122   3.340
 8661TIP3    H225948   6.823   1.074   3.231
 8662TIP3   OH225949   1.142   6.311   3.991
 8662TIP3    H125950   1.221   6.266   4.021
 8662TIP3    H225951   1.070   6.261   4.029
 8663TIP3   OH225952   4.411   2.172   2.961
 8663TIP3    H125953   4.428   2.085   2.998
 8663TIP3    H225954   4.484   2.225   2.993
 8664TIP3   OH225955   1.171   5.737   5.329
 8664TIP3    H125956   1.195   5.664   5.386
 8664TIP3    H225957   1.076   5.732   5.322
 8665TIP3   OH225958   4.192   1.562   0.773
 8665TIP3    H125959   4.270   1.508   0.786
 8665TIP3    H225960   4.205   1.603   0.687
 8666TIP3   OH225961   5.938   6.692   5.537
 8666TIP3    H125962   5.926   6.719   5.445
 8666TIP3    H225963   5.859   6.723   5.581
 8667TIP3   OH225964   2.875   1.381   3.225
 8667TIP3    H125965   2.855   1.408   3.315
 8667TIP3    H225966   2.889   1.463   3.178
 8668TIP3   OH225967   5.329   3.072   1.442
 8668TIP3    H125968   5.314   2.978   1.440
 8668TIP3    H225969   5.253   3.108   1.487
 8669TIP3   OH225970   7.028   5.177   3.252
 8669TIP3    H125971   6.964   5.212   3.190
 8669TIP3    H225972   7.094   5.246   3.259
 8670TIP3   OH225973   1.002   6.458   4.864
 8670TIP3    H125974   0.950   6.393   4.816
 8670TIP3    H225975   0.948   6.483   4.938
 8671TIP3   OH225976   6.636   2.028   4.081
 8671TIP3    H125977   6.569   1.962   4.099
 8671TIP3    H225978   6.687   1.990   4.009
 8672TIP3   OH225979   4.618   4.816   1.319
 8672TIP3    H125980   4.528   4.830   1.345
 8672TIP3    H225981   4.613   4.791   1.226
 8673TIP3   OH225982   6.436   5.104   2.803
 8673TIP3    H125983   6.349   5.143   2.796
 8673TIP3    H225984   6.494   5.166   2.759
 8674TIP3   OH225985   4.785   3.296   0.842
 8674TIP3    H125986   4.716   3.231   0.854
 8674TIP3    H225987   4.864   3.252   0.873
 8675TIP3   OH225988   7.048   1.129   3.802
 8675TIP3    H125989   7.004   1.170   3.728
 8675TIP3    H225990   7.040   1.035   3.786
 8676TIP3   OH225991   5.707   0.762   1.282
 8676TIP3    H125992   5.729   0.784   1.373
 8676TIP3    H225993   5.765   0.690   1.260
 8677TIP3   OH225994   3.121   5.284   1.284
 8677TIP3    H125995   3.141   5.226   1.357
 8677TIP3    H225996   3.104   5.369   1.324
 8678TIP3   OH225997   1.691   6.508   2.474
 8678TIP3    H125998   1.607   6.490   2.516
 8678TIP3    H225999   1.721   6.422   2.443
 8679TIP3   OH226000   4.585   2.110   5.836
 8679TIP3    H126001   4.538   2.065   5.905
 8679TIP3    H226002   4.674   2.076   5.840
 8680TIP3   OH226003   4.498   2.548   2.039
 8680TIP3    H126004   4.535   2.633   2.017
 8680TIP3    H226005   4.454   2.562   2.123
 8681TIP3   OH226006   6.085   4.843   1.147
 8681TIP3    H126007   6.008   4.891   1.118
 8681TIP3    H226008   6.097   4.774   1.081
 8682TIP3   OH226009   1.097   3.657   2.748
 8682TIP3    H126010   1.184   3.652   2.788
 8682TIP3    H226011   1.111   3.626   2.658
 8683TIP3   OH226012   1.294   3.511   4.970
 8683TIP3    H126013   1.325   3.547   4.887
 8683TIP3    H226014   1.210   3.470   4.950
 8684TIP3   OH226015   2.957   4.196   0.849
 8684TIP3    H126016   2.926   4.115   0.889
 8684TIP3    H226017   3.048   4.204   0.878
 8685TIP3   OH226018   0.884   4.190   0.801
 8685TIP3    H126019   0.898   4.285   0.801
 8685TIP3    H226020   0.793   4.179   0.828
 8686TIP3   OH226021   1.077   6.450   4.438
 8686TIP3    H126022   1.087   6.360   4.407
 8686TIP3    H226023   1.049   6.500   4.361
 8687TIP3   OH226024   1.377   3.380   1.981
 8687TIP3    H126025   1.342   3.424   1.904
 8687TIP3    H226026   1.331   3.419   2.055
 8688TIP3   OH226027   2.584   0.702   5.022
 8688TIP3    H126028   2.513   0.765   5.038
 8688TIP3    H226029   2.549   0.618   5.052
 8689TIP3   OH226030   4.869   3.789   5.335
 8689TIP3    H126031   4.794   3.773   5.278
 8689TIP3    H226032   4.830   3.805   5.421
 8690TIP3   OH226033   0.196   6.282   4.969
 8690TIP3    H126034   0.154   6.313   4.889
 8690TIP3    H226035   0.272   6.340   4.980
 8691TIP3   OH226036   1.532   2.511   2.806
 8691TIP3    H126037   1.590   2.475   2.739
 8691TIP3    H226038   1.523   2.441   2.871
 8692TIP3   OH226039   1.925   6.367   4.838
 8692TIP3    H126040   1.837   6.349   4.805
 8692TIP3    H226041   1.951   6.448   4.794
 8693TIP3   OH226042   1.018   6.728   1.836
 8693TIP3    H126043   1.101   6.696   1.873
 8693TIP3    H226044   1.018   6.821   1.856
 8694TIP3   OH226045   2.898   0.436   1.212
 8694TIP3    H126046   2.858   0.404   1.131
 8694TIP3    H226047   2.981   0.389   1.218
 8695TIP3   OH226048   7.044   1.418   4.189
 8695TIP3    H126049   6.965   1.364   4.191
 8695TIP3    H226050   7.028   1.488   4.253
 8696TIP3   OH226051   1.396   2.421   5.027
 8696TIP3    H126052   1.457   2.348   5.013
 8696TIP3    H226053   1.438   2.474   5.095
 8697TIP3   OH226054   6.954   5.203   3.900
 8697TIP3    H126055   7.002   5.282   3.874
 8697TIP3    H226056   6.881   5.236   3.953
 8698TIP3   OH226057   1.636   3.321   2.070
 8698TIP3    H126058   1.565   3.347   2.010
 8698TIP3    H226059   1.687   3.401   2.083
 8699TIP3   OH226060   5.994   4.984   2.971
 8699TIP3    H126061   5.992   5.016   2.880
 8699TIP3    H226062   6.072   5.024   3.008
 8700TIP3   OH226063   4.612   6.080   2.200
 8700TIP3    H126064   4.586   6.172   2.198
 8700TIP3    H226065   4.707   6.081   2.191
 8701TIP3   OH226066   6.910   3.808   0.778
 8701TIP3    H126067   6.982   3.745   0.775
 8701TIP3    H226068   6.945   3.885   0.733
 8702TIP3   OH226069   2.516   3.181   2.877
 8702TIP3    H126070   2.526   3.214   2.966
 8702TIP3    H226071   2.464   3.101   2.887
 8703TIP3   OH226072   3.655   5.679   0.456
 8703TIP3    H126073   3.747   5.653   0.455
 8703TIP3    H226074   3.633   5.696   0.364
 8704TIP3   OH226075   3.969   4.619   2.165
 8704TIP3    H126076   4.030   4.560   2.210
 8704TIP3    H226077   3.958   4.692   2.225
 8705TIP3   OH226078   6.691   2.859   0.551
 8705TIP3    H126079   6.719   2.951   0.547
 8705TIP3    H226080   6.703   2.835   0.643
 8706TIP3   OH226081   5.093   0.394   4.084
 8706TIP3    H126082   5.077   0.431   3.997
 8706TIP3    H226083   5.140   0.463   4.131
 8707TIP3   OH226084   0.341   1.376   1.472
 8707TIP3    H126085   0.305   1.385   1.383
 8707TIP3    H226086   0.278   1.422   1.527
 8708TIP3   OH226087   6.757   4.406   0.349
 8708TIP3    H126088   6.829   4.347   0.329
 8708TIP3    H226089   6.717   4.425   0.264
 8709TIP3   OH226090   2.506   5.159   0.163
 8709TIP3    H126091   2.559   5.158   0.084
 8709TIP3    H226092   2.532   5.080   0.211
 8710TIP3   OH226093   0.645   1.681   1.507
 8710TIP3    H126094   0.674   1.592   1.487
 8710TIP3    H226095   0.640   1.685   1.603
 8711TIP3   OH226096   6.605   5.622   5.584
 8711TIP3    H126097   6.693   5.641   5.552
 8711TIP3    H226098   6.583   5.537   5.546
 8712TIP3   OH226099   2.905   2.740   0.859
 8712TIP3    H126100   2.816   2.775   0.854
 8712TIP3    H226101   2.923   2.736   0.953
 8713TIP3   OH226102   6.724   4.938   5.085
 8713TIP3    H126103   6.676   4.931   5.003
 8713TIP3    H226104   6.661   4.974   5.147
 8714TIP3   OH226105   0.044   3.386   1.099
 8714TIP3    H126106   0.088   3.348   1.175
 8714TIP3    H226107   0.020   3.474   1.127
 8715TIP3   OH226108   3.976   1.126   0.469
 8715TIP3    H126109   4.029   1.174   0.533
 8715TIP3    H226110   3.938   1.194   0.413
 8716TIP3   OH226111   3.954   4.095   5.163
 8716TIP3    H126112   4.033   4.094   5.218
 8716TIP3    H226113   3.951   4.183   5.126
 8717TIP3   OH226114   3.645   2.093   3.339
 8717TIP3    H126115   3.672   2.009   3.377
 8717TIP3    H226116   3.581   2.128   3.402
 8718TIP3   OH226117   1.777   5.503   1.164
 8718TIP3    H126118   1.812   5.489   1.251
 8718TIP3    H226119   1.783   5.418   1.120
 8719TIP3   OH226120   4.323   1.913   1.837
 8719TIP3    H126121   4.281   1.988   1.794
 8719TIP3    H226122   4.414   1.939   1.845
 8720TIP3   OH226123   5.234   1.332   2.791
 8720TIP3    H126124   5.253   1.244   2.759
 8720TIP3    H226125   5.276   1.336   2.877
 8721TIP3   OH226126   3.988   2.919   5.201
 8721TIP3    H126127   4.004   2.914   5.107
 8721TIP3    H226128   3.987   3.012   5.220
 8722TIP3   OH226129   4.867   0.761   3.920
 8722TIP3    H126130   4.863   0.854   3.900
 8722TIP3    H226131   4.870   0.718   3.834
 8723TIP3   OH226132   5.078   5.495   2.004
 8723TIP3    H126133   5.044   5.558   1.941
 8723TIP3    H226134   5.001   5.448   2.035
 8724TIP3   OH226135   2.192   2.114   3.307
 8724TIP3    H126136   2.243   2.171   3.249
 8724TIP3    H226137   2.104   2.149   3.305
 8725TIP3   OH226138   7.157   0.711   4.651
 8725TIP3    H126139   7.208   0.630   4.648
 8725TIP3    H226140   7.223   0.780   4.655
 8726TIP3   OH226141   4.763   3.024   0.497
 8726TIP3    H126142   4.736   2.971   0.422
 8726TIP3    H226143   4.731   3.112   0.478
 8727TIP3   OH226144   2.748   1.476   1.510
 8727TIP3    H126145   2.767   1.489   1.417
 8727TIP3    H226146   2.834   1.460   1.550
 8728TIP3   OH226147   1.626   0.776   4.013
 8728TIP3    H126148   1.678   0.699   3.991
 8728TIP3    H226149   1.575   0.794   3.934
 8729TIP3   OH226150   6.350   4.152   5.190
 8729TIP3    H126151   6.257   4.140   5.172
 8729TIP3    H226152   6.375   4.228   5.137
 8730TIP3   OH226153   5.421   2.143   5.272
 8730TIP3    H126154   5.491   2.180   5.219
 8730TIP3    H226155   5.386   2.217   5.322
 8731TIP3   OH226156   0.551   2.140   2.487
 8731TIP3    H126157   0.495   2.105   2.418
 8731TIP3    H226158   0.546   2.075   2.557
 8732TIP3   OH226159   3.893   4.724   4.133
 8732TIP3    H126160   3.858   4.786   4.197
 8732TIP3    H226161   3.827   4.721   4.064
 8733TIP3   OH226162   0.733   0.429   4.688
 8733TIP3    H126163   0.678   0.362   4.648
 8733TIP3    H226164   0.703   0.433   4.779
 8734TIP3   OH226165   4.375   6.529   2.128
 8734TIP3    H126166   4.429   6.484   2.193
 8734TIP3    H226167   4.326   6.459   2.086
 8735TIP3   OH226168   0.155   3.094   4.491
 8735TIP3    H126169   0.218   3.023   4.507
 8735TIP3    H226170   0.075   3.049   4.463
 8736TIP3   OH226171   3.965   2.893   5.489
 8736TIP3    H126172   3.961   2.888   5.394
 8736TIP3    H226173   3.888   2.943   5.515
 8737TIP3   OH226174   0.917   2.271   2.083
 8737TIP3    H126175   0.942   2.184   2.051
 8737TIP3    H226176   0.833   2.258   2.125
 8738TIP3   OH226177   5.360   4.350   4.651
 8738TIP3    H126178   5.319   4.292   4.587
 8738TIP3    H226179   5.371   4.296   4.729
 8739TIP3   OH226180   2.008   4.463   3.609
 8739TIP3    H126181   2.012   4.372   3.580
 8739TIP3    H226182   1.917   4.475   3.637
 8740TIP3   OH226183   1.352   4.253   5.946
 8740TIP3    H126184   1.293   4.320   5.979
 8740TIP3    H226185   1.306   4.214   5.872
 8741TIP3   OH226186   2.737   4.669   0.284
 8741TIP3    H126187   2.816   4.656   0.337
 8741TIP3    H226188   2.670   4.617   0.328
 8742TIP3   OH226189   0.184   4.111   2.064
 8742TIP3    H126190   0.239   4.130   2.141
 8742TIP3    H226191   0.114   4.175   2.069
 8743TIP3   OH226192   4.312   3.372   3.507
 8743TIP3    H126193   4.227   3.416   3.498
 8743TIP3    H226194   4.375   3.435   3.471
 8744TIP3   OH226195   2.134   3.014   4.963
 8744TIP3    H126196   2.198   3.085   4.968
 8744TIP3    H226197   2.058   3.046   5.013
 8745TIP3   OH226198   4.302   4.777   2.429
 8745TIP3    H126199   4.317   4.721   2.506
 8745TIP3    H226200   4.337   4.726   2.356
 8746TIP3   OH226201   1.750   2.853   0.959
 8746TIP3    H126202   1.685   2.923   0.950
 8746TIP3    H226203   1.789   2.867   1.046
 8747TIP3   OH226204   1.595   6.523   3.911
 8747TIP3    H126205   1.503   6.546   3.922
 8747TIP3    H226206   1.597   6.470   3.831
 8748TIP3   OH226207   3.088   3.486   5.506
 8748TIP3    H126208   3.125   3.413   5.457
 8748TIP3    H226209   2.998   3.493   5.477
 8749TIP3   OH226210   7.159   1.759   3.828
 8749TIP3    H126211   7.190   1.850   3.827
 8749TIP3    H226212   7.066   1.766   3.806
 8750TIP3   OH226213   4.239   1.685   1.935
 8750TIP3    H126214   4.288   1.758   1.898
 8750TIP3    H226215   4.161   1.725   1.974
 8751TIP3   OH226216   0.910   1.202   0.199
 8751TIP3    H126217   0.887   1.294   0.198
 8751TIP3    H226218   0.961   1.191   0.280
 8752TIP3   OH226219   2.525   4.069   0.596
 8752TIP3    H126220   2.554   4.117   0.674
 8752TIP3    H226221   2.515   3.979   0.627
 8753TIP3   OH226222   0.545   6.131   1.219
 8753TIP3    H126223   0.605   6.088   1.158
 8753TIP3    H226224   0.546   6.223   1.193
 8754TIP3   OH226225   2.727   2.793   5.393
 8754TIP3    H126226   2.732   2.853   5.468
 8754TIP3    H226227   2.736   2.850   5.316
 8755TIP3   OH226228   5.453   1.051   1.120
 8755TIP3    H126229   5.421   1.075   1.207
 8755TIP3    H226230   5.386   0.992   1.085
 8756TIP3   OH226231   2.636   1.852   2.042
 8756TIP3    H126232   2.607   1.907   1.969
 8756TIP3    H226233   2.657   1.914   2.112
 8757TIP3   OH226234   0.482   0.145   1.760
 8757TIP3    H126235   0.501   0.096   1.840
 8757TIP3    H226236   0.420   0.212   1.788
 8758TIP3   OH226237   4.523   4.335   3.026
 8758TIP3    H126238   4.564   4.250   3.013
 8758TIP3    H226239   4.431   4.316   3.043
 8759TIP3   OH226240   4.165   1.142   1.883
 8759TIP3    H126241   4.084   1.132   1.934
 8759TIP3    H226242   4.158   1.230   1.845
 8760TIP3   OH226243   6.120   1.812   4.266
 8760TIP3    H126244   6.108   1.725   4.230
 8760TIP3    H226245   6.178   1.799   4.341
 8761TIP3   OH226246   2.239   4.210   4.812
 8761TIP3    H126247   2.256   4.180   4.723
 8761TIP3    H226248   2.315   4.263   4.835
 8762TIP3   OH226249   6.302   2.018   2.121
 8762TIP3    H126250   6.241   1.945   2.128
 8762TIP3    H226251   6.389   1.978   2.132
 8763TIP3   OH226252   2.346   1.023   4.211
 8763TIP3    H126253   2.276   1.029   4.276
 8763TIP3    H226254   2.315   1.075   4.137
 8764TIP3   OH226255   1.265   3.523   4.114
 8764TIP3    H126256   1.300   3.454   4.058
 8764TIP3    H226257   1.175   3.535   4.085
 8765TIP3   OH226258   6.784   2.862   5.810
 8765TIP3    H126259   6.747   2.778   5.786
 8765TIP3    H226260   6.708   2.919   5.822
 8766TIP3   OH226261   6.108   5.011   0.703
 8766TIP3    H126262   6.163   5.083   0.671
 8766TIP3    H226263   6.150   4.932   0.668
 8767TIP3   OH226264   1.918   5.865   3.176
 8767TIP3    H126265   1.930   5.959   3.190
 8767TIP3    H226266   1.900   5.829   3.263
 8768TIP3   OH226267   1.281   4.055   2.356
 8768TIP3    H126268   1.295   4.009   2.274
 8768TIP3    H226269   1.194   4.093   2.348
 8769TIP3   OH226270   1.550   0.771   0.620
 8769TIP3    H126271   1.597   0.812   0.693
 8769TIP3    H226272   1.483   0.717   0.663
 8770TIP3   OH226273   6.644   1.391   3.791
 8770TIP3    H126274   6.627   1.315   3.848
 8770TIP3    H226275   6.665   1.462   3.852
 8771TIP3   OH226276   1.918   0.638   0.112
 8771TIP3    H126277   1.917   0.574   0.183
 8771TIP3    H226278   1.988   0.698   0.134
 8772TIP3   OH226279   0.849   5.721   1.069
 8772TIP3    H126280   0.897   5.638   1.065
 8772TIP3    H226281   0.851   5.753   0.979
 8773TIP3   OH226282   4.292   1.782   0.982
 8773TIP3    H126283   4.369   1.834   0.958
 8773TIP3    H226284   4.318   1.691   0.967
 8774TIP3   OH226285   3.250   4.644   2.926
 8774TIP3    H126286   3.173   4.594   2.950
 8774TIP3    H226287   3.317   4.619   2.990
 8775TIP3   OH226288   6.469   3.149   0.258
 8775TIP3    H126289   6.542   3.155   0.319
 8775TIP3    H226290   6.431   3.237   0.257
 8776TIP3   OH226291   4.394   3.222   1.309
 8776TIP3    H126292   4.349   3.224   1.394
 8776TIP3    H226293   4.388   3.131   1.281
 8777TIP3   OH226294   1.735   2.911   1.606
 8777TIP3    H126295   1.700   2.835   1.653
 8777TIP3    H226296   1.683   2.985   1.637
 8778TIP3   OH226297   1.667   3.743   3.865
 8778TIP3    H126298   1.706   3.660   3.894
 8778TIP3    H226299   1.692   3.806   3.933
 8779TIP3   OH226300   6.392   3.167   4.748
 8779TIP3    H126301   6.363   3.076   4.753
 8779TIP3    H226302   6.414   3.180   4.656
 8780TIP3   OH226303   1.414   6.209   4.865
 8780TIP3    H126304   1.409   6.176   4.954
 8780TIP3    H226305   1.325   6.201   4.831
 8781TIP3   OH226306   2.164   4.730   2.642
 8781TIP3    H126307   2.086   4.720   2.698
 8781TIP3    H226308   2.236   4.743   2.704
 8782TIP3   OH226309   3.384   6.577   3.139
 8782TIP3    H126310   3.377   6.567   3.044
 8782TIP3    H226311   3.443   6.651   3.151
 8783TIP3   OH226312   2.197   0.100   2.707
 8783TIP3    H126313   2.147   0.073   2.631
 8783TIP3    H226314   2.219   0.017   2.751
 8784TIP3   OH226315   2.400   6.431   0.805
 8784TIP3    H126316   2.462   6.364   0.779
 8784TIP3    H226317   2.343   6.388   0.868
 8785TIP3   OH226318   1.233   5.401   3.327
 8785TIP3    H126319   1.242   5.449   3.245
 8785TIP3    H226320   1.308   5.342   3.329
 8786TIP3   OH226321   3.376   1.745   2.171
 8786TIP3    H126322   3.357   1.704   2.087
 8786TIP3    H226323   3.310   1.815   2.180
 8787TIP3   OH226324   2.162   4.200   0.841
 8787TIP3    H126325   2.068   4.212   0.833
 8787TIP3    H226326   2.172   4.124   0.898
 8788TIP3   OH226327   6.786   3.921   0.074
 8788TIP3    H126328   6.874   3.949   0.096
 8788TIP3    H226329   6.783   3.925  -0.022
 8789TIP3   OH226330   1.516   0.368   0.176
 8789TIP3    H126331   1.568   0.370   0.256
 8789TIP3    H226332   1.483   0.457   0.166
 8790TIP3   OH226333   4.984   2.460   1.028
 8790TIP3    H126334   4.895   2.429   1.043
 8790TIP3    H226335   4.989   2.474   0.933
 8791TIP3   OH226336   1.629   3.379   2.724
 8791TIP3    H126337   1.584   3.349   2.645
 8791TIP3    H226338   1.721   3.355   2.709
 8792TIP3   OH226339   0.238   0.674   3.802
 8792TIP3    H126340   0.163   0.660   3.743
 8792TIP3    H226341   0.313   0.683   3.743
 8793TIP3   OH226342   4.722   1.270   3.460
 8793TIP3    H126343   4.788   1.206   3.436
 8793TIP3    H226344   4.692   1.244   3.547
 8794TIP3   OH226345   2.591   6.251   0.801
 8794TIP3    H126346   2.641   6.182   0.757
 8794TIP3    H226347   2.584   6.222   0.892
 8795TIP3   OH226348   2.561   1.560   5.687
 8795TIP3    H126349   2.651   1.569   5.658
 8795TIP3    H226350   2.539   1.646   5.724
 8796TIP3   OH226351   5.527   4.976   3.671
 8796TIP3    H126352   5.606   5.029   3.661
 8796TIP3    H226353   5.557   4.886   3.656
 8797TIP3   OH226354   1.019   4.350   3.324
 8797TIP3    H126355   1.037   4.444   3.323
 8797TIP3    H226356   0.927   4.343   3.298
 8798TIP3   OH226357   0.520   4.408   5.311
 8798TIP3    H126358   0.532   4.366   5.226
 8798TIP3    H226359   0.451   4.357   5.353
 8799TIP3   OH226360   5.104   2.960   0.092
 8799TIP3    H126361   5.049   3.035   0.070
 8799TIP3    H226362   5.083   2.942   0.184
 8800TIP3   OH226363   1.843   4.211   1.613
 8800TIP3    H126364   1.934   4.242   1.605
 8800TIP3    H226365   1.832   4.152   1.539
 8801TIP3   OH226366   2.681   2.950   3.026
 8801TIP3    H126367   2.589   2.959   3.051
 8801TIP3    H226368   2.728   2.945   3.109
 8802TIP3   OH226369   4.746   0.529   2.962
 8802TIP3    H126370   4.836   0.510   2.987
 8802TIP3    H226371   4.707   0.444   2.946
 8803TIP3   OH226372   0.090   2.469   4.380
 8803TIP3    H126373   0.061   2.521   4.305
 8803TIP3    H226374   0.132   2.393   4.342
 8804TIP3   OH226375   1.458   6.339   1.384
 8804TIP3    H126376   1.372   6.351   1.423
 8804TIP3    H226377   1.448   6.366   1.293
 8805TIP3   OH226378   4.187   2.391   1.146
 8805TIP3    H126379   4.102   2.395   1.103
 8805TIP3    H226380   4.222   2.480   1.136
 8806TIP3   OH226381   2.578   0.864   2.341
 8806TIP3    H126382   2.613   0.819   2.264
 8806TIP3    H226383   2.495   0.901   2.311
 8807TIP3   OH226384   6.462   3.155   3.381
 8807TIP3    H126385   6.385   3.099   3.376
 8807TIP3    H226386   6.523   3.119   3.317
 8808TIP3   OH226387   2.274   5.819   4.274
 8808TIP3    H126388   2.340   5.751   4.259
 8808TIP3    H226389   2.315   5.900   4.244
 8809TIP3   OH226390   6.901   0.322   0.819
 8809TIP3    H126391   6.886   0.415   0.806
 8809TIP3    H226392   6.947   0.317   0.903
 8810TIP3   OH226393   2.304   0.177   3.695
 8810TIP3    H126394   2.300   0.265   3.731
 8810TIP3    H226395   2.220   0.137   3.720
 8811TIP3   OH226396   4.681   0.444   4.207
 8811TIP3    H126397   4.625   0.414   4.279
 8811TIP3    H226398   4.748   0.497   4.249
 8812TIP3   OH226399   3.196   4.333   2.832
 8812TIP3    H126400   3.261   4.268   2.860
 8812TIP3    H226401   3.138   4.284   2.774
 8813TIP3   OH226402   1.334   1.832   1.383
 8813TIP3    H126403   1.253   1.826   1.332
 8813TIP3    H226404   1.320   1.906   1.442
 8814TIP3   OH226405   5.643   2.364   3.066
 8814TIP3    H126406   5.718   2.313   3.097
 8814TIP3    H226407   5.592   2.381   3.146
 8815TIP3   OH226408   2.819   5.990   4.340
 8815TIP3    H126409   2.890   6.000   4.277
 8815TIP3    H226410   2.772   6.073   4.338
 8816TIP3   OH226411   2.081   0.591   3.621
 8816TIP3    H126412   2.078   0.684   3.644
 8816TIP3    H226413   2.061   0.546   3.703
 8817TIP3   OH226414   3.997   0.171   1.015
 8817TIP3    H126415   4.012   0.127   0.932
 8817TIP3    H226416   3.941   0.111   1.065
 8818TIP3   OH226417   6.971   4.851   2.697
 8818TIP3    H126418   7.010   4.933   2.667
 8818TIP3    H226419   6.877   4.870   2.702
 8819TIP3   OH226420   6.705   4.975   1.210
 8819TIP3    H126421   6.766   4.951   1.280
 8819TIP3    H226422   6.623   4.932   1.234
 8820TIP3   OH226423   2.423   1.991   0.142
 8820TIP3    H126424   2.404   2.048   0.067
 8820TIP3    H226425   2.516   1.971   0.134
 8821TIP3   OH226426   2.026   0.480   0.313
 8821TIP3    H126427   2.032   0.521   0.399
 8821TIP3    H226428   2.115   0.448   0.297
 8822TIP3   OH226429   6.801   1.478   2.398
 8822TIP3    H126430   6.754   1.399   2.424
 8822TIP3    H226431   6.868   1.489   2.466
 8823TIP3   OH226432   2.458   5.140   5.802
 8823TIP3    H126433   2.418   5.134   5.716
 8823TIP3    H226434   2.514   5.062   5.808
 8824TIP3   OH226435   2.674   4.552   5.847
 8824TIP3    H126436   2.618   4.570   5.922
 8824TIP3    H226437   2.647   4.616   5.781
 8825TIP3   OH226438   0.721   1.649   1.048
 8825TIP3    H126439   0.775   1.632   0.971
 8825TIP3    H226440   0.713   1.564   1.091
 8826TIP3   OH226441   6.592   6.166   0.510
 8826TIP3    H126442   6.673   6.126   0.477
 8826TIP3    H226443   6.562   6.106   0.578
 8827TIP3   OH226444   4.375   4.170   3.377
 8827TIP3    H126445   4.298   4.204   3.332
 8827TIP3    H226446   4.402   4.094   3.325
 8828TIP3   OH226447   6.295   0.760   5.094
 8828TIP3    H126448   6.276   0.775   5.001
 8828TIP3    H226449   6.389   0.773   5.102
 8829TIP3   OH226450   2.838   0.539   5.215
 8829TIP3    H126451   2.753   0.495   5.220
 8829TIP3    H226452   2.902   0.468   5.207
 8830TIP3   OH226453   5.991   3.773   2.501
 8830TIP3    H126454   5.983   3.683   2.532
 8830TIP3    H226455   5.900   3.801   2.489
 8831TIP3   OH226456   4.928   1.228   3.718
 8831TIP3    H126457   4.835   1.227   3.698
 8831TIP3    H226458   4.941   1.153   3.776
 8832TIP3   OH226459   4.781   0.363   0.184
 8832TIP3    H126460   4.761   0.451   0.214
 8832TIP3    H226461   4.860   0.373   0.130
 8833TIP3   OH226462   2.085   4.764   4.467
 8833TIP3    H126463   2.043   4.729   4.388
 8833TIP3    H226464   2.164   4.712   4.477
 8834TIP3   OH226465   0.301   4.468   5.157
 8834TIP3    H126466   0.381   4.518   5.141
 8834TIP3    H226467   0.316   4.427   5.242
 8835TIP3   OH226468   4.380   2.614   3.206
 8835TIP3    H126469   4.455   2.610   3.147
 8835TIP3    H226470   4.322   2.679   3.166
 8836TIP3   OH226471   1.243   6.317   0.705
 8836TIP3    H126472   1.224   6.246   0.644
 8836TIP3    H226473   1.314   6.366   0.664
 8837TIP3   OH226474   3.461   4.470   5.655
 8837TIP3    H126475   3.472   4.383   5.616
 8837TIP3    H226476   3.454   4.454   5.749
 8838TIP3   OH226477   2.661   6.227   4.339
 8838TIP3    H126478   2.689   6.252   4.427
 8838TIP3    H226479   2.565   6.237   4.341
 8839TIP3   OH226480   0.187   6.431   1.843
 8839TIP3    H126481   0.206   6.393   1.757
 8839TIP3    H226482   0.239   6.380   1.904
 8840TIP3   OH226483   2.578   6.493   5.046
 8840TIP3    H126484   2.554   6.449   5.128
 8840TIP3    H226485   2.674   6.495   5.048
 8841TIP3   OH226486   3.011   0.275   0.761
 8841TIP3    H126487   3.096   0.300   0.798
 8841TIP3    H226488   3.027   0.190   0.721
 8842TIP3   OH226489   5.193   0.268   3.740
 8842TIP3    H126490   5.157   0.187   3.703
 8842TIP3    H226491   5.277   0.241   3.776
 8843TIP3   OH226492   6.541   6.530   1.196
 8843TIP3    H126493   6.579   6.444   1.215
 8843TIP3    H226494   6.592   6.591   1.248
 8844TIP3   OH226495   4.941   1.287   1.739
 8844TIP3    H126496   5.036   1.297   1.740
 8844TIP3    H226497   4.918   1.288   1.646
 8845TIP3   OH226498   6.304   5.697   5.234
 8845TIP3    H126499   6.316   5.710   5.329
 8845TIP3    H226500   6.238   5.761   5.209
 8846TIP3   OH226501   6.638   2.353   1.307
 8846TIP3    H126502   6.721   2.306   1.299
 8846TIP3    H226503   6.589   2.328   1.229
 8847TIP3   OH226504   5.173   6.453   1.597
 8847TIP3    H126505   5.183   6.373   1.544
 8847TIP3    H226506   5.259   6.468   1.634
 8848TIP3   OH226507   3.343   3.195   4.067
 8848TIP3    H126508   3.273   3.247   4.106
 8848TIP3    H226509   3.317   3.104   4.084
 8849TIP3   OH226510   3.976   1.270   5.656
 8849TIP3    H126511   4.030   1.349   5.656
 8849TIP3    H226512   3.980   1.237   5.566
 8850TIP3   OH226513   1.320   6.678   5.127
 8850TIP3    H126514   1.349   6.670   5.218
 8850TIP3    H226515   1.280   6.594   5.107
 8851TIP3   OH226516   3.308   6.034   0.334
 8851TIP3    H126517   3.363   6.079   0.270
 8851TIP3    H226518   3.333   6.073   0.418
 8852TIP3   OH226519   7.122   2.841   3.502
 8852TIP3    H126520   7.027   2.844   3.501
 8852TIP3    H226521   7.143   2.747   3.506
 8853TIP3   OH226522   7.056   6.335   2.056
 8853TIP3    H126523   7.128   6.289   2.099
 8853TIP3    H226524   7.033   6.279   1.982
 8854TIP3   OH226525   2.358   4.161   1.622
 8854TIP3    H126526   2.398   4.193   1.703
 8854TIP3    H226527   2.328   4.241   1.578
 8855TIP3   OH226528   6.275   3.117   4.343
 8855TIP3    H126529   6.226   3.180   4.290
 8855TIP3    H226530   6.230   3.117   4.428
 8856TIP3   OH226531   0.531   5.887   4.454
 8856TIP3    H126532   0.601   5.923   4.399
 8856TIP3    H226533   0.511   5.802   4.415
 8857TIP3   OH226534   4.425   3.761   2.728
 8857TIP3    H126535   4.383   3.683   2.693
 8857TIP3    H226536   4.353   3.812   2.765
 8858TIP3   OH226537   4.599   2.809   1.202
 8858TIP3    H126538   4.690   2.798   1.231
 8858TIP3    H226539   4.601   2.787   1.109
 8859TIP3   OH226540   4.434   3.297   3.080
 8859TIP3    H126541   4.491   3.346   3.139
 8859TIP3    H226542   4.471   3.209   3.078
 8860TIP3   OH226543   2.574   1.561   5.373
 8860TIP3    H126544   2.550   1.588   5.284
 8860TIP3    H226545   2.638   1.627   5.402
 8861TIP3   OH226546   5.111   5.110   0.936
 8861TIP3    H126547   5.125   5.037   0.997
 8861TIP3    H226548   5.149   5.186   0.980
 8862TIP3   OH226549   2.226   2.983   3.712
 8862TIP3    H126550   2.196   2.915   3.651
 8862TIP3    H226551   2.199   2.952   3.798
 8863TIP3   OH226552   6.175   3.026   3.996
 8863TIP3    H126553   6.129   2.959   3.946
 8863TIP3    H226554   6.231   3.070   3.932
 8864TIP3   OH226555   0.186   4.965   4.779
 8864TIP3    H126556   0.211   4.873   4.776
 8864TIP3    H226557   0.181   4.985   4.873
 8865TIP3   OH226558   1.166   6.450   2.718
 8865TIP3    H126559   1.148   6.415   2.631
 8865TIP3    H226560   1.114   6.397   2.777
 8866TIP3   OH226561   3.793   5.136   1.621
 8866TIP3    H126562   3.741   5.211   1.651
 8866TIP3    H226563   3.863   5.129   1.685
 8867TIP3   OH226564   5.148   0.120   4.123
 8867TIP3    H126565   5.137   0.214   4.136
 8867TIP3    H226566   5.241   0.109   4.105
 8868TIP3   OH226567   3.335   2.126   4.207
 8868TIP3    H126568   3.282   2.206   4.212
 8868TIP3    H226569   3.304   2.081   4.128
 8869TIP3   OH226570   7.043   3.677   0.491
 8869TIP3    H126571   7.059   3.754   0.546
 8869TIP3    H226572   7.052   3.709   0.401
 8870TIP3   OH226573   4.017   5.145   0.984
 8870TIP3    H126574   3.993   5.071   1.040
 8870TIP3    H226575   3.933   5.175   0.948
 8871TIP3   OH226576   6.632   2.826   1.780
 8871TIP3    H126577   6.564   2.848   1.716
 8871TIP3    H226578   6.624   2.894   1.847
 8872TIP3   OH226579   2.310   4.576   3.149
 8872TIP3    H126580   2.342   4.663   3.173
 8872TIP3    H226581   2.235   4.560   3.207
 8873TIP3   OH226582   1.591   2.953   4.392
 8873TIP3    H126583   1.503   2.965   4.427
 8873TIP3    H226584   1.648   2.998   4.454
 8874TIP3   OH226585   5.002   1.439   2.945
 8874TIP3    H126586   5.037   1.351   2.938
 8874TIP3    H226587   5.067   1.494   2.901
 8875TIP3   OH226588   1.044   0.418   5.437
 8875TIP3    H126589   0.989   0.461   5.503
 8875TIP3    H226590   1.106   0.366   5.488
 8876TIP3   OH226591   4.563   5.078   2.591
 8876TIP3    H126592   4.490   5.042   2.641
 8876TIP3    H226593   4.523   5.146   2.536
 8877TIP3   OH226594   7.204   1.636   5.247
 8877TIP3    H126595   7.224   1.712   5.302
 8877TIP3    H226596   7.162   1.674   5.169
 8878TIP3   OH226597   4.134   6.337   1.321
 8878TIP3    H126598   4.090   6.265   1.277
 8878TIP3    H226599   4.204   6.363   1.261
 8879TIP3   OH226600   1.717   3.525   4.070
 8879TIP3    H126601   1.700   3.432   4.080
 8879TIP3    H226602   1.633   3.567   4.092
 8880TIP3   OH226603   5.142   0.446   3.492
 8880TIP3    H126604   5.177   0.393   3.421
 8880TIP3    H226605   5.163   0.398   3.572
 8881TIP3   OH226606   6.468   4.048   5.658
 8881TIP3    H126607   6.541   4.102   5.628
 8881TIP3    H226608   6.416   4.032   5.580
 8882TIP3   OH226609   2.953   0.023   4.529
 8882TIP3    H126610   3.011  -0.040   4.573
 8882TIP3    H226611   2.976   0.016   4.436
 8883TIP3   OH226612   6.667   5.445   2.322
 8883TIP3    H126613   6.727   5.393   2.375
 8883TIP3    H226614   6.647   5.521   2.376
 8884TIP3   OH226615   6.256   5.823   1.420
 8884TIP3    H126616   6.337   5.868   1.395
 8884TIP3    H226617   6.227   5.780   1.339
 8885TIP3   OH226618   1.069   5.505   1.017
 8885TIP3    H126619   1.016   5.426   1.006
 8885TIP3    H226620   1.123   5.487   1.094
 8886TIP3   OH226621   6.391   1.637   0.266
 8886TIP3    H126622   6.423   1.669   0.351
 8886TIP3    H226623   6.339   1.709   0.231
 8887TIP3   OH226624   6.821   2.548   4.933
 8887TIP3    H126625   6.835   2.507   5.018
 8887TIP3    H226626   6.868   2.493   4.871
 8888TIP3   OH226627   3.506   2.324   3.486
 8888TIP3    H126628   3.443   2.377   3.437
 8888TIP3    H226629   3.538   2.384   3.554
 8889TIP3   OH226630   2.256   5.288   3.499
 8889TIP3    H126631   2.274   5.324   3.412
 8889TIP3    H226632   2.292   5.200   3.497
 8890TIP3   OH226633   6.441   5.358   4.501
 8890TIP3    H126634   6.465   5.265   4.495
 8890TIP3    H226635   6.363   5.366   4.446
 8891TIP3   OH226636   4.849   4.152   0.928
 8891TIP3    H126637   4.798   4.131   0.850
 8891TIP3    H226638   4.933   4.108   0.916
 8892TIP3   OH226639   2.270   2.225   2.719
 8892TIP3    H126640   2.226   2.196   2.639
 8892TIP3    H226641   2.286   2.144   2.768
 8893TIP3   OH226642   6.224   6.539   5.037
 8893TIP3    H126643   6.300   6.585   5.003
 8893TIP3    H226644   6.211   6.575   5.125
 8894TIP3   OH226645   0.571   4.805   1.502
 8894TIP3    H126646   0.607   4.735   1.555
 8894TIP3    H226647   0.562   4.767   1.415
 8895TIP3   OH226648   3.336   5.455   2.157
 8895TIP3    H126649   3.333   5.371   2.202
 8895TIP3    H226650   3.250   5.463   2.115
 8896TIP3   OH226651   0.278   5.719   2.332
 8896TIP3    H126652   0.295   5.653   2.400
 8896TIP3    H226653   0.197   5.690   2.290
 8897TIP3   OH226654  -0.007   2.446   2.065
 8897TIP3    H126655   0.053   2.391   2.115
 8897TIP3    H226656   0.034   2.454   1.979
 8898TIP3   OH226657   5.433   0.134   3.891
 8898TIP3    H126658   5.509   0.193   3.902
 8898TIP3    H226659   5.418   0.098   3.979
 8899TIP3   OH226660   3.501   4.342   2.093
 8899TIP3    H126661   3.451   4.401   2.149
 8899TIP3    H226662   3.435   4.302   2.036
 8900TIP3   OH226663   6.394   6.666   4.149
 8900TIP3    H126664   6.435   6.671   4.236
 8900TIP3    H226665   6.444   6.727   4.095
 8901TIP3   OH226666   1.471   3.243   4.757
 8901TIP3    H126667   1.513   3.314   4.708
 8901TIP3    H226668   1.378   3.263   4.755
 8902TIP3   OH226669   3.155   4.663   2.341
 8902TIP3    H126670   3.140   4.606   2.417
 8902TIP3    H226671   3.078   4.651   2.286
 8903TIP3   OH226672   2.098   0.190   5.188
 8903TIP3    H126673   2.157   0.189   5.113
 8903TIP3    H226674   2.067   0.281   5.193
 8904TIP3   OH226675   1.211   6.176   4.663
 8904TIP3    H126676   1.151   6.186   4.590
 8904TIP3    H226677   1.172   6.108   4.718
 8905TIP3   OH226678   3.126   1.397   5.393
 8905TIP3    H126679   3.050   1.455   5.398
 8905TIP3    H226680   3.170   1.408   5.477
 8906TIP3   OH226681   5.273   3.381   1.548
 8906TIP3    H126682   5.257   3.290   1.574
 8906TIP3    H226683   5.246   3.433   1.624
 8907TIP3   OH226684   4.036   4.050   3.086
 8907TIP3    H126685   4.122   4.010   3.098
 8907TIP3    H226686   3.974   3.985   3.120
 8908TIP3   OH226687   6.151   0.894   0.753
 8908TIP3    H126688   6.205   0.973   0.756
 8908TIP3    H226689   6.206   0.826   0.791
 8909TIP3   OH226690   6.594   1.328   3.319
 8909TIP3    H126691   6.566   1.346   3.409
 8909TIP3    H226692   6.664   1.263   3.328
 8910TIP3   OH226693   4.092   1.151   2.270
 8910TIP3    H126694   4.022   1.194   2.219
 8910TIP3    H226695   4.089   1.060   2.241
 8911TIP3   OH226696   0.233   1.069   2.385
 8911TIP3    H126697   0.233   0.977   2.360
 8911TIP3    H226698   0.225   1.069   2.480
 8912TIP3   OH226699   6.846   0.212   1.859
 8912TIP3    H126700   6.895   0.293   1.871
 8912TIP3    H226701   6.759   0.230   1.895
 8913TIP3   OH226702   7.052   2.045   0.786
 8913TIP3    H126703   7.024   2.093   0.864
 8913TIP3    H226704   6.992   2.074   0.717
 8914TIP3   OH226705   5.262   1.474   4.321
 8914TIP3    H126706   5.181   1.431   4.350
 8914TIP3    H226707   5.326   1.454   4.389
 8915TIP3   OH226708   6.982   5.521   5.310
 8915TIP3    H126709   6.940   5.596   5.268
 8915TIP3    H226710   6.982   5.543   5.403
 8916TIP3   OH226711   0.779   4.418   5.488
 8916TIP3    H126712   0.800   4.486   5.552
 8916TIP3    H226713   0.695   4.446   5.451
 8917TIP3   OH226714   0.690   2.477   1.904
 8917TIP3    H126715   0.656   2.524   1.827
 8917TIP3    H226716   0.693   2.543   1.973
 8918TIP3   OH226717   5.021   4.635   1.196
 8918TIP3    H126718   5.038   4.598   1.283
 8918TIP3    H226719   4.933   4.605   1.174
 8919TIP3   OH226720   6.646   5.805   2.766
 8919TIP3    H126721   6.589   5.826   2.840
 8919TIP3    H226722   6.701   5.883   2.755
 8920TIP3   OH226723   6.245   5.569   3.015
 8920TIP3    H126724   6.330   5.527   3.029
 8920TIP3    H226725   6.204   5.570   3.102
 8921TIP3   OH226726   1.133   1.434   5.767
 8921TIP3    H126727   1.197   1.411   5.834
 8921TIP3    H226728   1.057   1.467   5.816
 8922TIP3   OH226729   0.462   3.715   0.510
 8922TIP3    H126730   0.421   3.687   0.592
 8922TIP3    H226731   0.399   3.692   0.442
 8923TIP3   OH226732   4.928   3.852   2.131
 8923TIP3    H126733   4.854   3.805   2.170
 8923TIP3    H226734   4.905   3.944   2.140
 8924TIP3   OH226735   5.027   6.033   4.711
 8924TIP3    H126736   4.941   6.022   4.753
 8924TIP3    H226737   5.041   5.950   4.665
 8925TIP3   OH226738   1.876   4.381   0.560
 8925TIP3    H126739   1.893   4.363   0.468
 8925TIP3    H226740   1.834   4.467   0.560
 8926TIP3   OH226741   3.139   6.442   1.958
 8926TIP3    H126742   3.232   6.436   1.935
 8926TIP3    H226743   3.110   6.525   1.919
 8927TIP3   OH226744   5.878   4.326   0.961
 8927TIP3    H126745   5.918   4.289   0.882
 8927TIP3    H226746   5.788   4.347   0.935
 8928TIP3   OH226747   6.422   3.949   5.913
 8928TIP3    H126748   6.364   4.024   5.929
 8928TIP3    H226749   6.456   3.964   5.825
 8929TIP3   OH226750   1.582   4.976   3.253
 8929TIP3    H126751   1.639   4.924   3.310
 8929TIP3    H226752   1.579   4.928   3.171
 8930TIP3   OH226753   2.934   1.420   0.948
 8930TIP3    H126754   2.894   1.414   0.862
 8930TIP3    H226755   3.027   1.432   0.931
 8931TIP3   OH226756   6.267   3.813   2.558
 8931TIP3    H126757   6.173   3.800   2.543
 8931TIP3    H226758   6.271   3.878   2.629
 8932TIP3   OH226759   0.320   0.049   3.597
 8932TIP3    H126760   0.231   0.068   3.567
 8932TIP3    H226761   0.344  -0.032   3.551
 8933TIP3   OH226762   0.682   5.683   3.786
 8933TIP3    H126763   0.599   5.635   3.784
 8933TIP3    H226764   0.673   5.749   3.717
 8934TIP3   OH226765   0.899   1.486   5.898
 8934TIP3    H126766   0.824   1.539   5.869
 8934TIP3    H226767   0.865   1.396   5.901
 8935TIP3   OH226768   7.267   1.305   3.827
 8935TIP3    H126769   7.202   1.236   3.833
 8935TIP3    H226770   7.232   1.367   3.763
 8936TIP3   OH226771   0.857   1.840   5.729
 8936TIP3    H126772   0.918   1.782   5.683
 8936TIP3    H226773   0.913   1.892   5.787
 8937TIP3   OH226774   6.807   0.815   0.537
 8937TIP3    H126775   6.874   0.841   0.600
 8937TIP3    H226776   6.810   0.884   0.470
 8938TIP3   OH226777   5.179   3.554   4.516
 8938TIP3    H126778   5.138   3.491   4.456
 8938TIP3    H226779   5.132   3.542   4.599
 8939TIP3   OH226780   1.659   6.025   3.685
 8939TIP3    H126781   1.565   6.042   3.688
 8939TIP3    H226782   1.677   5.973   3.764
 8940TIP3   OH226783   4.428   0.902   0.163
 8940TIP3    H126784   4.499   0.903   0.227
 8940TIP3    H226785   4.427   0.812   0.130
 8941TIP3   OH226786   4.022   2.192   2.354
 8941TIP3    H126787   4.044   2.228   2.441
 8941TIP3    H226788   3.932   2.161   2.363
 8942TIP3   OH226789   4.096   0.323   5.530
 8942TIP3    H126790   4.030   0.260   5.558
 8942TIP3    H226791   4.071   0.345   5.440
 8943TIP3   OH226792   3.998   1.367   3.391
 8943TIP3    H126793   3.958   1.448   3.359
 8943TIP3    H226794   4.063   1.396   3.454
 8944TIP3   OH226795   1.753   4.630   0.094
 8944TIP3    H126796   1.793   4.555   0.050
 8944TIP3    H226797   1.826   4.688   0.113
 8945TIP3   OH226798   6.115   4.898   3.493
 8945TIP3    H126799   6.161   4.815   3.481
 8945TIP3    H226800   6.056   4.904   3.418
 8946TIP3   OH226801   2.537   6.399   0.052
 8946TIP3    H126802   2.477   6.409  -0.021
 8946TIP3    H226803   2.509   6.466   0.115
 8947TIP3   OH226804   6.033   4.032   1.066
 8947TIP3    H126805   5.957   4.081   1.035
 8947TIP3    H226806   6.034   4.047   1.161
 8948TIP3   OH226807   4.444   4.523   0.372
 8948TIP3    H126808   4.536   4.547   0.362
 8948TIP3    H226809   4.419   4.557   0.458
 8949TIP3   OH226810   4.137   5.056   5.300
 8949TIP3    H126811   4.076   5.084   5.231
 8949TIP3    H226812   4.151   4.963   5.284
 8950TIP3   OH226813   0.084   0.196   5.781
 8950TIP3    H126814   0.065   0.278   5.826
 8950TIP3    H226815   0.170   0.209   5.740
 8951TIP3   OH226816   6.491   2.445   1.582
 8951TIP3    H126817   6.452   2.499   1.651
 8951TIP3    H226818   6.497   2.358   1.620
 8952TIP3   OH226819   3.804   6.713   2.265
 8952TIP3    H126820   3.814   6.807   2.248
 8952TIP3    H226821   3.880   6.673   2.222
 8953TIP3   OH226822   6.383   2.963   1.149
 8953TIP3    H126823   6.387   2.949   1.055
 8953TIP3    H226824   6.387   3.058   1.159
 8954TIP3   OH226825   3.867   3.177   2.115
 8954TIP3    H126826   3.810   3.251   2.095
 8954TIP3    H226827   3.905   3.198   2.200
 8955TIP3   OH226828   2.951   2.355   3.795
 8955TIP3    H126829   2.858   2.336   3.785
 8955TIP3    H226830   2.976   2.310   3.876
 8956TIP3   OH226831   4.542   5.546   2.679
 8956TIP3    H126832   4.618   5.528   2.734
 8956TIP3    H226833   4.566   5.623   2.629
 8957TIP3   OH226834   6.122   0.348   3.199
 8957TIP3    H126835   6.200   0.344   3.143
 8957TIP3    H226836   6.052   0.313   3.144
 8958TIP3   OH226837   1.291   4.239   5.300
 8958TIP3    H126838   1.213   4.266   5.348
 8958TIP3    H226839   1.257   4.214   5.213
 8959TIP3   OH226840   1.511   6.667   1.890
 8959TIP3    H126841   1.443   6.620   1.937
 8959TIP3    H226842   1.570   6.699   1.957
 8960TIP3   OH226843   5.207   2.700   4.466
 8960TIP3    H126844   5.285   2.705   4.410
 8960TIP3    H226845   5.135   2.692   4.404
 8961TIP3   OH226846   1.954   6.241   4.307
 8961TIP3    H126847   1.914   6.309   4.361
 8961TIP3    H226848   1.946   6.273   4.218
 8962TIP3   OH226849   5.116   3.215   2.876
 8962TIP3    H126850   5.200   3.210   2.829
 8962TIP3    H226851   5.135   3.271   2.952
 8963TIP3   OH226852   2.011   5.316   2.925
 8963TIP3    H126853   2.026   5.357   3.010
 8963TIP3    H226854   1.927   5.271   2.935
 8964TIP3   OH226855   5.780   0.764   3.498
 8964TIP3    H126856   5.783   0.833   3.564
 8964TIP3    H226857   5.855   0.708   3.519
 8965TIP3   OH226858   0.257   4.023   1.120
 8965TIP3    H126859   0.201   4.101   1.127
 8965TIP3    H226860   0.197   3.953   1.095
 8966TIP3   OH226861   0.255   2.945   3.174
 8966TIP3    H126862   0.191   3.016   3.170
 8966TIP3    H226863   0.285   2.945   3.265
 8967TIP3   OH226864   0.237   5.935   3.554
 8967TIP3    H126865   0.200   5.946   3.641
 8967TIP3    H226866   0.298   6.008   3.545
 8968TIP3   OH226867   0.058   2.302   3.658
 8968TIP3    H126868   0.058   2.219   3.706
 8968TIP3    H226869   0.150   2.328   3.655
 8969TIP3   OH226870   3.360   5.001   0.997
 8969TIP3    H126871   3.342   5.095   1.005
 8969TIP3    H226872   3.281   4.959   1.030
 8970TIP3   OH226873   4.002   3.193   3.473
 8970TIP3    H126874   4.097   3.204   3.470
 8970TIP3    H226875   3.976   3.231   3.557
 8971TIP3   OH226876   5.042   2.360   0.320
 8971TIP3    H126877   4.980   2.344   0.391
 8971TIP3    H226878   5.018   2.295   0.253
 8972TIP3   OH226879   5.289   5.765   5.312
 8972TIP3    H126880   5.269   5.769   5.218
 8972TIP3    H226881   5.375   5.723   5.316
 8973TIP3   OH226882   6.339   5.429   3.623
 8973TIP3    H126883   6.270   5.476   3.670
 8973TIP3    H226884   6.340   5.342   3.663
 8974TIP3   OH226885   1.293   3.279   3.722
 8974TIP3    H126886   1.373   3.247   3.681
 8974TIP3    H226887   1.224   3.262   3.658
 8975TIP3   OH226888   0.424   6.423   4.889
 8975TIP3    H126889   0.422   6.421   4.794
 8975TIP3    H226890   0.375   6.503   4.912
 8976TIP3   OH226891   3.972   6.801   2.636
 8976TIP3    H126892   4.060   6.785   2.669
 8976TIP3    H226893   3.919   6.817   2.714
 8977TIP3   OH226894   3.652   1.336   4.623
 8977TIP3    H126895   3.570   1.307   4.662
 8977TIP3    H226896   3.630   1.417   4.577
 8978TIP3   OH226897   4.699   3.699   3.869
 8978TIP3    H126898   4.788   3.675   3.894
 8978TIP3    H226899   4.704   3.715   3.775
 8979TIP3   OH226900   4.360   2.615   2.594
 8979TIP3    H126901   4.410   2.534   2.582
 8979TIP3    H226902   4.417   2.684   2.561
 8980TIP3   OH226903   1.694   1.908   4.242
 8980TIP3    H126904   1.788   1.907   4.259
 8980TIP3    H226905   1.683   1.856   4.163
 8981TIP3   OH226906   5.861   3.039   3.633
 8981TIP3    H126907   5.862   3.095   3.711
 8981TIP3    H226908   5.810   2.963   3.658
 8982TIP3   OH226909   4.515   2.459   2.898
 8982TIP3    H126910   4.544   2.461   2.807
 8982TIP3    H226911   4.421   2.440   2.892
 8983TIP3   OH226912   4.979   3.660   1.240
 8983TIP3    H126913   4.887   3.680   1.223
 8983TIP3    H226914   4.990   3.571   1.206
 8984TIP3   OH226915   0.982   0.349   1.848
 8984TIP3    H126916   0.995   0.313   1.936
 8984TIP3    H226917   1.064   0.329   1.803
 8985TIP3   OH226918   6.398   4.630   0.021
 8985TIP3    H126919   6.384   4.644  -0.073
 8985TIP3    H226920   6.351   4.549   0.040
 8986TIP3   OH226921   2.315   2.953   1.141
 8986TIP3    H126922   2.299   2.859   1.134
 8986TIP3    H226923   2.410   2.961   1.153
 8987TIP3   OH226924   6.982   0.936   4.207
 8987TIP3    H126925   7.026   1.021   4.208
 8987TIP3    H226926   7.028   0.886   4.139
 8988TIP3   OH226927   1.237   3.040   4.978
 8988TIP3    H126928   1.325   3.028   5.012
 8988TIP3    H226929   1.196   3.101   5.039
 8989TIP3   OH226930   3.088   1.050   5.402
 8989TIP3    H126931   3.112   1.091   5.485
 8989TIP3    H226932   3.067   0.959   5.425
 8990TIP3   OH226933   6.385   6.449   3.963
 8990TIP3    H126934   6.368   6.364   4.002
 8990TIP3    H226935   6.397   6.508   4.037
 8991TIP3   OH226936   0.768   3.671   4.699
 8991TIP3    H126937   0.721   3.606   4.752
 8991TIP3    H226938   0.841   3.622   4.661
 8992TIP3   OH226939   3.840   5.431   2.103
 8992TIP3    H126940   3.766   5.370   2.107
 8992TIP3    H226941   3.905   5.386   2.049
 8993TIP3   OH226942   2.585   2.009   1.823
 8993TIP3    H126943   2.513   2.071   1.810
 8993TIP3    H226944   2.664   2.059   1.803
 8994TIP3   OH226945   0.869   4.378   0.299
 8994TIP3    H126946   0.944   4.324   0.274
 8994TIP3    H226947   0.802   4.316   0.328
 8995TIP3   OH226948   2.315   2.672   2.933
 8995TIP3    H126949   2.250   2.621   2.885
 8995TIP3    H226950   2.399   2.636   2.904
 8996TIP3   OH226951   4.503   1.987   4.735
 8996TIP3    H126952   4.505   2.016   4.826
 8996TIP3    H226953   4.431   2.038   4.696
 8997TIP3   OH226954   2.230   3.107   4.610
 8997TIP3    H126955   2.150   3.154   4.587
 8997TIP3    H226956   2.230   3.106   4.705
 8998TIP3   OH226957   0.836   3.554   1.529
 8998TIP3    H126958   0.751   3.529   1.492
 8998TIP3    H226959   0.868   3.623   1.470
 8999TIP3   OH226960   4.251   0.614   1.316
 8999TIP3    H126961   4.346   0.609   1.331
 8999TIP3    H226962   4.217   0.652   1.397
 9000TIP3   OH226963   5.847   5.307   5.546
 9000TIP3    H126964   5.938   5.328   5.527
 9000TIP3    H226965   5.839   5.318   5.641
 9001TIP3   OH226966   3.626   5.914   3.518
 9001TIP3    H126967   3.595   5.918   3.608
 9001TIP3    H226968   3.612   5.823   3.492
 9002TIP3   OH226969   3.864   0.101   2.664
 9002TIP3    H126970   3.959   0.105   2.674
 9002TIP3    H226971   3.851   0.094   2.569
 9003TIP3   OH226972   6.905   6.374   2.959
 9003TIP3    H126973   6.894   6.423   2.878
 9003TIP3    H226974   6.979   6.416   3.003
 9004TIP3   OH226975   2.291   4.098   4.569
 9004TIP3    H126976   2.277   4.141   4.485
 9004TIP3    H226977   2.378   4.128   4.598
 9005TIP3   OH226978   5.024   2.576   5.266
 9005TIP3    H126979   5.073   2.554   5.187
 9005TIP3    H226980   4.935   2.592   5.235
 9006TIP3   OH226981   6.331   2.591   1.769
 9006TIP3    H126982   6.308   2.683   1.762
 9006TIP3    H226983   6.252   2.545   1.740
 9007TIP3   OH226984   1.249   2.166   3.556
 9007TIP3    H126985   1.189   2.094   3.538
 9007TIP3    H226986   1.332   2.137   3.519
 9008TIP3   OH226987   1.775   1.420   0.604
 9008TIP3    H126988   1.693   1.380   0.632
 9008TIP3    H226989   1.831   1.346   0.582
 9009TIP3   OH226990   6.424   2.656   3.363
 9009TIP3    H126991   6.449   2.612   3.445
 9009TIP3    H226992   6.345   2.610   3.335
 9010TIP3   OH226993   0.564   6.495   0.897
 9010TIP3    H126994   0.644   6.486   0.845
 9010TIP3    H226995   0.494   6.502   0.831
 9011TIP3   OH226996   6.807   5.339   5.601
 9011TIP3    H126997   6.776   5.403   5.536
 9011TIP3    H226998   6.783   5.254   5.564
 9012TIP3   OH226999   2.430   0.223   5.221
 9012TIP3    H127000   2.503   0.235   5.159
 9012TIP3    H227001   2.413   0.129   5.219
 9013TIP3   OH227002   5.033   1.776   5.508
 9013TIP3    H127003   5.118   1.736   5.492
 9013TIP3    H227004   4.988   1.716   5.567
 9014TIP3   OH227005   0.551   5.240   4.824
 9014TIP3    H127006   0.633   5.262   4.780
 9014TIP3    H227007   0.541   5.145   4.812
 9015TIP3   OH227008   0.794   0.541   3.387
 9015TIP3    H127009   0.730   0.472   3.372
 9015TIP3    H227010   0.831   0.522   3.473
 9016TIP3   OH227011   2.975   4.582   1.103
 9016TIP3    H127012   2.986   4.508   1.043
 9016TIP3    H227013   3.013   4.552   1.186
 9017TIP3   OH227014   0.046   1.498   3.203
 9017TIP3    H127015   0.058   1.559   3.276
 9017TIP3    H227016  -0.007   1.427   3.239
 9018TIP3   OH227017   4.480   3.528   3.285
 9018TIP3    H127018   4.398   3.574   3.268
 9018TIP3    H227019   4.548   3.593   3.269
 9019TIP3   OH227020   7.139   3.055   4.347
 9019TIP3    H127021   7.167   2.978   4.298
 9019TIP3    H227022   7.072   3.096   4.291
 9020TIP3   OH227023   4.497   6.130   0.648
 9020TIP3    H127024   4.403   6.147   0.641
 9020TIP3    H227025   4.538   6.212   0.620
 9021TIP3   OH227026   2.797   5.629   2.095
 9021TIP3    H127027   2.714   5.676   2.097
 9021TIP3    H227028   2.825   5.635   2.003
 9022TIP3   OH227029   1.194   3.758   2.380
 9022TIP3    H127030   1.124   3.813   2.344
 9022TIP3    H227031   1.229   3.809   2.453
 9023TIP3   OH227032   1.592   4.834   3.515
 9023TIP3    H127033   1.532   4.897   3.474
 9023TIP3    H227034   1.536   4.759   3.535
 9024TIP3   OH227035   3.633   2.223   5.178
 9024TIP3    H127036   3.613   2.137   5.141
 9024TIP3    H227037   3.662   2.205   5.267
 9025TIP3   OH227038   2.384   1.459   5.131
 9025TIP3    H127039   2.431   1.387   5.174
 9025TIP3    H227040   2.423   1.464   5.043
 9026TIP3   OH227041   2.970   0.692   0.530
 9026TIP3    H127042   3.058   0.730   0.538
 9026TIP3    H227043   2.961   0.672   0.437
 9027TIP3   OH227044   6.034   5.743   0.787
 9027TIP3    H127045   5.942   5.749   0.763
 9027TIP3    H227046   6.073   5.825   0.756
 9028TIP3   OH227047   6.073   5.438   5.148
 9028TIP3    H127048   6.168   5.430   5.144
 9028TIP3    H227049   6.056   5.529   5.123
 9029TIP3   OH227050   3.640   0.300   2.209
 9029TIP3    H127051   3.562   0.245   2.205
 9029TIP3    H227052   3.681   0.289   2.123
 9030TIP3   OH227053   0.529   0.290   0.611
 9030TIP3    H127054   0.588   0.257   0.543
 9030TIP3    H227055   0.452   0.322   0.562
 9031TIP3   OH227056   6.299   2.475   1.020
 9031TIP3    H127057   6.338   2.404   1.071
 9031TIP3    H227058   6.240   2.519   1.081
 9032TIP3   OH227059   1.915   0.146   3.539
 9032TIP3    H127060   1.838   0.112   3.493
 9032TIP3    H227061   1.941   0.223   3.488
 9033TIP3   OH227062   4.326   2.438   5.138
 9033TIP3    H127063   4.343   2.382   5.062
 9033TIP3    H227064   4.386   2.512   5.127
 9034TIP3   OH227065   3.198   4.341   5.097
 9034TIP3    H127066   3.207   4.355   5.191
 9034TIP3    H227067   3.161   4.423   5.064
 9035TIP3   OH227068   0.511   4.040   5.277
 9035TIP3    H127069   0.468   3.955   5.273
 9035TIP3    H227070   0.604   4.019   5.292
 9036TIP3   OH227071   0.604   5.646   3.021
 9036TIP3    H127072   0.657   5.719   3.052
 9036TIP3    H227073   0.631   5.572   3.075
 9037TIP3   OH227074   5.656   5.726   5.728
 9037TIP3    H127075   5.675   5.802   5.673
 9037TIP3    H227076   5.661   5.760   5.817
 9038TIP3   OH227077   2.965   2.043   2.031
 9038TIP3    H127078   2.879   2.065   2.067
 9038TIP3    H227079   2.996   2.125   1.993
 9039TIP3   OH227080   5.981   4.670   5.145
 9039TIP3    H127081   5.951   4.757   5.117
 9039TIP3    H227082   6.039   4.687   5.218
 9040TIP3   OH227083   2.858   3.328   5.808
 9040TIP3    H127084   2.799   3.356   5.878
 9040TIP3    H227085   2.919   3.402   5.798
 9041TIP3   OH227086   4.851   1.192   5.691
 9041TIP3    H127087   4.891   1.230   5.613
 9041TIP3    H227088   4.874   1.100   5.688
 9042TIP3   OH227089   5.039   3.217   0.018
 9042TIP3    H127090   5.030   3.269   0.098
 9042TIP3    H227091   5.049   3.282  -0.052
 9043TIP3   OH227092   1.137   1.768   2.849
 9043TIP3    H127093   1.056   1.747   2.802
 9043TIP3    H227094   1.166   1.683   2.884
 9044TIP3   OH227095   4.252   2.106   1.132
 9044TIP3    H127096   4.221   2.194   1.151
 9044TIP3    H227097   4.184   2.068   1.077
 9045TIP3   OH227098   7.005   3.640   3.373
 9045TIP3    H127099   7.061   3.604   3.304
 9045TIP3    H227100   7.060   3.638   3.452
 9046TIP3   OH227101   0.176   2.308   2.401
 9046TIP3    H127102   0.125   2.227   2.391
 9046TIP3    H227103   0.227   2.314   2.320
 9047TIP3   OH227104   3.198   4.868   5.697
 9047TIP3    H127105   3.199   4.774   5.716
 9047TIP3    H227106   3.288   4.889   5.673
 9048TIP3   OH227107   3.916   2.308   3.577
 9048TIP3    H127108   3.869   2.384   3.541
 9048TIP3    H227109   3.978   2.284   3.509
 9049TIP3   OH227110   2.065   5.013   1.939
 9049TIP3    H127111   2.063   5.008   1.843
 9049TIP3    H227112   2.126   4.944   1.965
 9050TIP3   OH227113   5.837   2.576   4.519
 9050TIP3    H127114   5.772   2.508   4.530
 9050TIP3    H227115   5.787   2.657   4.508
 9051TIP3   OH227116   5.550   3.934   0.067
 9051TIP3    H127117   5.566   3.985  -0.012
 9051TIP3    H227118   5.482   3.871   0.041
 9052TIP3   OH227119   5.855   3.700   5.701
 9052TIP3    H127120   5.823   3.644   5.771
 9052TIP3    H227121   5.950   3.703   5.712
 9053TIP3   OH227122   2.162   3.883   4.685
 9053TIP3    H127123   2.203   3.961   4.646
 9053TIP3    H227124   2.184   3.889   4.778
 9054TIP3   OH227125   0.984   0.496   3.853
 9054TIP3    H127126   1.035   0.545   3.917
 9054TIP3    H227127   0.900   0.482   3.895
 9055TIP3   OH227128   0.732   0.004   4.346
 9055TIP3    H127129   0.657   0.061   4.329
 9055TIP3    H227130   0.798   0.032   4.282
 9056TIP3   OH227131   4.607   5.986   1.053
 9056TIP3    H127132   4.601   5.891   1.041
 9056TIP3    H227133   4.700   6.005   1.043
 9057TIP3   OH227134   1.316   6.664   2.432
 9057TIP3    H127135   1.358   6.744   2.401
 9057TIP3    H227136   1.233   6.660   2.385
 9058TIP3   OH227137   2.777   4.598   4.908
 9058TIP3    H127138   2.692   4.603   4.951
 9058TIP3    H227139   2.769   4.523   4.849
 9059TIP3   OH227140   3.317   2.207   2.964
 9059TIP3    H127141   3.270   2.256   2.897
 9059TIP3    H227142   3.373   2.147   2.916
 9060TIP3   OH227143   0.059   1.334   5.860
 9060TIP3    H127144   0.083   1.265   5.922
 9060TIP3    H227145   0.139   1.386   5.851
 9061TIP3   OH227146   5.484   4.772   2.437
 9061TIP3    H127147   5.432   4.852   2.430
 9061TIP3    H227148   5.560   4.787   2.381
 9062TIP3   OH227149   2.989   3.968   4.720
 9062TIP3    H127150   3.019   4.029   4.787
 9062TIP3    H227151   2.934   3.905   4.767
 9063TIP3   OH227152  -0.011   2.763   3.803
 9063TIP3    H127153   0.029   2.752   3.717
 9063TIP3    H227154  -0.045   2.676   3.824
 9064TIP3   OH227155   4.150   0.519   4.389
 9064TIP3    H127156   4.139   0.473   4.306
 9064TIP3    H227157   4.156   0.450   4.455
 9065TIP3   OH227158   7.149   4.195   4.213
 9065TIP3    H127159   7.185   4.277   4.247
 9065TIP3    H227160   7.217   4.130   4.232
 9066TIP3   OH227161   3.468   5.195   4.894
 9066TIP3    H127162   3.478   5.136   4.820
 9066TIP3    H227163   3.491   5.142   4.971
 9067TIP3   OH227164   3.389   1.522   1.761
 9067TIP3    H127165   3.310   1.505   1.709
 9067TIP3    H227166   3.369   1.604   1.807
 9068TIP3   OH227167   6.852   4.659   4.689
 9068TIP3    H127168   6.934   4.687   4.728
 9068TIP3    H227169   6.815   4.738   4.650
 9069TIP3   OH227170   2.162   3.889   4.963
 9069TIP3    H127171   2.124   3.810   5.002
 9069TIP3    H227172   2.189   3.941   5.038
 9070TIP3   OH227173   3.588   6.674   1.973
 9070TIP3    H127174   3.569   6.768   1.978
 9070TIP3    H227175   3.503   6.632   1.990
 9071TIP3   OH227176   5.723   6.076   1.094
 9071TIP3    H127177   5.759   6.033   1.172
 9071TIP3    H227178   5.675   6.007   1.049
 9072TIP3   OH227179   0.362   0.675   1.762
 9072TIP3    H127180   0.438   0.688   1.819
 9072TIP3    H227181   0.300   0.742   1.790
 9073TIP3   OH227182   4.871   5.172   5.216
 9073TIP3    H127183   4.830   5.124   5.288
 9073TIP3    H227184   4.956   5.199   5.250
 9074TIP3   OH227185   5.664   2.365   2.556
 9074TIP3    H127186   5.648   2.361   2.462
 9074TIP3    H227187   5.584   2.331   2.596
 9075TIP3   OH227188   5.456   1.213   0.064
 9075TIP3    H127189   5.437   1.306   0.072
 9075TIP3    H227190   5.402   1.183  -0.009
 9076TIP3   OH227191   0.697   6.626   4.678
 9076TIP3    H127192   0.707   6.606   4.771
 9076TIP3    H227193   0.760   6.568   4.634
 9077TIP3   OH227194   1.120   4.878   1.024
 9077TIP3    H127195   1.134   4.934   1.101
 9077TIP3    H227196   1.026   4.885   1.006
 9078TIP3   OH227197   3.847   4.261   0.350
 9078TIP3    H127198   3.922   4.244   0.407
 9078TIP3    H227199   3.862   4.349   0.316
 9079TIP3   OH227200   0.765   3.936   5.401
 9079TIP3    H127201   0.861   3.941   5.406
 9079TIP3    H227202   0.742   3.863   5.459
 9080TIP3   OH227203   2.037   5.523   5.514
 9080TIP3    H127204   2.085   5.467   5.453
 9080TIP3    H227205   2.051   5.483   5.600
 9081TIP3   OH227206   5.547   3.426   4.495
 9081TIP3    H127207   5.466   3.378   4.480
 9081TIP3    H227208   5.617   3.361   4.483
 9082TIP3   OH227209   6.043   2.118   3.019
 9082TIP3    H127210   6.010   2.181   3.084
 9082TIP3    H227211   6.078   2.173   2.949
 9083TIP3   OH227212   6.940   6.073   0.268
 9083TIP3    H127213   6.863   6.050   0.216
 9083TIP3    H227214   6.910   6.069   0.358
 9084TIP3   OH227215   0.332   1.069   5.675
 9084TIP3    H127216   0.361   1.142   5.620
 9084TIP3    H227217   0.379   1.080   5.757
 9085TIP3   OH227218   0.330   1.199   0.677
 9085TIP3    H127219   0.276   1.128   0.711
 9085TIP3    H227220   0.384   1.226   0.752
 9086TIP3   OH227221   3.596   6.196   4.132
 9086TIP3    H127222   3.562   6.111   4.105
 9086TIP3    H227223   3.518   6.246   4.155
 9087TIP3   OH227224   1.328   2.969   3.734
 9087TIP3    H127225   1.271   2.955   3.658
 9087TIP3    H227226   1.339   2.882   3.773
 9088TIP3   OH227227   4.596   3.721   1.997
 9088TIP3    H127228   4.541   3.799   1.987
 9088TIP3    H227229   4.629   3.726   2.086
 9089TIP3   OH227230   0.457   4.908   0.254
 9089TIP3    H127231   0.371   4.911   0.211
 9089TIP3    H227232   0.437   4.916   0.347
 9090TIP3   OH227233   2.535   5.676   0.270
 9090TIP3    H127234   2.533   5.581   0.257
 9090TIP3    H227235   2.622   5.702   0.242
 9091TIP3   OH227236   0.444   5.998   0.847
 9091TIP3    H127237   0.437   6.019   0.940
 9091TIP3    H227238   0.426   6.080   0.801
 9092TIP3   OH227239   0.985   5.178   3.245
 9092TIP3    H127240   1.016   5.258   3.203
 9092TIP3    H227241   1.063   5.142   3.288
 9093TIP3   OH227242   0.952   2.229   1.347
 9093TIP3    H127243   0.998   2.313   1.344
 9093TIP3    H227244   0.884   2.237   1.280
 9094TIP3   OH227245   2.028   2.055   5.408
 9094TIP3    H127246   2.063   2.050   5.319
 9094TIP3    H227247   2.028   1.964   5.438
 9095TIP3   OH227248   1.624   2.433   3.635
 9095TIP3    H127249   1.682   2.477   3.697
 9095TIP3    H227250   1.544   2.485   3.634
 9096TIP3   OH227251   2.968   5.136   4.159
 9096TIP3    H127252   2.910   5.149   4.084
 9096TIP3    H227253   2.918   5.166   4.235
 9097TIP3   OH227254   5.300   4.979   0.209
 9097TIP3    H127255   5.250   4.901   0.187
 9097TIP3    H227256   5.337   4.960   0.295
 9098TIP3   OH227257   1.624   5.690   1.323
 9098TIP3    H127258   1.664   5.750   1.385
 9098TIP3    H227259   1.698   5.644   1.283
 9099TIP3   OH227260   6.520   0.515   0.676
 9099TIP3    H127261   6.560   0.498   0.761
 9099TIP3    H227262   6.544   0.440   0.622
 9100TIP3   OH227263   4.655   1.514   3.315
 9100TIP3    H127264   4.668   1.434   3.366
 9100TIP3    H227265   4.729   1.570   3.338
 9101TIP3   OH227266   5.330   6.461   3.810
 9101TIP3    H127267   5.241   6.490   3.787
 9101TIP3    H227268   5.343   6.495   3.899
 9102TIP3   OH227269   4.129   2.103   5.360
 9102TIP3    H127270   4.086   2.030   5.316
 9102TIP3    H227271   4.223   2.083   5.354
 9103TIP3   OH227272   0.471   0.525   0.039
 9103TIP3    H127273   0.558   0.496   0.067
 9103TIP3    H227274   0.486   0.605  -0.011
 9104TIP3   OH227275   3.271   6.481   5.615
 9104TIP3    H127276   3.349   6.426   5.619
 9104TIP3    H227277   3.304   6.570   5.632
 9105TIP3   OH227278   4.790   2.327   1.384
 9105TIP3    H127279   4.697   2.351   1.374
 9105TIP3    H227280   4.807   2.269   1.309
 9106TIP3   OH227281   2.583   6.355   1.455
 9106TIP3    H127282   2.558   6.414   1.526
 9106TIP3    H227283   2.649   6.404   1.405
 9107TIP3   OH227284   6.697   3.872   5.433
 9107TIP3    H127285   6.661   3.863   5.345
 9107TIP3    H227286   6.687   3.965   5.454
 9108TIP3   OH227287   0.018   5.217   0.647
 9108TIP3    H127288  -0.070   5.193   0.676
 9108TIP3    H227289   0.026   5.310   0.667
 9109TIP3   OH227290   7.067   1.168   3.126
 9109TIP3    H127291   7.004   1.161   3.055
 9109TIP3    H227292   7.035   1.240   3.180
 9110TIP3   OH227293   2.855   5.465   3.253
 9110TIP3    H127294   2.875   5.382   3.295
 9110TIP3    H227295   2.812   5.517   3.321
 9111TIP3   OH227296   1.154   1.213   4.463
 9111TIP3    H127297   1.235   1.192   4.510
 9111TIP3    H227298   1.107   1.273   4.521
 9112TIP3   OH227299   4.227   4.558   1.804
 9112TIP3    H127300   4.236   4.629   1.867
 9112TIP3    H227301   4.155   4.584   1.747
 9113TIP3   OH227302   7.177   5.211   4.583
 9113TIP3    H127303   7.236   5.146   4.544
 9113TIP3    H227304   7.123   5.241   4.510
 9114TIP3   OH227305   1.572   6.166   5.572
 9114TIP3    H127306   1.635   6.110   5.617
 9114TIP3    H227307   1.487   6.140   5.608
 9115TIP3   OH227308   3.212   6.326   4.939
 9115TIP3    H127309   3.164   6.288   4.866
 9115TIP3    H227310   3.232   6.416   4.911
 9116TIP3   OH227311   5.987   6.336   2.771
 9116TIP3    H127312   6.067   6.344   2.718
 9116TIP3    H227313   5.972   6.424   2.805
 9117TIP3   OH227314   3.412   0.365   4.901
 9117TIP3    H127315   3.422   0.285   4.850
 9117TIP3    H227316   3.430   0.435   4.838
 9118TIP3   OH227317   6.339   6.157   4.044
 9118TIP3    H127318   6.308   6.077   4.001
 9118TIP3    H227319   6.426   6.135   4.076
 9119TIP3   OH227320   1.553   3.914   0.444
 9119TIP3    H127321   1.648   3.920   0.433
 9119TIP3    H227322   1.541   3.851   0.515
 9120TIP3   OH227323   2.006   5.586   2.051
 9120TIP3    H127324   2.087   5.566   2.099
 9120TIP3    H227325   1.984   5.504   2.006
 9121TIP3   OH227326   0.118   2.909   0.180
 9121TIP3    H127327   0.044   2.866   0.136
 9121TIP3    H227328   0.190   2.846   0.172
 9122TIP3   OH227329   0.448   6.405   5.757
 9122TIP3    H127330   0.434   6.408   5.852
 9122TIP3    H227331   0.524   6.462   5.743
 9123TIP3   OH227332   3.124   2.717   4.969
 9123TIP3    H127333   3.145   2.645   5.028
 9123TIP3    H227334   3.140   2.796   5.022
 9124TIP3   OH227335   0.599   6.499   3.253
 9124TIP3    H127336   0.660   6.426   3.241
 9124TIP3    H227337   0.518   6.459   3.283
 9125TIP3   OH227338   5.422   0.502   0.644
 9125TIP3    H127339   5.330   0.527   0.637
 9125TIP3    H227340   5.460   0.566   0.704
 9126TIP3   OH227341   4.888   6.405   1.715
 9126TIP3    H127342   4.821   6.360   1.665
 9126TIP3    H227343   4.955   6.428   1.651
 9127TIP3   OH227344   3.366   3.289   4.365
 9127TIP3    H127345   3.365   3.207   4.415
 9127TIP3    H227346   3.409   3.266   4.283
 9128TIP3   OH227347   1.599   0.872   2.631
 9128TIP3    H127348   1.656   0.817   2.578
 9128TIP3    H227349   1.545   0.811   2.681
 9129TIP3   OH227350   6.588   4.548   2.795
 9129TIP3    H127351   6.501   4.556   2.834
 9129TIP3    H227352   6.597   4.455   2.775
 9130TIP3   OH227353   2.507   5.547   3.033
 9130TIP3    H127354   2.504   5.592   3.117
 9130TIP3    H227355   2.599   5.547   3.009
 9131TIP3   OH227356   4.680   4.645   0.167
 9131TIP3    H127357   4.753   4.670   0.110
 9131TIP3    H227358   4.696   4.554   0.190
 9132TIP3   OH227359   5.626   2.260   2.303
 9132TIP3    H127360   5.548   2.242   2.251
 9132TIP3    H227361   5.698   2.262   2.239
 9133TIP3   OH227362   2.633   4.001   1.678
 9133TIP3    H127363   2.581   4.040   1.608
 9133TIP3    H227364   2.625   4.063   1.751
 9134TIP3   OH227365   1.665   2.720   2.899
 9134TIP3    H127366   1.633   2.740   2.987
 9134TIP3    H227367   1.621   2.638   2.876
 9135TIP3   OH227368   4.517   6.064   3.889
 9135TIP3    H127369   4.466   6.029   3.962
 9135TIP3    H227370   4.493   6.010   3.814
 9136TIP3   OH227371   5.417   2.820   0.746
 9136TIP3    H127372   5.477   2.762   0.793
 9136TIP3    H227373   5.354   2.849   0.813
 9137TIP3   OH227374   3.506   2.387   4.777
 9137TIP3    H127375   3.483   2.375   4.684
 9137TIP3    H227376   3.422   2.394   4.822
 9138TIP3   OH227377   2.690   1.893   5.650
 9138TIP3    H127378   2.664   1.869   5.739
 9138TIP3    H227379   2.742   1.972   5.661
 9139TIP3   OH227380   6.375   2.862   5.528
 9139TIP3    H127381   6.429   2.798   5.575
 9139TIP3    H227382   6.395   2.945   5.570
 9140TIP3   OH227383   4.380   5.505   5.512
 9140TIP3    H127384   4.405   5.566   5.443
 9140TIP3    H227385   4.331   5.437   5.466
 9141TIP3   OH227386   4.558   2.276   2.020
 9141TIP3    H127387   4.570   2.249   2.111
 9141TIP3    H227388   4.524   2.366   2.025
 9142TIP3   OH227389   2.947   2.539   2.022
 9142TIP3    H127390   2.875   2.602   2.029
 9142TIP3    H227391   3.025   2.590   2.044
 9143TIP3   OH227392   1.891   6.361   5.131
 9143TIP3    H127393   1.874   6.273   5.167
 9143TIP3    H227394   1.943   6.344   5.052
 9144TIP3   OH227395   4.123   5.616   2.106
 9144TIP3    H127396   4.187   5.685   2.121
 9144TIP3    H227397   4.082   5.603   2.192
 9145TIP3   OH227398   2.381   5.072   3.386
 9145TIP3    H127399   2.369   5.129   3.310
 9145TIP3    H227400   2.412   4.989   3.350
 9146TIP3   OH227401   0.896   4.170   5.170
 9146TIP3    H127402   0.840   4.097   5.141
 9146TIP3    H227403   0.884   4.236   5.102
 9147TIP3   OH227404   2.255   2.625   2.278
 9147TIP3    H127405   2.223   2.695   2.335
 9147TIP3    H227406   2.309   2.570   2.335
 9148TIP3   OH227407   3.867   3.883   4.997
 9148TIP3    H127408   3.782   3.853   5.029
 9148TIP3    H227409   3.881   3.967   5.040
 9149TIP3   OH227410   6.301   5.594   4.192
 9149TIP3    H127411   6.269   5.513   4.232
 9149TIP3    H227412   6.277   5.662   4.254
 9150TIP3   OH227413   1.247   6.494   0.257
 9150TIP3    H127414   1.186   6.558   0.296
 9150TIP3    H227415   1.191   6.439   0.202
 9151TIP3   OH227416   1.027   4.478   0.513
 9151TIP3    H127417   0.965   4.461   0.442
 9151TIP3    H227418   0.973   4.476   0.593
 9152TIP3   OH227419   0.535   6.872   3.663
 9152TIP3    H127420   0.455   6.910   3.625
 9152TIP3    H227421   0.517   6.778   3.666
 9153TIP3   OH227422   1.147   2.490   2.538
 9153TIP3    H127423   1.166   2.518   2.449
 9153TIP3    H227424   1.133   2.572   2.586
 9154TIP3   OH227425   5.555   0.031   0.647
 9154TIP3    H127426   5.610  -0.036   0.688
 9154TIP3    H227427   5.600   0.052   0.566
 9155TIP3   OH227428   4.378   0.313   3.536
 9155TIP3    H127429   4.444   0.358   3.589
 9155TIP3    H227430   4.417   0.226   3.520
 9156TIP3   OH227431   1.800   6.283   3.705
 9156TIP3    H127432   1.785   6.189   3.690
 9156TIP3    H227433   1.713   6.322   3.702
 9157TIP3   OH227434   4.002   1.547   5.581
 9157TIP3    H127435   3.930   1.511   5.528
 9157TIP3    H227436   4.040   1.616   5.526
 9158TIP3   OH227437   4.405   5.215   4.310
 9158TIP3    H127438   4.384   5.273   4.237
 9158TIP3    H227439   4.321   5.179   4.337
 9159TIP3   OH227440   5.811   2.321   0.702
 9159TIP3    H127441   5.890   2.347   0.750
 9159TIP3    H227442   5.784   2.399   0.655
 9160TIP3   OH227443   0.070   4.877   0.613
 9160TIP3    H127444   0.001   4.916   0.558
 9160TIP3    H227445   0.098   4.947   0.671
 9161TIP3   OH227446   5.706   6.457   5.359
 9161TIP3    H127447   5.712   6.396   5.286
 9161TIP3    H227448   5.696   6.543   5.318
 9162TIP3   OH227449   0.443   2.402   0.682
 9162TIP3    H127450   0.440   2.471   0.749
 9162TIP3    H227451   0.372   2.342   0.707
 9163TIP3   OH227452   3.718   0.710   4.264
 9163TIP3    H127453   3.811   0.716   4.286
 9163TIP3    H227454   3.677   0.676   4.343
 9164TIP3   OH227455   6.230   6.256   0.259
 9164TIP3    H127456   6.157   6.289   0.206
 9164TIP3    H227457   6.255   6.330   0.314
 9165TIP3   OH227458   3.573   0.539   1.759
 9165TIP3    H127459   3.497   0.507   1.711
 9165TIP3    H227460   3.554   0.631   1.776
 9166TIP3   OH227461   2.756   1.685   2.492
 9166TIP3    H127462   2.735   1.601   2.450
 9166TIP3    H227463   2.851   1.693   2.483
 9167TIP3   OH227464   5.960   1.261   5.485
 9167TIP3    H127465   5.900   1.334   5.499
 9167TIP3    H227466   5.985   1.233   5.574
 9168TIP3   OH227467   5.944   2.961   0.477
 9168TIP3    H127468   5.985   2.931   0.396
 9168TIP3    H227469   6.011   2.948   0.545
 9169TIP3   OH227470   4.604   3.340   4.043
 9169TIP3    H127471   4.565   3.427   4.041
 9169TIP3    H227472   4.598   3.309   3.953
 9170TIP3   OH227473   3.777   1.323   3.141
 9170TIP3    H127474   3.858   1.273   3.153
 9170TIP3    H227475   3.794   1.407   3.184
 9171TIP3   OH227476   2.027   4.695   3.135
 9171TIP3    H127477   2.055   4.605   3.117
 9171TIP3    H227478   2.074   4.718   3.215
 9172TIP3   OH227479   0.758   3.736   0.461
 9172TIP3    H127480   0.753   3.693   0.375
 9172TIP3    H227481   0.668   3.763   0.479
 9173TIP3   OH227482   6.993   4.288   4.560
 9173TIP3    H127483   6.978   4.199   4.593
 9173TIP3    H227484   6.915   4.336   4.585
 9174TIP3   OH227485   0.623   5.695   4.933
 9174TIP3    H127486   0.594   5.774   4.888
 9174TIP3    H227487   0.544   5.641   4.940
 9175TIP3   OH227488   6.352   4.982   1.525
 9175TIP3    H127489   6.371   5.024   1.441
 9175TIP3    H227490   6.280   4.922   1.505
 9176TIP3   OH227491   3.809   3.731   0.432
 9176TIP3    H127492   3.812   3.740   0.337
 9176TIP3    H227493   3.758   3.651   0.446
 9177TIP3   OH227494   1.471   4.130   3.757
 9177TIP3    H127495   1.409   4.063   3.729
 9177TIP3    H227496   1.534   4.084   3.811
 9178TIP3   OH227497   1.124   2.917   0.393
 9178TIP3    H127498   1.161   2.934   0.306
 9178TIP3    H227499   1.035   2.887   0.376
 9179TIP3   OH227500   6.219   5.705   1.182
 9179TIP3    H127501   6.129   5.728   1.158
 9179TIP3    H227502   6.240   5.630   1.128
 9180TIP3   OH227503   4.471   0.858   4.194
 9180TIP3    H127504   4.412   0.810   4.252
 9180TIP3    H227505   4.503   0.791   4.133
 9181TIP3   OH227506   0.251   3.113   1.778
 9181TIP3    H127507   0.281   3.072   1.697
 9181TIP3    H227508   0.252   3.207   1.758
 9182TIP3   OH227509   6.303   6.439   1.716
 9182TIP3    H127510   6.260   6.483   1.789
 9182TIP3    H227511   6.356   6.371   1.757
 9183TIP3   OH227512   7.104   2.032   0.232
 9183TIP3    H127513   7.131   2.090   0.302
 9183TIP3    H227514   7.116   2.082   0.152
 9184TIP3   OH227515   2.349   5.010   1.530
 9184TIP3    H127516   2.333   5.095   1.571
 9184TIP3    H227517   2.394   5.031   1.448
 9185TIP3   OH227518   1.311   2.138   1.348
 9185TIP3    H127519   1.403   2.135   1.322
 9185TIP3    H227520   1.295   2.230   1.370
 9186TIP3   OH227521   3.112   3.866   2.565
 9186TIP3    H127522   3.041   3.804   2.578
 9186TIP3    H227523   3.094   3.907   2.480
 9187TIP3   OH227524   1.213   0.235   1.448
 9187TIP3    H127525   1.191   0.284   1.369
 9187TIP3    H227526   1.200   0.143   1.424
 9188TIP3   OH227527   0.712   1.708   1.777
 9188TIP3    H127528   0.693   1.645   1.846
 9188TIP3    H227529   0.740   1.787   1.824
 9189TIP3   OH227530   0.338   3.631   3.280
 9189TIP3    H127531   0.320   3.539   3.299
 9189TIP3    H227532   0.379   3.664   3.360
 9190TIP3   OH227533   2.412   4.133   5.746
 9190TIP3    H127534   2.392   4.206   5.687
 9190TIP3    H227535   2.327   4.092   5.763
 9191TIP3   OH227536   4.216   0.368   4.916
 9191TIP3    H127537   4.142   0.310   4.902
 9191TIP3    H227538   4.283   0.337   4.855
 9192TIP3   OH227539   4.565   4.259   1.823
 9192TIP3    H127540   4.575   4.183   1.881
 9192TIP3    H227541   4.487   4.240   1.771
 9193TIP3   OH227542   3.087   5.183   3.690
 9193TIP3    H127543   3.126   5.270   3.683
 9193TIP3    H227544   2.993   5.198   3.674
 9194TIP3   OH227545   4.644   2.286   3.068
 9194TIP3    H127546   4.709   2.280   3.137
 9194TIP3    H227547   4.644   2.379   3.043
 9195TIP3   OH227548   6.484   0.935   2.317
 9195TIP3    H127549   6.440   0.852   2.301
 9195TIP3    H227550   6.413   0.997   2.336
 9196TIP3   OH227551   0.069   6.119   2.874
 9196TIP3    H127552   0.085   6.066   2.952
 9196TIP3    H227553   0.157   6.140   2.841
 9197TIP3   OH227554   4.339   0.987   2.862
 9197TIP3    H127555   4.295   0.928   2.924
 9197TIP3    H227556   4.277   1.058   2.848
 9198TIP3   OH227557   6.901   5.931   4.968
 9198TIP3    H127558   6.958   6.007   4.974
 9198TIP3    H227559   6.814   5.966   4.949
 9199TIP3   OH227560   3.285   5.646   4.772
 9199TIP3    H127561   3.246   5.563   4.746
 9199TIP3    H227562   3.338   5.672   4.697
 9200TIP3   OH227563   5.059   2.800   0.701
 9200TIP3    H127564   4.987   2.797   0.763
 9200TIP3    H227565   5.135   2.771   0.752
 9201TIP3   OH227566   7.108   5.707   3.284
 9201TIP3    H127567   7.078   5.652   3.357
 9201TIP3    H227568   7.193   5.739   3.311
 9202TIP3   OH227569   3.675   3.809   5.840
 9202TIP3    H127570   3.589   3.798   5.881
 9202TIP3    H227571   3.686   3.904   5.834
 9203TIP3   OH227572   6.146   4.525   0.319
 9203TIP3    H127573   6.174   4.506   0.229
 9203TIP3    H227574   6.222   4.567   0.360
 9204TIP3   OH227575   7.086   3.067   0.238
 9204TIP3    H127576   7.110   2.975   0.227
 9204TIP3    H227577   7.072   3.077   0.332
 9205TIP3   OH227578   5.412   4.819   4.829
 9205TIP3    H127579   5.446   4.737   4.865
 9205TIP3    H227580   5.317   4.811   4.839
 9206TIP3   OH227581   1.191   3.249   4.730
 9206TIP3    H127582   1.100   3.238   4.704
 9206TIP3    H227583   1.200   3.197   4.810
 9207TIP3   OH227584   1.013   3.917   4.255
 9207TIP3    H127585   1.096   3.930   4.302
 9207TIP3    H227586   0.995   3.824   4.266
 9208TIP3   OH227587   5.105   2.855   0.416
 9208TIP3    H127588   5.064   2.817   0.493
 9208TIP3    H227589   5.199   2.842   0.430
 9209TIP3   OH227590   2.071   3.376   4.292
 9209TIP3    H127591   2.028   3.461   4.307
 9209TIP3    H227592   2.087   3.373   4.198
 9210TIP3   OH227593   1.844   0.938   0.021
 9210TIP3    H127594   1.905   0.995  -0.026
 9210TIP3    H227595   1.886   0.852   0.019
 9211TIP3   OH227596   6.246   3.374   3.538
 9211TIP3    H127597   6.239   3.469   3.541
 9211TIP3    H227598   6.168   3.346   3.490
 9212TIP3   OH227599   2.369   2.212   0.388
 9212TIP3    H127600   2.434   2.260   0.336
 9212TIP3    H227601   2.411   2.129   0.408
 9213TIP3   OH227602   1.900   3.295   0.487
 9213TIP3    H127603   1.818   3.312   0.441
 9213TIP3    H227604   1.902   3.200   0.498
 9214TIP3   OH227605   1.707   2.397   2.652
 9214TIP3    H127606   1.728   2.329   2.716
 9214TIP3    H227607   1.792   2.430   2.623
 9215TIP3   OH227608   0.826   6.047   0.581
 9215TIP3    H127609   0.734   6.026   0.595
 9215TIP3    H227610   0.834   6.059   0.486
 9216TIP3   OH227611   1.453   4.432   0.664
 9216TIP3    H127612   1.538   4.472   0.683
 9216TIP3    H227613   1.455   4.348   0.711
 9217TIP3   OH227614   5.023   5.452   2.835
 9217TIP3    H127615   5.043   5.476   2.745
 9217TIP3    H227616   4.970   5.523   2.869
 9218TIP3   OH227617   6.549   3.747   5.651
 9218TIP3    H127618   6.581   3.793   5.729
 9218TIP3    H227619   6.562   3.810   5.580
 9219TIP3   OH227620   1.205   3.738   3.132
 9219TIP3    H127621   1.257   3.795   3.074
 9219TIP3    H227622   1.224   3.771   3.220
 9220TIP3   OH227623   1.104   6.629   3.837
 9220TIP3    H127624   1.038   6.690   3.869
 9220TIP3    H227625   1.054   6.556   3.801
 9221TIP3   OH227626   1.747   2.979   3.641
 9221TIP3    H127627   1.813   2.992   3.573
 9221TIP3    H227628   1.740   2.884   3.649
 9222TIP3   OH227629   4.388   3.507   2.309
 9222TIP3    H127630   4.383   3.595   2.271
 9222TIP3    H227631   4.311   3.462   2.275
 9223TIP3   OH227632   2.764   2.710   2.215
 9223TIP3    H127633   2.815   2.775   2.166
 9223TIP3    H227634   2.673   2.733   2.199
 9224TIP3   OH227635   4.756   5.708   3.291
 9224TIP3    H127636   4.850   5.692   3.297
 9224TIP3    H227637   4.717   5.621   3.284
 9225TIP3   OH227638   2.053   6.578   5.178
 9225TIP3    H127639   1.999   6.501   5.196
 9225TIP3    H227640   2.113   6.583   5.252
 9226TIP3   OH227641   0.504   1.409   5.723
 9226TIP3    H127642   0.497   1.349   5.650
 9226TIP3    H227643   0.479   1.494   5.687
 9227TIP3   OH227644   6.592   4.042   4.244
 9227TIP3    H127645   6.552   4.049   4.157
 9227TIP3    H227646   6.653   3.969   4.236
 9228TIP3   OH227647   2.258   3.641   5.413
 9228TIP3    H127648   2.295   3.578   5.474
 9228TIP3    H227649   2.168   3.611   5.400
 9229TIP3   OH227650   4.929   5.538   3.919
 9229TIP3    H127651   5.017   5.502   3.910
 9229TIP3    H227652   4.889   5.527   3.833
 9230TIP3   OH227653   3.482   2.746   3.197
 9230TIP3    H127654   3.496   2.788   3.282
 9230TIP3    H227655   3.551   2.782   3.142
 9231TIP3   OH227656   6.210   1.265   1.919
 9231TIP3    H127657   6.202   1.209   1.843
 9231TIP3    H227658   6.241   1.207   1.989
 9232TIP3   OH227659   4.179   0.988   3.188
 9232TIP3    H127660   4.211   1.073   3.158
 9232TIP3    H227661   4.241   0.925   3.152
 9233TIP3   OH227662   0.546   4.514   3.306
 9233TIP3    H127663   0.452   4.531   3.306
 9233TIP3    H227664   0.576   4.546   3.391
 9234TIP3   OH227665   5.089   6.445   4.952
 9234TIP3    H127666   5.121   6.410   5.036
 9234TIP3    H227667   5.036   6.521   4.977
 9235TIP3   OH227668   6.102   3.070   1.394
 9235TIP3    H127669   6.075   3.114   1.474
 9235TIP3    H227670   6.050   3.111   1.325
 9236TIP3   OH227671   1.991   2.462   2.289
 9236TIP3    H127672   1.922   2.524   2.269
 9236TIP3    H227673   2.065   2.490   2.234
 9237TIP3   OH227674   2.406   4.906   4.354
 9237TIP3    H127675   2.406   4.932   4.446
 9237TIP3    H227676   2.498   4.893   4.332
 9238TIP3   OH227677   6.730   1.029   2.083
 9238TIP3    H127678   6.769   0.988   2.006
 9238TIP3    H227679   6.685   0.958   2.128
 9239TIP3   OH227680   5.720   3.439   3.751
 9239TIP3    H127681   5.725   3.523   3.797
 9239TIP3    H227682   5.627   3.416   3.755
 9240TIP3   OH227683   7.164   0.969   4.443
 9240TIP3    H127684   7.088   0.914   4.421
 9240TIP3    H227685   7.240   0.917   4.418
 9241TIP3   OH227686   2.186   0.495   1.847
 9241TIP3    H127687   2.208   0.586   1.828
 9241TIP3    H227688   2.249   0.469   1.915
 9242TIP3   OH227689   1.256   4.943   2.508
 9242TIP3    H127690   1.273   4.982   2.422
 9242TIP3    H227691   1.177   4.890   2.494
 9243TIP3   OH227692   4.575   3.820  -0.007
 9243TIP3    H127693   4.548   3.748  -0.064
 9243TIP3    H227694   4.558   3.788   0.081
 9244TIP3   OH227695   2.327   1.904   5.721
 9244TIP3    H127696   2.319   1.885   5.627
 9244TIP3    H227697   2.290   1.992   5.731
 9245TIP3   OH227698   4.129   3.731   5.210
 9245TIP3    H127699   4.047   3.690   5.183
 9245TIP3    H227700   4.142   3.701   5.300
 9246TIP3   OH227701   1.483   3.196   3.383
 9246TIP3    H127702   1.436   3.124   3.342
 9246TIP3    H227703   1.506   3.164   3.470
 9247TIP3   OH227704   1.549   2.802   3.137
 9247TIP3    H127705   1.495   2.730   3.168
 9247TIP3    H227706   1.621   2.808   3.200
 9248TIP3   OH227707   5.770   3.472   2.753
 9248TIP3    H127708   5.826   3.406   2.793
 9248TIP3    H227709   5.681   3.438   2.765
 9249TIP3   OH227710   5.089   3.572   4.870
 9249TIP3    H127711   5.177   3.552   4.901
 9249TIP3    H227712   5.102   3.638   4.802
 9250TIP3   OH227713   2.281   2.099   4.798
 9250TIP3    H127714   2.186   2.108   4.795
 9250TIP3    H227715   2.296   2.012   4.835
 9251TIP3   OH227716   3.385   3.621   3.762
 9251TIP3    H127717   3.367   3.673   3.840
 9251TIP3    H227718   3.331   3.543   3.771
 9252TIP3   OH227719   0.673   2.798   0.513
 9252TIP3    H127720   0.686   2.869   0.575
 9252TIP3    H227721   0.665   2.719   0.567
 9253TIP3   OH227722   1.954   3.152   2.335
 9253TIP3    H127723   2.018   3.175   2.268
 9253TIP3    H227724   1.877   3.122   2.286
 9254TIP3   OH227725   5.643   5.586   3.736
 9254TIP3    H127726   5.673   5.495   3.730
 9254TIP3    H227727   5.572   5.584   3.800
 9255TIP3   OH227728   5.799   2.390   4.291
 9255TIP3    H127729   5.833   2.467   4.337
 9255TIP3    H227730   5.830   2.316   4.344
 9256TIP3   OH227731   4.216   4.793   1.962
 9256TIP3    H127732   4.140   4.811   2.017
 9256TIP3    H227733   4.287   4.843   2.002
 9257TIP3   OH227734   1.335   2.839   1.468
 9257TIP3    H127735   1.413   2.810   1.420
 9257TIP3    H227736   1.351   2.810   1.558
 9258TIP3   OH227737   7.164   4.082   5.116
 9258TIP3    H127738   7.112   4.159   5.092
 9258TIP3    H227739   7.207   4.056   5.034
 9259TIP3   OH227740   5.076   4.596   0.459
 9259TIP3    H127741   5.105   4.634   0.376
 9259TIP3    H227742   5.047   4.508   0.436
 9260TIP3   OH227743   4.365   0.128   4.452
 9260TIP3    H127744   4.361   0.064   4.381
 9260TIP3    H227745   4.421   0.086   4.518
 9261TIP3   OH227746   6.945   5.121   5.420
 9261TIP3    H127747   6.900   5.180   5.359
 9261TIP3    H227748   7.008   5.074   5.365
 9262TIP3   OH227749   5.570   5.610   3.108
 9262TIP3    H127750   5.562   5.706   3.102
 9262TIP3    H227751   5.494   5.577   3.059
 9263TIP3   OH227752   1.641   4.989   1.020
 9263TIP3    H127753   1.604   5.073   0.994
 9263TIP3    H227754   1.589   4.961   1.095
 9264TIP3   OH227755   5.829   6.300   4.668
 9264TIP3    H127756   5.843   6.299   4.762
 9264TIP3    H227757   5.898   6.358   4.634
 9265TIP3   OH227758   4.298   1.216   3.208
 9265TIP3    H127759   4.333   1.197   3.295
 9265TIP3    H227760   4.371   1.258   3.163
 9266TIP3   OH227761   4.664   0.292   2.872
 9266TIP3    H127762   4.656   0.283   2.778
 9266TIP3    H227763   4.744   0.245   2.895
 9267TIP3   OH227764   0.700   5.699   0.078
 9267TIP3    H127765   0.651   5.734   0.152
 9267TIP3    H227766   0.658   5.737   0.001
 9268TIP3   OH227767   2.623   0.622   0.687
 9268TIP3    H127768   2.657   0.536   0.712
 9268TIP3    H227769   2.587   0.658   0.768
 9269TIP3   OH227770   5.392   4.893   4.525
 9269TIP3    H127771   5.399   4.988   4.516
 9269TIP3    H227772   5.398   4.876   4.619
 9270TIP3   OH227773   6.927   1.640   3.162
 9270TIP3    H127774   6.838   1.650   3.197
 9270TIP3    H227775   6.977   1.711   3.203
 9271TIP3   OH227776   4.735   4.629   4.556
 9271TIP3    H127777   4.765   4.541   4.581
 9271TIP3    H227778   4.814   4.677   4.534
 9272TIP3   OH227779   0.202   0.401   1.626
 9272TIP3    H127780   0.173   0.407   1.717
 9272TIP3    H227781   0.287   0.446   1.625
 9273TIP3   OH227782   2.309   1.837   4.898
 9273TIP3    H127783   2.348   1.750   4.882
 9273TIP3    H227784   2.217   1.819   4.914
 9274TIP3   OH227785   0.814   5.319   4.451
 9274TIP3    H127786   0.753   5.392   4.461
 9274TIP3    H227787   0.857   5.335   4.367
 9275TIP3   OH227788   3.624   4.996   1.184
 9275TIP3    H127789   3.588   5.066   1.130
 9275TIP3    H227790   3.576   5.003   1.267
 9276TIP3   OH227791   6.044   2.102   3.846
 9276TIP3    H127792   6.077   2.146   3.768
 9276TIP3    H227793   6.035   2.172   3.911
 9277TIP3   OH227794   6.183   0.591   4.032
 9277TIP3    H127795   6.235   0.550   3.963
 9277TIP3    H227796   6.138   0.518   4.074
 9278TIP3   OH227797   4.239   2.775   5.182
 9278TIP3    H127798   4.183   2.707   5.145
 9278TIP3    H227799   4.179   2.834   5.227
 9279TIP3   OH227800   3.688   6.605   3.392
 9279TIP3    H127801   3.647   6.556   3.463
 9279TIP3    H227802   3.650   6.693   3.398
 9280TIP3   OH227803   4.616   5.884   5.096
 9280TIP3    H127804   4.522   5.877   5.110
 9280TIP3    H227805   4.652   5.903   5.183
 9281TIP3   OH227806   2.707   5.058   5.029
 9281TIP3    H127807   2.761   5.022   5.100
 9281TIP3    H227808   2.617   5.048   5.060
 9282TIP3   OH227809   0.627   1.938   5.929
 9282TIP3    H127810   0.640   1.914   5.837
 9282TIP3    H227811   0.594   1.858   5.970
 9283TIP3   OH227812   3.344   4.769   4.141
 9283TIP3    H127813   3.288   4.846   4.133
 9283TIP3    H227814   3.422   4.799   4.187
 9284TIP3   OH227815   3.216   5.517   5.322
 9284TIP3    H127816   3.228   5.426   5.349
 9284TIP3    H227817   3.127   5.520   5.286
 9285TIP3   OH227818   0.745   0.854   3.314
 9285TIP3    H127819   0.783   0.862   3.402
 9285TIP3    H227820   0.816   0.878   3.255
 9286TIP3   OH227821   3.843   5.814   4.720
 9286TIP3    H127822   3.902   5.741   4.738
 9286TIP3    H227823   3.885   5.889   4.762
 9287TIP3   OH227824   5.785   6.209   2.401
 9287TIP3    H127825   5.777   6.180   2.310
 9287TIP3    H227826   5.861   6.266   2.402
 9288TIP3   OH227827   6.580   4.341   3.962
 9288TIP3    H127828   6.507   4.300   4.009
 9288TIP3    H227829   6.639   4.371   4.031
 9289TIP3   OH227830   0.549   2.163   3.878
 9289TIP3    H127831   0.455   2.180   3.883
 9289TIP3    H227832   0.579   2.219   3.807
 9290TIP3   OH227833   6.167   5.578   3.814
 9290TIP3    H127834   6.118   5.576   3.897
 9290TIP3    H227835   6.102   5.600   3.748
 9291TIP3   OH227836   2.231   1.264   2.786
 9291TIP3    H127837   2.308   1.232   2.738
 9291TIP3    H227838   2.176   1.305   2.720
 9292TIP3   OH227839   3.127   0.785   3.911
 9292TIP3    H127840   3.127   0.869   3.865
 9292TIP3    H227841   3.044   0.744   3.887
 9293TIP3   OH227842   3.451   1.094   3.042
 9293TIP3    H127843   3.495   1.039   2.976
 9293TIP3    H227844   3.514   1.164   3.059
 9294TIP3   OH227845   3.989   0.333   5.274
 9294TIP3    H127846   4.047   0.278   5.221
 9294TIP3    H227847   3.913   0.350   5.218
 9295TIP3   OH227848   5.625   3.702   2.089
 9295TIP3    H127849   5.661   3.623   2.131
 9295TIP3    H227850   5.544   3.720   2.137
 9296TIP3   OH227851   1.410   0.762   2.108
 9296TIP3    H127852   1.331   0.762   2.054
 9296TIP3    H227853   1.454   0.679   2.086
 9297TIP3   OH227854   2.609   1.023   5.516
 9297TIP3    H127855   2.546   1.092   5.498
 9297TIP3    H227856   2.596   1.002   5.609
 9298TIP3   OH227857   1.985   3.096   5.863
 9298TIP3    H127858   1.908   3.096   5.920
 9298TIP3    H227859   2.027   3.181   5.879
 9299TIP3   OH227860   2.722   0.420   3.087
 9299TIP3    H127861   2.785   0.349   3.094
 9299TIP3    H227862   2.763   0.484   3.029
 9300TIP3   OH227863   6.859   1.806   2.005
 9300TIP3    H127864   6.913   1.759   1.941
 9300TIP3    H227865   6.769   1.787   1.978
 9301TIP3   OH227866   1.031   0.962   1.518
 9301TIP3    H127867   1.069   0.965   1.605
 9301TIP3    H227868   1.079   1.029   1.468
 9302TIP3   OH227869   0.028   2.844   5.022
 9302TIP3    H127870  -0.049   2.824   5.077
 9302TIP3    H227871  -0.005   2.836   4.932
 9303TIP3   OH227872   5.767   3.886   5.437
 9303TIP3    H127873   5.675   3.867   5.418
 9303TIP3    H227874   5.786   3.966   5.388
 9304TIP3   OH227875   1.462   4.194   1.910
 9304TIP3    H127876   1.492   4.237   1.990
 9304TIP3    H227877   1.538   4.146   1.878
 9305TIP3   OH227878   3.823   0.525   3.631
 9305TIP3    H127879   3.894   0.571   3.587
 9305TIP3    H227880   3.748   0.535   3.572
 9306TIP3   OH227881   6.125   4.541   3.980
 9306TIP3    H127882   6.209   4.586   3.978
 9306TIP3    H227883   6.125   4.493   4.063
 9307TIP3   OH227884   3.052   4.535   3.540
 9307TIP3    H127885   3.069   4.629   3.540
 9307TIP3    H227886   2.998   4.520   3.462
 9308TIP3   OH227887   6.471   3.518   4.249
 9308TIP3    H127888   6.419   3.532   4.170
 9308TIP3    H227889   6.433   3.576   4.314
 9309TIP3   OH227890   5.140   1.138   0.423
 9309TIP3    H127891   5.078   1.134   0.496
 9309TIP3    H227892   5.091   1.179   0.352
 9310TIP3   OH227893   3.605   2.590   5.803
 9310TIP3    H127894   3.519   2.566   5.837
 9310TIP3    H227895   3.660   2.599   5.881
 9311TIP3   OH227896   5.447   3.128   5.196
 9311TIP3    H127897   5.355   3.114   5.174
 9311TIP3    H227898   5.480   3.185   5.127
 9312TIP3   OH227899   5.359   2.434   5.761
 9312TIP3    H127900   5.429   2.453   5.698
 9312TIP3    H227901   5.281   2.475   5.723
 9313TIP3   OH227902   4.452   4.310   2.478
 9313TIP3    H127903   4.412   4.396   2.493
 9313TIP3    H227904   4.421   4.284   2.391
 9314TIP3   OH227905   1.157   6.276   0.118
 9314TIP3    H127906   1.168   6.233   0.202
 9314TIP3    H227907   1.066   6.258   0.093
 9315TIP3   OH227908   4.526   5.896   3.674
 9315TIP3    H127909   4.605   5.850   3.645
 9315TIP3    H227910   4.482   5.920   3.593
 9316TIP3   OH227911   5.067   3.488   0.115
 9316TIP3    H127912   5.127   3.486   0.190
 9316TIP3    H227913   5.029   3.575   0.118
 9317TIP3   OH227914   1.212   2.139   0.389
 9317TIP3    H127915   1.163   2.142   0.470
 9317TIP3    H227916   1.299   2.172   0.411
 9318TIP3   OH227917   4.052   5.025   3.629
 9318TIP3    H127918   3.995   5.093   3.666
 9318TIP3    H227919   4.018   4.944   3.666
 9319TIP3   OH227920   2.545   4.387   3.635
 9319TIP3    H127921   2.484   4.369   3.706
 9319TIP3    H227922   2.576   4.476   3.651
 9320TIP3   OH227923   6.015   0.215   2.719
 9320TIP3    H127924   6.095   0.268   2.711
 9320TIP3    H227925   6.036   0.133   2.674
 9321TIP3   OH227926   6.968   2.670   2.245
 9321TIP3    H127927   6.992   2.659   2.337
 9321TIP3    H227928   7.021   2.605   2.199
 9322TIP3   OH227929   4.911   5.272   4.285
 9322TIP3    H127930   4.828   5.268   4.237
 9322TIP3    H227931   4.888   5.311   4.370
 9323TIP3   OH227932   3.704   4.322   1.342
 9323TIP3    H127933   3.793   4.293   1.360
 9323TIP3    H227934   3.663   4.249   1.296
 9324TIP3   OH227935   6.184   0.844   0.438
 9324TIP3    H127936   6.166   0.858   0.531
 9324TIP3    H227937   6.103   0.869   0.394
 9325TIP3   OH227938   6.779   4.028   4.539
 9325TIP3    H127939   6.744   3.944   4.507
 9325TIP3    H227940   6.806   4.074   4.459
 9326TIP3   OH227941   4.378   2.970   0.503
 9326TIP3    H127942   4.390   3.059   0.534
 9326TIP3    H227943   4.323   2.929   0.570
 9327TIP3   OH227944   1.994   2.217   4.235
 9327TIP3    H127945   1.969   2.215   4.328
 9327TIP3    H227946   1.911   2.211   4.188
 9328TIP3   OH227947   6.338   3.188   5.817
 9328TIP3    H127948   6.324   3.212   5.725
 9328TIP3    H227949   6.258   3.144   5.843
 9329TIP3   OH227950   1.053   6.494   0.812
 9329TIP3    H127951   1.084   6.573   0.769
 9329TIP3    H227952   1.124   6.431   0.801
 9330TIP3   OH227953   3.296   2.394   0.780
 9330TIP3    H127954   3.364   2.439   0.730
 9330TIP3    H227955   3.276   2.453   0.852
 9331TIP3   OH227956   4.401   6.726   0.881
 9331TIP3    H127957   4.471   6.711   0.818
 9331TIP3    H227958   4.444   6.767   0.955
 9332TIP3   OH227959   2.320   5.344   5.532
 9332TIP3    H127960   2.235   5.304   5.512
 9332TIP3    H227961   2.374   5.272   5.563
 9333TIP3   OH227962   3.926   4.849   0.524
 9333TIP3    H127963   3.910   4.943   0.530
 9333TIP3    H227964   4.021   4.841   0.515
 9334TIP3   OH227965   2.315   1.130   4.843
 9334TIP3    H127966   2.264   1.203   4.807
 9334TIP3    H227967   2.339   1.078   4.767
 9335TIP3   OH227968   1.670   1.003   5.228
 9335TIP3    H127969   1.700   1.093   5.232
 9335TIP3    H227970   1.606   1.002   5.157
 9336TIP3   OH227971   0.355   5.527   0.179
 9336TIP3    H127972   0.330   5.574   0.100
 9336TIP3    H227973   0.401   5.450   0.147
 9337TIP3   OH227974   2.985   3.100   3.698
 9337TIP3    H127975   3.061   3.158   3.704
 9337TIP3    H227976   2.939   3.129   3.620
 9338TIP3   OH227977   0.990   6.312   2.905
 9338TIP3    H127978   0.934   6.380   2.867
 9338TIP3    H227979   0.937   6.232   2.901
 9339TIP3   OH227980   6.914   6.265   4.945
 9339TIP3    H127981   6.882   6.245   5.033
 9339TIP3    H227982   6.840   6.305   4.900
 9340TIP3   OH227983   0.186   5.632   0.487
 9340TIP3    H127984   0.217   5.694   0.421
 9340TIP3    H227985   0.224   5.548   0.461
 9341TIP3   OH227986   2.314   1.677   2.810
 9341TIP3    H127987   2.352   1.755   2.769
 9341TIP3    H227988   2.226   1.671   2.773
 9342TIP3   OH227989   5.925   1.505   0.428
 9342TIP3    H127990   5.938   1.579   0.369
 9342TIP3    H227991   5.995   1.513   0.492
 9343TIP3   OH227992   1.460   6.402   2.932
 9343TIP3    H127993   1.377   6.377   2.972
 9343TIP3    H227994   1.442   6.486   2.890
 9344TIP3   OH227995   3.889   3.085   4.417
 9344TIP3    H127996   3.870   3.079   4.511
 9344TIP3    H227997   3.978   3.050   4.409
 9345TIP3   OH227998   3.246   0.400   2.034
 9345TIP3    H127999   3.242   0.406   2.129
 9345TIP3    H228000   3.164   0.357   2.009
 9346TIP3   OH228001   2.776   3.455   2.906
 9346TIP3    H128002   2.766   3.477   2.998
 9346TIP3    H228003   2.773   3.359   2.904
 9347TIP3   OH228004   1.799   3.889   4.938
 9347TIP3    H128005   1.733   3.870   5.005
 9347TIP3    H228006   1.850   3.961   4.975
 9348TIP3   OH228007   0.289   5.989   4.496
 9348TIP3    H128008   0.309   6.048   4.569
 9348TIP3    H228009   0.373   5.947   4.475
 9349TIP3   OH228010   2.189   4.211   0.292
 9349TIP3    H128011   2.217   4.211   0.384
 9349TIP3    H228012   2.226   4.291   0.255
 9350TIP3   OH228013   2.283   0.599   2.495
 9350TIP3    H128014   2.260   0.506   2.490
 9350TIP3    H228015   2.290   0.618   2.589
 9351TIP3   OH228016   3.861   4.314   0.753
 9351TIP3    H128017   3.809   4.358   0.686
 9351TIP3    H228018   3.870   4.380   0.822
 9352TIP3   OH228019   0.495   0.121   2.060
 9352TIP3    H128020   0.418   0.121   2.115
 9352TIP3    H228021   0.564   0.082   2.114
 9353TIP3   OH228022   2.391   3.432   4.728
 9353TIP3    H128023   2.448   3.379   4.672
 9353TIP3    H228024   2.451   3.482   4.784
 9354TIP3   OH228025   6.599   4.908   4.850
 9354TIP3    H128026   6.655   4.891   4.774
 9354TIP3    H228027   6.540   4.977   4.822
 9355TIP3   OH228028   5.839   4.633   1.278
 9355TIP3    H128029   5.750   4.622   1.312
 9355TIP3    H228030   5.850   4.727   1.270
 9356TIP3   OH228031   4.810   0.657   5.442
 9356TIP3    H128032   4.748   0.659   5.515
 9356TIP3    H228033   4.896   0.658   5.484
 9357TIP3   OH228034   4.624   1.800   5.007
 9357TIP3    H128035   4.615   1.876   5.065
 9357TIP3    H228036   4.552   1.742   5.033
 9358TIP3   OH228037   2.719   3.871   0.046
 9358TIP3    H128038   2.752   3.919  -0.030
 9358TIP3    H228039   2.624   3.867   0.032
 9359TIP3   OH228040   3.666   2.618   4.701
 9359TIP3    H128041   3.628   2.542   4.746
 9359TIP3    H228042   3.620   2.621   4.617
 9360TIP3   OH228043   1.653   6.605   4.307
 9360TIP3    H128044   1.559   6.591   4.307
 9360TIP3    H228045   1.675   6.628   4.217
 9361TIP3   OH228046   4.422   5.021   3.195
 9361TIP3    H128047   4.328   5.031   3.179
 9361TIP3    H228048   4.429   4.943   3.250
 9362TIP3   OH228049   6.620   2.836   0.895
 9362TIP3    H128050   6.627   2.771   0.965
 9362TIP3    H228051   6.682   2.905   0.920
 9363TIP3   OH228052   4.692   2.787   3.316
 9363TIP3    H128053   4.708   2.877   3.345
 9363TIP3    H228054   4.727   2.784   3.227
 9364TIP3   OH228055   2.473   4.337   4.648
 9364TIP3    H128056   2.464   4.306   4.738
 9364TIP3    H228057   2.454   4.431   4.653
 9365TIP3   OH228058   0.996   0.326   2.129
 9365TIP3    H128059   1.044   0.267   2.187
 9365TIP3    H228060   0.923   0.358   2.183
 9366TIP3   OH228061   2.849   6.453   1.457
 9366TIP3    H128062   2.914   6.386   1.433
 9366TIP3    H228063   2.883   6.493   1.537
 9367TIP3   OH228064   3.707   1.501   2.284
 9367TIP3    H128065   3.634   1.450   2.320
 9367TIP3    H228066   3.773   1.500   2.354
 9368TIP3   OH228067   3.958   3.231   5.579
 9368TIP3    H128068   3.874   3.188   5.594
 9368TIP3    H228069   4.014   3.199   5.650
 9369TIP3   OH228070   3.502   4.979   2.719
 9369TIP3    H128071   3.443   4.909   2.690
 9369TIP3    H228072   3.590   4.948   2.695
 9370TIP3   OH228073   0.681   6.556   5.728
 9370TIP3    H128074   0.776   6.561   5.712
 9370TIP3    H228075   0.662   6.634   5.781
 9371TIP3   OH228076   3.723   0.664   3.849
 9371TIP3    H128077   3.782   0.631   3.917
 9371TIP3    H228078   3.750   0.619   3.769
 9372TIP3   OH228079   3.502   1.586   5.792
 9372TIP3    H128080   3.597   1.579   5.780
 9372TIP3    H228081   3.471   1.496   5.779
 9373TIP3   OH228082   3.615   3.673   4.747
 9373TIP3    H128083   3.664   3.657   4.828
 9373TIP3    H228084   3.567   3.591   4.732
 9374TIP3   OH228085   1.636   0.823   3.315
 9374TIP3    H128086   1.645   0.734   3.280
 9374TIP3    H228087   1.709   0.871   3.276
 9375TIP3   OH228088   0.814   3.295   4.065
 9375TIP3    H128089   0.845   3.230   4.127
 9375TIP3    H228090   0.802   3.246   3.983
 9376TIP3   OH228091   1.471   3.269   1.104
 9376TIP3    H128092   1.415   3.344   1.084
 9376TIP3    H228093   1.483   3.273   1.199
 9377TIP3   OH228094   5.995   5.842   1.539
 9377TIP3    H128095   5.998   5.791   1.620
 9377TIP3    H228096   6.086   5.869   1.524
 9378TIP3   OH228097   2.549   1.303   3.535
 9378TIP3    H128098   2.539   1.277   3.444
 9378TIP3    H228099   2.460   1.322   3.564
 9379TIP3   OH228100   7.125   5.588   3.525
 9379TIP3    H128101   7.155   5.658   3.582
 9379TIP3    H228102   7.152   5.507   3.569
 9380TIP3   OH228103   4.996   2.049   5.030
 9380TIP3    H128104   4.925   1.985   5.037
 9380TIP3    H228105   4.988   2.101   5.110
 9381TIP3   OH228106   2.676   2.654   3.289
 9381TIP3    H128107   2.683   2.578   3.346
 9381TIP3    H228108   2.764   2.690   3.285
 9382TIP3   OH228109   3.645   0.462   4.148
 9382TIP3    H128110   3.721   0.407   4.125
 9382TIP3    H228111   3.669   0.549   4.118
 9383TIP3   OH228112   6.724   1.675   4.624
 9383TIP3    H128113   6.666   1.686   4.549
 9383TIP3    H228114   6.804   1.722   4.600
 9384TIP3   OH228115   1.853   6.466   3.325
 9384TIP3    H128116   1.787   6.440   3.261
 9384TIP3    H228117   1.851   6.397   3.391
 9385TIP3   OH228118   4.567   5.893   4.444
 9385TIP3    H128119   4.494   5.875   4.385
 9385TIP3    H228120   4.602   5.977   4.414
 9386TIP3   OH228121   2.160   1.672   1.802
 9386TIP3    H128122   2.103   1.634   1.735
 9386TIP3    H228123   2.247   1.671   1.764
 9387TIP3   OH228124   4.228   0.599   2.749
 9387TIP3    H128125   4.282   0.537   2.798
 9387TIP3    H228126   4.140   0.563   2.755
 9388TIP3   OH228127   0.113   2.545   1.562
 9388TIP3    H128128   0.116   2.574   1.471
 9388TIP3    H228129   0.095   2.624   1.612
 9389TIP3   OH228130   2.966   4.742   4.646
 9389TIP3    H128131   3.021   4.719   4.571
 9389TIP3    H228132   2.953   4.660   4.693
 9390TIP3   OH228133   5.434   2.659   1.257
 9390TIP3    H128134   5.365   2.622   1.202
 9390TIP3    H228135   5.405   2.643   1.347
 9391TIP3   OH228136   4.629   5.194   5.690
 9391TIP3    H128137   4.547   5.177   5.642
 9391TIP3    H228138   4.689   5.227   5.623
 9392TIP3   OH228139   6.505   3.187   4.463
 9392TIP3    H128140   6.554   3.106   4.448
 9392TIP3    H228141   6.423   3.175   4.415
 9393TIP3   OH228142   0.481   6.030   0.102
 9393TIP3    H128143   0.408   6.086   0.126
 9393TIP3    H228144   0.472   6.017   0.008
 9394TIP3   OH228145   0.155   2.417   1.817
 9394TIP3    H128146   0.154   2.466   1.735
 9394TIP3    H228147   0.226   2.353   1.806
 9395TIP3   OH228148   4.288   3.031   3.211
 9395TIP3    H128149   4.318   3.041   3.302
 9395TIP3    H228150   4.353   3.079   3.159
 9396TIP3   OH228151   1.514   2.193   4.981
 9396TIP3    H128152   1.595   2.244   4.984
 9396TIP3    H228153   1.532   2.116   5.036
 9397TIP3   OH228154   0.033   2.158   0.653
 9397TIP3    H128155   0.090   2.207   0.712
 9397TIP3    H228156  -0.037   2.123   0.708
 9398TIP3   OH228157   2.202   4.855   0.664
 9398TIP3    H128158   2.272   4.834   0.726
 9398TIP3    H228159   2.218   4.946   0.640
 9399TIP3   OH228160   0.779   5.515   2.827
 9399TIP3    H128161   0.785   5.595   2.775
 9399TIP3    H228162   0.774   5.545   2.917
 9400TIP3   OH228163   6.492   5.100   4.485
 9400TIP3    H128164   6.486   5.079   4.391
 9400TIP3    H228165   6.426   5.045   4.526
 9401TIP3   OH228166   4.408   5.289   3.082
 9401TIP3    H128167   4.423   5.202   3.120
 9401TIP3    H228168   4.352   5.333   3.146
 9402TIP3   OH228169   2.705   0.258   1.603
 9402TIP3    H128170   2.650   0.314   1.657
 9402TIP3    H228171   2.776   0.314   1.573
 9403TIP3   OH228172   5.426   6.488   0.588
 9403TIP3    H128173   5.364   6.558   0.609
 9403TIP3    H228174   5.478   6.476   0.668
 9404TIP3   OH228175   0.178   0.376   3.346
 9404TIP3    H128176   0.131   0.305   3.391
 9404TIP3    H228177   0.135   0.381   3.260
 9405TIP3   OH228178   1.994   3.288   3.314
 9405TIP3    H128179   1.901   3.303   3.296
 9405TIP3    H228180   2.036   3.372   3.293
 9406TIP3   OH228181   6.872   6.000   1.978
 9406TIP3    H128182   6.886   5.944   1.902
 9406TIP3    H228183   6.819   6.073   1.945
 9407TIP3   OH228184   1.152   6.668   4.856
 9407TIP3    H128185   1.087   6.599   4.842
 9407TIP3    H228186   1.196   6.643   4.937
 9408TIP3   OH228187   6.797   5.033   4.200
 9408TIP3    H128188   6.778   5.077   4.283
 9408TIP3    H228189   6.745   4.953   4.203
 9409TIP3   OH228190   4.730   1.868   5.754
 9409TIP3    H128191   4.731   1.813   5.832
 9409TIP3    H228192   4.641   1.859   5.719
 9410TIP3   OH228193   4.165   0.139   3.297
 9410TIP3    H128194   4.128   0.147   3.385
 9410TIP3    H228195   4.208   0.053   3.297
 9411TIP3   OH228196   2.808   4.747   2.409
 9411TIP3    H128197   2.840   4.821   2.462
 9411TIP3    H228198   2.850   4.670   2.447
 9412TIP3   OH228199   0.536   4.858   3.184
 9412TIP3    H128200   0.481   4.783   3.162
 9412TIP3    H228201   0.625   4.829   3.163
 9413TIP3   OH228202   1.429   1.477   4.555
 9413TIP3    H128203   1.456   1.453   4.466
 9413TIP3    H228204   1.339   1.506   4.546
 9414TIP3   OH228205   0.231   4.692   0.031
 9414TIP3    H128206   0.194   4.767   0.079
 9414TIP3    H228207   0.323   4.717   0.016
 9415TIP3   OH228208   5.488   3.008   2.097
 9415TIP3    H128209   5.416   2.947   2.082
 9415TIP3    H228210   5.465   3.054   2.177
 9416TIP3   OH228211   1.515   1.420   3.643
 9416TIP3    H128212   1.445   1.363   3.611
 9416TIP3    H228213   1.479   1.460   3.722
 9417TIP3   OH228214   2.687   0.624   1.522
 9417TIP3    H128215   2.736   0.672   1.588
 9417TIP3    H228216   2.598   0.661   1.527
 9418TIP3   OH228217   3.779   4.912   0.841
 9418TIP3    H128218   3.803   4.898   0.749
 9418TIP3    H228219   3.730   4.994   0.841
 9419TIP3   OH228220   0.332   1.573   0.905
 9419TIP3    H128221   0.357   1.481   0.914
 9419TIP3    H228222   0.275   1.575   0.828
 9420TIP3   OH228223   6.804   6.136   1.395
 9420TIP3    H128224   6.745   6.061   1.393
 9420TIP3    H228225   6.775   6.187   1.470
 9421TIP3   OH228226   6.522   0.256   4.732
 9421TIP3    H128227   6.532   0.168   4.696
 9421TIP3    H228228   6.582   0.310   4.681
 9422TIP3   OH228229   1.330   1.594   1.526
 9422TIP3    H128230   1.356   1.685   1.512
 9422TIP3    H228231   1.247   1.585   1.480
 9423TIP3   OH228232   3.594   3.598   4.089
 9423TIP3    H128233   3.637   3.513   4.094
 9423TIP3    H228234   3.524   3.594   4.154
 9424TIP3   OH228235   6.294   1.816   3.249
 9424TIP3    H128236   6.368   1.769   3.288
 9424TIP3    H228237   6.306   1.907   3.276
 9425TIP3   OH228238   0.827   5.939   5.096
 9425TIP3    H128239   0.921   5.954   5.089
 9425TIP3    H228240   0.805   5.886   5.019
 9426TIP3   OH228241   5.642   5.525   5.522
 9426TIP3    H128242   5.700   5.449   5.533
 9426TIP3    H228243   5.638   5.564   5.609
 9427TIP3   OH228244   6.204   4.217   1.955
 9427TIP3    H128245   6.253   4.222   1.873
 9427TIP3    H228246   6.272   4.204   2.022
 9428TIP3   OH228247   1.760   2.247   2.888
 9428TIP3    H128248   1.842   2.246   2.938
 9428TIP3    H228249   1.695   2.283   2.948
 9429TIP3   OH228250   3.463   6.368   2.299
 9429TIP3    H128251   3.533   6.432   2.285
 9429TIP3    H228252   3.383   6.421   2.308
 9430TIP3   OH228253   3.344   6.300   4.223
 9430TIP3    H128254   3.267   6.338   4.266
 9430TIP3    H228255   3.320   6.209   4.207
 9431TIP3   OH228256   6.520   4.950   5.310
 9431TIP3    H128257   6.458   4.970   5.380
 9431TIP3    H228258   6.510   4.856   5.295
 9432TIP3   OH228259   3.036   2.492   0.741
 9432TIP3    H128260   3.004   2.548   0.812
 9432TIP3    H228261   3.007   2.404   0.766
 9433TIP3   OH228262   4.655   3.827   4.845
 9433TIP3    H128263   4.586   3.889   4.821
 9433TIP3    H228264   4.715   3.827   4.771
 9434TIP3   OH228265   4.019   5.167   4.240
 9434TIP3    H128266   4.044   5.172   4.333
 9434TIP3    H228267   3.958   5.239   4.227
 9435TIP3   OH228268   4.976   6.532   2.427
 9435TIP3    H128269   4.950   6.624   2.417
 9435TIP3    H228270   5.003   6.505   2.339
 9436TIP3   OH228271   1.843   1.052   2.179
 9436TIP3    H128272   1.827   0.959   2.190
 9436TIP3    H228273   1.800   1.074   2.097
 9437TIP3   OH228274   5.655   5.743   1.679
 9437TIP3    H128275   5.570   5.702   1.664
 9437TIP3    H228276   5.714   5.670   1.697
 9438TIP3   OH228277   6.728   1.637   3.596
 9438TIP3    H128278   6.796   1.572   3.575
 9438TIP3    H228279   6.651   1.584   3.618
 9439TIP3   OH228280   5.193   0.468   3.062
 9439TIP3    H128281   5.198   0.406   3.134
 9439TIP3    H228282   5.222   0.551   3.099
 9440TIP3   OH228283   2.104   1.948   5.164
 9440TIP3    H128284   2.169   2.018   5.162
 9440TIP3    H228285   2.155   1.868   5.177
 9441TIP3   OH228286   0.888   6.035   2.186
 9441TIP3    H128287   0.907   5.963   2.246
 9441TIP3    H228288   0.826   5.998   2.123
 9442TIP3   OH228289   1.939   4.190   5.790
 9442TIP3    H128290   1.891   4.158   5.714
 9442TIP3    H228291   1.900   4.144   5.864
 9443TIP3   OH228292   3.582   5.871   0.807
 9443TIP3    H128293   3.627   5.856   0.890
 9443TIP3    H228294   3.548   5.785   0.783
 9444TIP3   OH228295   2.609   3.494   4.984
 9444TIP3    H128296   2.544   3.561   4.962
 9444TIP3    H228297   2.662   3.534   5.053
 9445TIP3   OH228298   5.202   4.032   3.104
 9445TIP3    H128299   5.277   4.067   3.057
 9445TIP3    H228300   5.145   4.107   3.119
 9446TIP3   OH228301   5.275   2.395   2.927
 9446TIP3    H128302   5.222   2.316   2.913
 9446TIP3    H228303   5.214   2.458   2.964
 9447TIP3   OH228304   0.352   6.100   1.477
 9447TIP3    H128305   0.396   6.148   1.407
 9447TIP3    H228306   0.290   6.043   1.432
 9448TIP3   OH228307   2.053   4.261   5.093
 9448TIP3    H128308   2.016   4.185   5.048
 9448TIP3    H228309   2.137   4.230   5.127
 9449TIP3   OH228310   3.647   1.694   5.504
 9449TIP3    H128311   3.620   1.717   5.593
 9449TIP3    H228312   3.606   1.609   5.488
 9450TIP3   OH228313   0.244   0.701   4.781
 9450TIP3    H128314   0.253   0.746   4.697
 9450TIP3    H228315   0.287   0.617   4.768
 9451TIP3   OH228316   5.055   2.322   2.682
 9451TIP3    H128317   5.041   2.416   2.692
 9451TIP3    H228318   5.022   2.302   2.594
 9452TIP3   OH228319   3.514   3.158   3.597
 9452TIP3    H128320   3.545   3.243   3.630
 9452TIP3    H228321   3.593   3.106   3.587
 9453TIP3   OH228322   5.900   1.903   3.388
 9453TIP3    H128323   5.835   1.835   3.374
 9453TIP3    H228324   5.921   1.898   3.481
 9454TIP3   OH228325   7.082   5.256   5.706
 9454TIP3    H128326   7.072   5.171   5.662
 9454TIP3    H228327   7.170   5.253   5.743
 9455TIP3   OH228328   1.911   4.528   0.899
 9455TIP3    H128329   1.955   4.461   0.847
 9455TIP3    H228330   1.887   4.596   0.837
 9456TIP3   OH228331   0.973   0.893   2.402
 9456TIP3    H128332   0.913   0.890   2.327
 9456TIP3    H228333   1.057   0.865   2.366
 9457TIP3   OH228334   0.054   1.844   0.882
 9457TIP3    H128335   0.107   1.922   0.862
 9457TIP3    H228336  -0.035   1.869   0.859
 9458TIP3   OH228337   2.196   2.180   2.418
 9458TIP3    H128338   2.232   2.160   2.332
 9458TIP3    H228339   2.113   2.225   2.400
 9459TIP3   OH228340   4.132   5.793   5.825
 9459TIP3    H128341   4.058   5.845   5.792
 9459TIP3    H228342   4.147   5.727   5.757
 9460TIP3   OH228343   1.930   4.222   5.434
 9460TIP3    H128344   1.850   4.264   5.401
 9460TIP3    H228345   1.979   4.293   5.475
 9461TIP3   OH228346   5.713   4.695   1.542
 9461TIP3    H128347   5.673   4.608   1.550
 9461TIP3    H228348   5.802   4.683   1.573
 9462TIP3   OH228349   3.383   4.504   1.761
 9462TIP3    H128350   3.340   4.444   1.699
 9462TIP3    H228351   3.339   4.486   1.844
 9463TIP3   OH228352   3.481   2.978   5.685
 9463TIP3    H128353   3.467   2.968   5.779
 9463TIP3    H228354   3.416   2.920   5.645
 9464TIP3   OH228355   3.004   1.215   4.169
 9464TIP3    H128356   2.978   1.134   4.212
 9464TIP3    H228357   3.005   1.194   4.076
 9465TIP3   OH228358   0.808   1.397   2.429
 9465TIP3    H128359   0.810   1.327   2.494
 9465TIP3    H228360   0.899   1.426   2.422
 9466TIP3   OH228361   4.312   0.180   3.811
 9466TIP3    H128362   4.222   0.210   3.801
 9466TIP3    H228363   4.340   0.160   3.721
 9467TIP3   OH228364   2.972   1.172   3.530
 9467TIP3    H128365   2.936   1.259   3.512
 9467TIP3    H228366   3.001   1.140   3.445
 9468TIP3   OH228367   3.106   4.464   4.127
 9468TIP3    H128368   3.020   4.441   4.162
 9468TIP3    H228369   3.165   4.456   4.201
 9469TIP3   OH228370   6.948   6.326   1.164
 9469TIP3    H128371   6.857   6.321   1.194
 9469TIP3    H228372   6.967   6.420   1.159
 9470TIP3   OH228373   4.169   6.310   5.199
 9470TIP3    H128374   4.221   6.244   5.152
 9470TIP3    H228375   4.084   6.269   5.210
 9471TIP3   OH228376   6.076   6.527   3.553
 9471TIP3    H128377   5.993   6.481   3.545
 9471TIP3    H228378   6.127   6.474   3.613
 9472TIP3   OH228379   4.846   0.108   1.496
 9472TIP3    H128380   4.751   0.118   1.489
 9472TIP3    H228381   4.882   0.183   1.448
 9473TIP3   OH228382   0.284   3.292   2.603
 9473TIP3    H128383   0.272   3.212   2.654
 9473TIP3    H228384   0.196   3.327   2.593
 9474TIP3   OH228385   4.055   4.740   2.885
 9474TIP3    H128386   4.139   4.742   2.933
 9474TIP3    H228387   3.992   4.779   2.946
 9475TIP3   OH228388  -0.001   3.540   4.884
 9475TIP3    H128389   0.085   3.577   4.902
 9475TIP3    H228390   0.012   3.446   4.887
 9476TIP3   OH228391   3.235   5.960   0.976
 9476TIP3    H128392   3.227   5.903   1.052
 9476TIP3    H228393   3.152   5.949   0.929
 9477TIP3   OH228394   6.794   4.390   5.539
 9477TIP3    H128395   6.871   4.351   5.498
 9477TIP3    H228396   6.826   4.425   5.622
 9478TIP3   OH228397   2.234   5.970   0.933
 9478TIP3    H128398   2.170   5.924   0.880
 9478TIP3    H228399   2.290   6.015   0.870
 9479TIP3   OH228400   4.520   0.648   1.380
 9479TIP3    H128401   4.583   0.646   1.308
 9479TIP3    H228402   4.537   0.731   1.425
 9480TIP3   OH228403   2.851   5.874   3.484
 9480TIP3    H128404   2.833   5.951   3.430
 9480TIP3    H228405   2.851   5.907   3.574
 9481TIP3   OH228406   6.474   6.665   4.926
 9481TIP3    H128407   6.548   6.717   4.956
 9481TIP3    H228408   6.512   6.597   4.871
 9482TIP3   OH228409   0.126   5.043   5.055
 9482TIP3    H128410   0.124   4.947   5.056
 9482TIP3    H228411   0.130   5.068   5.147
 9483TIP3   OH228412   2.863   6.364   4.481
 9483TIP3    H128413   2.848   6.292   4.543
 9483TIP3    H228414   2.914   6.428   4.531
 9484TIP3   OH228415   6.140   4.854   1.405
 9484TIP3    H128416   6.125   4.844   1.311
 9484TIP3    H228417   6.057   4.887   1.440
 9485TIP3   OH228418   3.321   3.760   0.980
 9485TIP3    H128419   3.240   3.772   0.930
 9485TIP3    H228420   3.295   3.712   1.058
 9486TIP3   OH228421   0.282   4.375   4.552
 9486TIP3    H128422   0.213   4.309   4.545
 9486TIP3    H228423   0.363   4.325   4.559
 9487TIP3   OH228424   6.897   2.135   4.610
 9487TIP3    H128425   6.935   2.113   4.695
 9487TIP3    H228426   6.960   2.100   4.546
 9488TIP3   OH228427   2.855   5.026   1.627
 9488TIP3    H128428   2.808   5.031   1.544
 9488TIP3    H228429   2.793   5.060   1.692
 9489TIP3   OH228430   4.944   6.270   5.738
 9489TIP3    H128431   4.915   6.300   5.652
 9489TIP3    H228432   4.935   6.175   5.735
 9490TIP3   OH228433   6.398   3.837   0.378
 9490TIP3    H128434   6.352   3.789   0.447
 9490TIP3    H228435   6.420   3.921   0.417
 9491TIP3   OH228436   5.109   0.124   4.982
 9491TIP3    H128437   5.129   0.039   5.020
 9491TIP3    H228438   5.151   0.187   5.041
 9492TIP3   OH228439   2.859   1.128   5.709
 9492TIP3    H128440   2.854   1.124   5.614
 9492TIP3    H228441   2.770   1.106   5.739
 9493TIP3   OH228442   1.963   1.916   0.963
 9493TIP3    H128443   2.036   1.911   0.901
 9493TIP3    H228444   1.901   1.976   0.922
 9494TIP3   OH228445   2.637   2.488   4.757
 9494TIP3    H128446   2.546   2.458   4.760
 9494TIP3    H228447   2.635   2.562   4.695
 9495TIP3   OH228448   5.518   2.319   1.060
 9495TIP3    H128449   5.551   2.408   1.055
 9495TIP3    H228450   5.523   2.296   1.153
 9496TIP3   OH228451   3.999   6.124   1.215
 9496TIP3    H128452   4.082   6.091   1.180
 9496TIP3    H228453   3.963   6.049   1.262
 9497TIP3   OH228454   6.684   3.350   0.344
 9497TIP3    H128455   6.696   3.406   0.266
 9497TIP3    H228456   6.739   3.391   0.411
 9498TIP3   OH228457   0.184   5.826   5.902
 9498TIP3    H128458   0.225   5.739   5.904
 9498TIP3    H228459   0.102   5.812   5.854
 9499TIP3   OH228460   1.506   4.576   3.512
 9499TIP3    H128461   1.425   4.607   3.471
 9499TIP3    H228462   1.501   4.481   3.506
 9500TIP3   OH228463   0.671   6.525   5.388
 9500TIP3    H128464   0.650   6.433   5.401
 9500TIP3    H228465   0.692   6.558   5.475
 9501TIP3   OH228466   6.810   2.382   4.313
 9501TIP3    H128467   6.884   2.359   4.257
 9501TIP3    H228468   6.782   2.299   4.352
 9502TIP3   OH228469   3.147   0.644   2.718
 9502TIP3    H128470   3.066   0.694   2.717
 9502TIP3    H228471   3.128   0.566   2.666
 9503TIP3   OH228472   2.757   1.703   0.795
 9503TIP3    H128473   2.796   1.749   0.720
 9503TIP3    H228474   2.831   1.682   0.851
 9504TIP3   OH228475   1.488   4.061   0.713
 9504TIP3    H128476   1.398   4.029   0.709
 9504TIP3    H228477   1.540   3.983   0.734
 9505TIP3   OH228478   1.320   5.421   1.659
 9505TIP3    H128479   1.413   5.407   1.640
 9505TIP3    H228480   1.296   5.498   1.606
 9506TIP3   OH228481   0.387   0.987   5.233
 9506TIP3    H128482   0.481   0.971   5.223
 9506TIP3    H228483   0.354   0.995   5.143
 9507TIP3   OH228484   5.209   4.715   5.726
 9507TIP3    H128485   5.221   4.621   5.739
 9507TIP3    H228486   5.298   4.751   5.727
 9508TIP3   OH228487   1.203   0.947   3.859
 9508TIP3    H128488   1.122   0.960   3.908
 9508TIP3    H228489   1.233   0.860   3.885
 9509TIP3   OH228490   0.474   2.172   1.800
 9509TIP3    H128491   0.488   2.230   1.874
 9509TIP3    H228492   0.502   2.086   1.830
 9510TIP3   OH228493   1.484   1.510   3.202
 9510TIP3    H128494   1.535   1.448   3.254
 9510TIP3    H228495   1.489   1.475   3.113
 9511TIP3   OH228496   6.286   5.265   5.406
 9511TIP3    H128497   6.247   5.186   5.371
 9511TIP3    H228498   6.300   5.321   5.330
 9512TIP3   OH228499   7.182   2.012   1.393
 9512TIP3    H128500   7.086   2.005   1.391
 9512TIP3    H228501   7.211   1.948   1.328
 9513TIP3   OH228502   6.847   4.154   2.678
 9513TIP3    H128503   6.774   4.187   2.731
 9513TIP3    H228504   6.925   4.184   2.725
 9514TIP3   OH228505   0.729   0.648   0.605
 9514TIP3    H128506   0.676   0.600   0.669
 9514TIP3    H228507   0.666   0.704   0.559
 9515TIP3   OH228508   0.535   2.747   0.248
 9515TIP3    H128509   0.562   2.708   0.165
 9515TIP3    H228510   0.591   2.704   0.314
 9516TIP3   OH228511   5.735   1.227   2.420
 9516TIP3    H128512   5.688   1.215   2.503
 9516TIP3    H228513   5.792   1.302   2.436
 9517TIP3   OH228514   4.864   4.355   0.707
 9517TIP3    H128515   4.768   4.357   0.708
 9517TIP3    H228516   4.889   4.347   0.799
 9518TIP3   OH228517   6.679   6.385   3.922
 9518TIP3    H128518   6.588   6.406   3.900
 9518TIP3    H228519   6.722   6.371   3.838
 9519TIP3   OH228520   4.719   2.362   1.798
 9519TIP3    H128521   4.681   2.323   1.877
 9519TIP3    H228522   4.741   2.288   1.742
 9520TIP3   OH228523   3.154   4.826   4.925
 9520TIP3    H128524   3.236   4.782   4.903
 9520TIP3    H228525   3.100   4.816   4.847
 9521TIP3   OH228526   6.652   4.613   1.521
 9521TIP3    H128527   6.560   4.588   1.510
 9521TIP3    H228528   6.663   4.624   1.615
 9522TIP3   OH228529   1.223   2.633   4.951
 9522TIP3    H128530   1.271   2.551   4.957
 9522TIP3    H228531   1.146   2.612   4.898
 9523TIP3   OH228532   2.714   1.192   1.806
 9523TIP3    H128533   2.663   1.273   1.814
 9523TIP3    H228534   2.651   1.122   1.820
 9524TIP3   OH228535   4.539   5.386   1.399
 9524TIP3    H128536   4.616   5.433   1.366
 9524TIP3    H228537   4.563   5.294   1.393
 9525TIP3   OH228538   1.765   3.703   1.132
 9525TIP3    H128539   1.721   3.632   1.178
 9525TIP3    H228540   1.778   3.669   1.043
 9526TIP3   OH228541   6.239   6.294   4.935
 9526TIP3    H128542   6.203   6.371   4.979
 9526TIP3    H228543   6.292   6.330   4.864
 9527TIP3   OH228544   2.329   0.680   0.244
 9527TIP3    H128545   2.369   0.608   0.195
 9527TIP3    H228546   2.393   0.750   0.240
 9528TIP3   OH228547   4.751   2.710   2.205
 9528TIP3    H128548   4.794   2.788   2.240
 9528TIP3    H228549   4.735   2.731   2.113
 9529TIP3   OH228550   5.950   1.766   0.304
 9529TIP3    H128551   5.873   1.811   0.271
 9529TIP3    H228552   5.999   1.833   0.351
 9530TIP3   OH228553   1.460   5.186   3.625
 9530TIP3    H128554   1.533   5.242   3.653
 9530TIP3    H228555   1.387   5.246   3.613
 9531TIP3   OH228556   1.531   6.367   3.691
 9531TIP3    H128557   1.448   6.329   3.719
 9531TIP3    H228558   1.510   6.418   3.613
 9532TIP3   OH228559   6.172   5.129   1.237
 9532TIP3    H128560   6.086   5.170   1.222
 9532TIP3    H228561   6.161   5.039   1.206
 9533TIP3   OH228562   6.865   0.236   3.835
 9533TIP3    H128563   6.810   0.162   3.862
 9533TIP3    H228564   6.926   0.198   3.772
 9534TIP3   OH228565   3.162   5.821   2.311
 9534TIP3    H128566   3.132   5.821   2.402
 9534TIP3    H228567   3.091   5.863   2.262
 9535TIP3   OH228568   4.055   3.085   4.771
 9535TIP3    H128569   3.960   3.076   4.775
 9535TIP3    H228570   4.088   2.996   4.763
 9536TIP3   OH228571   3.726   1.766   4.871
 9536TIP3    H128572   3.705   1.817   4.950
 9536TIP3    H228573   3.777   1.693   4.903
 9537TIP3   OH228574   0.357   3.871   4.359
 9537TIP3    H128575   0.313   3.789   4.337
 9537TIP3    H228576   0.408   3.850   4.438
 9538TIP3   OH228577   3.194   2.744   1.137
 9538TIP3    H128578   3.100   2.738   1.154
 9538TIP3    H228579   3.228   2.804   1.204
 9539TIP3   OH228580   4.250   4.897   1.696
 9539TIP3    H128581   4.255   4.828   1.762
 9539TIP3    H228582   4.258   4.979   1.746
 9540TIP3   OH228583   1.205   6.243   2.247
 9540TIP3    H128584   1.189   6.265   2.155
 9540TIP3    H228585   1.207   6.148   2.249
 9541TIP3   OH228586   2.208   1.281   1.999
 9541TIP3    H128587   2.221   1.370   2.032
 9541TIP3    H228588   2.226   1.287   1.905
 9542TIP3   OH228589   5.260   6.443   4.373
 9542TIP3    H128590   5.184   6.398   4.409
 9542TIP3    H228591   5.268   6.408   4.284
 9543TIP3   OH228592   3.079   3.966   3.871
 9543TIP3    H128593   3.119   3.952   3.785
 9543TIP3    H228594   3.143   4.020   3.919
 9544TIP3   OH228595   1.644   4.022   5.568
 9544TIP3    H128596   1.694   3.954   5.524
 9544TIP3    H228597   1.611   4.078   5.498
 9545TIP3   OH228598   5.860   5.767   3.402
 9545TIP3    H128599   5.878   5.696   3.341
 9545TIP3    H228600   5.804   5.827   3.354
 9546TIP3   OH228601   5.343   1.199   5.138
 9546TIP3    H128602   5.376   1.220   5.051
 9546TIP3    H228603   5.291   1.120   5.126
 9547TIP3   OH228604   0.349   6.020   1.731
 9547TIP3    H128605   0.348   5.925   1.732
 9547TIP3    H228606   0.373   6.043   1.641
 9548TIP3   OH228607   2.537   0.844   0.293
 9548TIP3    H128608   2.599   0.847   0.365
 9548TIP3    H228609   2.581   0.890   0.221
 9549TIP3   OH228610   6.667   5.461   3.160
 9549TIP3    H128611   6.647   5.449   3.067
 9549TIP3    H228612   6.760   5.439   3.167
 9550TIP3   OH228613   3.155   0.709   4.918
 9550TIP3    H128614   3.075   0.733   4.871
 9550TIP3    H228615   3.165   0.777   4.984
 9551TIP3   OH228616   3.953   1.061   4.776
 9551TIP3    H128617   3.920   1.057   4.866
 9551TIP3    H228618   3.881   1.028   4.722
 9552TIP3   OH228619   3.285   0.474   3.932
 9552TIP3    H128620   3.319   0.561   3.911
 9552TIP3    H228621   3.193   0.489   3.954
 9553TIP3   OH228622   6.680   3.122   0.825
 9553TIP3    H128623   6.697   3.119   0.731
 9553TIP3    H228624   6.700   3.212   0.851
 9554TIP3   OH228625   7.095   1.053   1.655
 9554TIP3    H128626   7.155   1.027   1.585
 9554TIP3    H228627   7.151   1.093   1.721
 9555TIP3   OH228628   6.523   0.384   1.809
 9555TIP3    H128629   6.449   0.390   1.870
 9555TIP3    H228630   6.515   0.296   1.771
 9556TIP3   OH228631   1.533   5.546   5.657
 9556TIP3    H128632   1.471   5.580   5.723
 9556TIP3    H228633   1.562   5.624   5.610
 9557TIP3   OH228634   0.728   3.490   2.208
 9557TIP3    H128635   0.728   3.418   2.144
 9557TIP3    H228636   0.813   3.533   2.196
 9558TIP3   OH228637   2.886   1.485   1.258
 9558TIP3    H128638   2.967   1.535   1.265
 9558TIP3    H228639   2.889   1.444   1.172
 9559TIP3   OH228640   4.754   0.286   2.090
 9559TIP3    H128641   4.769   0.251   2.003
 9559TIP3    H228642   4.659   0.284   2.101
 9560TIP3   OH228643   4.611   0.891   1.442
 9560TIP3    H128644   4.547   0.954   1.474
 9560TIP3    H228645   4.696   0.930   1.466
 9561TIP3   OH228646   7.252   5.709   2.184
 9561TIP3    H128647   7.231   5.788   2.233
 9561TIP3    H228648   7.169   5.681   2.147
 9562TIP3   OH228649   2.283   2.473   0.414
 9562TIP3    H128650   2.189   2.463   0.427
 9562TIP3    H228651   2.317   2.383   0.415
 9563TIP3   OH228652   5.422   3.866   3.248
 9563TIP3    H128653   5.489   3.875   3.181
 9563TIP3    H228654   5.359   3.936   3.229
 9564TIP3   OH228655   2.229   6.147   0.225
 9564TIP3    H128656   2.324   6.147   0.208
 9564TIP3    H228657   2.203   6.238   0.210
 9565TIP3   OH228658   2.459   6.245   4.593
 9565TIP3    H128659   2.371   6.281   4.584
 9565TIP3    H228660   2.447   6.150   4.590
 9566TIP3   OH228661   2.595   3.904   5.644
 9566TIP3    H128662   2.501   3.892   5.634
 9566TIP3    H228663   2.612   3.993   5.612
 9567TIP3   OH228664   2.883   2.705   1.551
 9567TIP3    H128665   2.973   2.716   1.583
 9567TIP3    H228666   2.884   2.618   1.510
 9568TIP3   OH228667   7.165   0.816   5.427
 9568TIP3    H128668   7.134   0.777   5.346
 9568TIP3    H228669   7.111   0.777   5.495
 9569TIP3   OH228670   0.212   2.587   2.382
 9569TIP3    H128671   0.209   2.494   2.359
 9569TIP3    H228672   0.166   2.593   2.465
 9570TIP3   OH228673   1.058   4.400   5.678
 9570TIP3    H128674   1.093   4.417   5.591
 9570TIP3    H228675   1.023   4.311   5.673
 9571TIP3   OH228676   7.048   3.707   2.772
 9571TIP3    H128677   7.053   3.750   2.687
 9571TIP3    H228678   6.956   3.718   2.799
 9572TIP3   OH228679   3.577   3.284   3.053
 9572TIP3    H128680   3.537   3.370   3.060
 9572TIP3    H228681   3.661   3.300   3.009
 9573TIP3   OH228682   3.536   3.783   0.606
 9573TIP3    H128683   3.508   3.756   0.693
 9573TIP3    H228684   3.565   3.873   0.617
 9574TIP3   OH228685   6.268   0.476   0.777
 9574TIP3    H128686   6.347   0.483   0.724
 9574TIP3    H228687   6.196   0.491   0.715
 9575TIP3   OH228688   5.709   0.639   5.310
 9575TIP3    H128689   5.784   0.608   5.361
 9575TIP3    H228690   5.740   0.720   5.269
 9576TIP3   OH228691   4.423   6.595   2.461
 9576TIP3    H128692   4.417   6.612   2.555
 9576TIP3    H228693   4.381   6.670   2.420
 9577TIP3   OH228694   2.441   6.265   2.124
 9577TIP3    H128695   2.528   6.289   2.155
 9577TIP3    H228696   2.457   6.199   2.057
 9578TIP3   OH228697   6.051   1.130   3.302
 9578TIP3    H128698   6.040   1.185   3.380
 9578TIP3    H228699   6.129   1.165   3.258
 9579TIP3   OH228700   7.030   5.467   4.167
 9579TIP3    H128701   6.983   5.550   4.168
 9579TIP3    H228702   7.025   5.437   4.076
 9580TIP3   OH228703   1.907  -0.025   5.048
 9580TIP3    H128704   1.933   0.065   5.025
 9580TIP3    H228705   1.989  -0.069   5.068
 9581TIP3   OH228706   4.581   1.904   3.431
 9581TIP3    H128707   4.527   1.937   3.502
 9581TIP3    H228708   4.542   1.819   3.408
 9582TIP3   OH228709   5.280   0.273  -0.022
 9582TIP3    H128710   5.237   0.238   0.056
 9582TIP3    H228711   5.368   0.297   0.007
 9583TIP3   OH228712   1.372   1.451   4.293
 9583TIP3    H128713   1.295   1.470   4.239
 9583TIP3    H228714   1.376   1.356   4.296
 9584TIP3   OH228715   2.576   2.819   3.709
 9584TIP3    H128716   2.632   2.758   3.660
 9584TIP3    H228717   2.487   2.798   3.681
 9585TIP3   OH228718   5.622   4.614   3.250
 9585TIP3    H128719   5.621   4.628   3.155
 9585TIP3    H228720   5.530   4.600   3.272
 9586TIP3   OH228721   1.060   6.560   5.777
 9586TIP3    H128722   1.010   6.638   5.803
 9586TIP3    H228723   1.071   6.510   5.858
 9587TIP3   OH228724   4.247   1.425   5.295
 9587TIP3    H128725   4.209   1.394   5.213
 9587TIP3    H228726   4.201   1.507   5.314
 9588TIP3   OH228727   3.865   5.123   5.463
 9588TIP3    H128728   3.875   5.205   5.511
 9588TIP3    H228729   3.855   5.149   5.372
 9589TIP3   OH228730   0.220   5.436   5.060
 9589TIP3    H128731   0.244   5.386   5.138
 9589TIP3    H228732   0.125   5.431   5.056
 9590TIP3   OH228733   4.305   3.744   4.149
 9590TIP3    H128734   4.232   3.694   4.184
 9590TIP3    H228735   4.276   3.836   4.155
 9591TIP3   OH228736   5.390   2.984   1.693
 9591TIP3    H128737   5.309   3.035   1.700
 9591TIP3    H228738   5.459   3.050   1.687
 9592TIP3   OH228739   0.859   4.005   4.034
 9592TIP3    H128740   0.924   3.964   4.091
 9592TIP3    H228741   0.883   4.097   4.033
 9593TIP3   OH228742   0.785   3.541   3.812
 9593TIP3    H128743   0.785   3.549   3.716
 9593TIP3    H228744   0.816   3.452   3.828
 9594TIP3   OH228745   3.732   4.875   2.671
 9594TIP3    H128746   3.707   4.865   2.579
 9594TIP3    H228747   3.826   4.894   2.668
 9595TIP3   OH228748   4.324   5.537   1.424
 9595TIP3    H128749   4.258   5.468   1.415
 9595TIP3    H228750   4.407   5.493   1.405
 9596TIP3   OH228751   1.948   5.247   0.851
 9596TIP3    H128752   1.914   5.314   0.792
 9596TIP3    H228753   1.889   5.249   0.927
 9597TIP3   OH228754   1.136   0.063   5.323
 9597TIP3    H128755   1.175   0.099   5.244
 9597TIP3    H228756   1.190   0.097   5.394
 9598TIP3   OH228757   0.015   0.626   2.592
 9598TIP3    H128758  -0.030   0.704   2.558
 9598TIP3    H228759   0.091   0.615   2.534
 9599TIP3   OH228760   5.960   1.949   4.577
 9599TIP3    H128761   5.902   1.952   4.653
 9599TIP3    H228762   5.940   1.866   4.535
 9600TIP3   OH228763   6.885   3.205   1.893
 9600TIP3    H128764   6.940   3.128   1.911
 9600TIP3    H228765   6.799   3.181   1.925
 9601TIP3   OH228766   5.456   0.119   1.886
 9601TIP3    H128767   5.391   0.127   1.817
 9601TIP3    H228768   5.412   0.151   1.965
 9602TIP3   OH228769   3.835   3.719   0.755
 9602TIP3    H128770   3.783   3.687   0.681
 9602TIP3    H228771   3.842   3.643   0.814
 9603TIP3   OH228772   3.203   1.959   2.163
 9603TIP3    H128773   3.266   2.024   2.134
 9603TIP3    H228774   3.119   1.989   2.127
 9604TIP3   OH228775   4.593   6.710   3.439
 9604TIP3    H128776   4.592   6.671   3.352
 9604TIP3    H228777   4.577   6.637   3.499
 9605TIP3   OH228778   4.824   1.984   1.983
 9605TIP3    H128779   4.865   2.055   2.033
 9605TIP3    H228780   4.784   1.928   2.049
 9606TIP3   OH228781   7.034   0.845   2.908
 9606TIP3    H128782   7.049   0.858   3.001
 9606TIP3    H228783   7.017   0.751   2.899
 9607TIP3   OH228784   6.264   0.960   1.152
 9607TIP3    H128785   6.234   1.048   1.171
 9607TIP3    H228786   6.186   0.905   1.160
 9608TIP3   OH228787   2.107  -0.033   5.352
 9608TIP3    H128788   2.110   0.048   5.303
 9608TIP3    H228789   2.167  -0.019   5.426
 9609TIP3   OH228790   2.853   2.408   5.902
 9609TIP3    H128791   2.830   2.362   5.821
 9609TIP3    H228792   2.782   2.385   5.962
 9610TIP3   OH228793   1.615   3.832   1.738
 9610TIP3    H128794   1.639   3.827   1.646
 9610TIP3    H228795   1.625   3.925   1.760
 9611TIP3   OH228796   1.860   3.365   5.533
 9611TIP3    H128797   1.917   3.290   5.550
 9611TIP3    H228798   1.823   3.387   5.618
 9612TIP3   OH228799   5.624   0.979   4.247
 9612TIP3    H128800   5.698   0.964   4.306
 9612TIP3    H228801   5.628   1.072   4.226
 9613TIP3   OH228802   0.487   4.185   4.563
 9613TIP3    H128803   0.448   4.133   4.633
 9613TIP3    H228804   0.454   4.146   4.482
 9614TIP3   OH228805   5.627   1.271   3.605
 9614TIP3    H128806   5.662   1.221   3.532
 9614TIP3    H228807   5.535   1.287   3.581
 9615TIP3   OH228808   0.747   5.300   3.748
 9615TIP3    H128809   0.820   5.258   3.702
 9615TIP3    H228810   0.789   5.358   3.811
 9616TIP3   OH228811   5.510   5.176   2.918
 9616TIP3    H128812   5.540   5.095   2.877
 9616TIP3    H228813   5.538   5.167   3.009
 9617TIP3   OH228814   2.715   5.978   5.841
 9617TIP3    H128815   2.682   5.902   5.793
 9617TIP3    H228816   2.795   6.003   5.794
 9618TIP3   OH228817   0.914   5.511   5.728
 9618TIP3    H128818   0.961   5.436   5.765
 9618TIP3    H228819   0.871   5.477   5.650
 9619TIP3   OH228820   4.217   1.865   1.477
 9619TIP3    H128821   4.184   1.952   1.497
 9619TIP3    H228822   4.142   1.807   1.489
 9620TIP3   OH228823   0.086   3.872   5.446
 9620TIP3    H128824   0.094   3.856   5.352
 9620TIP3    H228825   0.076   3.785   5.484
 9621TIP3   OH228826   4.286   6.137   5.034
 9621TIP3    H128827   4.367   6.180   5.006
 9621TIP3    H228828   4.220   6.169   4.972
 9622TIP3   OH228829   1.343   2.243   0.025
 9622TIP3    H128830   1.280   2.179  -0.008
 9622TIP3    H228831   1.418   2.191   0.053
 9623TIP3   OH228832   6.290   2.029   5.609
 9623TIP3    H128833   6.384   2.044   5.601
 9623TIP3    H228834   6.277   2.011   5.702
 9624TIP3   OH228835   4.008   2.584   3.795
 9624TIP3    H128836   3.953   2.570   3.873
 9624TIP3    H228837   3.955   2.551   3.723
 9625TIP3   OH228838   4.820   0.599   1.440
 9625TIP3    H128839   4.828   0.657   1.363
 9625TIP3    H228840   4.733   0.617   1.474
 9626TIP3   OH228841   5.348   2.698   5.081
 9626TIP3    H128842   5.286   2.736   5.018
 9626TIP3    H228843   5.417   2.763   5.090
 9627TIP3   OH228844   6.223   0.804   3.733
 9627TIP3    H128845   6.274   0.737   3.777
 9627TIP3    H228846   6.276   0.884   3.741
 9628TIP3   OH228847   1.589   3.954   5.155
 9628TIP3    H128848   1.600   3.872   5.203
 9628TIP3    H228849   1.495   3.971   5.158
 9629TIP3   OH228850   2.101   0.602   5.564
 9629TIP3    H128851   2.142   0.643   5.641
 9629TIP3    H228852   2.173   0.553   5.523
 9630TIP3   OH228853   6.064   0.924   4.587
 9630TIP3    H128854   6.138   0.906   4.645
 9630TIP3    H228855   5.998   0.964   4.644
 9631TIP3   OH228856   0.483   0.419   2.768
 9631TIP3    H128857   0.555   0.419   2.831
 9631TIP3    H228858   0.526   0.415   2.682
 9632TIP3   OH228859   1.991   1.524   5.818
 9632TIP3    H128860   2.019   1.608   5.780
 9632TIP3    H228861   1.998   1.461   5.746
 9633TIP3   OH228862   0.959   3.265   2.037
 9633TIP3    H128863   0.869   3.265   2.005
 9633TIP3    H228864   1.010   3.304   1.966
 9634TIP3   OH228865   1.681   0.991   1.980
 9634TIP3    H128866   1.698   0.992   1.885
 9634TIP3    H228867   1.610   0.928   1.991
 9635TIP3   OH228868   5.192   1.057   4.257
 9635TIP3    H128869   5.235   0.996   4.197
 9635TIP3    H228870   5.163   1.129   4.201
 9636TIP3   OH228871   0.511   3.913   0.163
 9636TIP3    H128872   0.603   3.939   0.165
 9636TIP3    H228873   0.469   3.965   0.231
 9637TIP3   OH228874   3.055   3.254   0.471
 9637TIP3    H128875   3.014   3.338   0.452
 9637TIP3    H228876   3.145   3.263   0.441
 9638TIP3   OH228877   0.054   6.713   3.427
 9638TIP3    H128878   0.146   6.697   3.403
 9638TIP3    H228879   0.058   6.785   3.490
 9639TIP3   OH228880   1.499   4.810   1.231
 9639TIP3    H128881   1.455   4.799   1.146
 9639TIP3    H228882   1.504   4.721   1.267
 9640TIP3   OH228883   1.703   3.677   3.399
 9640TIP3    H128884   1.740   3.604   3.349
 9640TIP3    H228885   1.610   3.678   3.373
 9641TIP3   OH228886   1.937   0.867   0.999
 9641TIP3    H128887   1.954   0.960   1.016
 9641TIP3    H228888   1.872   0.842   1.063
 9642TIP3   OH228889   1.446   4.513   2.641
 9642TIP3    H128890   1.482   4.526   2.729
 9642TIP3    H228891   1.523   4.495   2.587
 9643TIP3   OH228892   1.095   6.031   5.099
 9643TIP3    H128893   1.103   6.099   5.166
 9643TIP3    H228894   1.169   5.972   5.115
 9644TIP3   OH228895   6.166   6.540   4.226
 9644TIP3    H128896   6.124   6.500   4.151
 9644TIP3    H228897   6.237   6.592   4.190
 9645TIP3   OH228898   2.566   4.236   0.321
 9645TIP3    H128899   2.509   4.161   0.336
 9645TIP3    H228900   2.631   4.204   0.258
 9646TIP3   OH228901   3.229   5.232   5.016
 9646TIP3    H128902   3.206   5.324   5.004
 9646TIP3    H228903   3.306   5.218   4.961
 9647TIP3   OH228904   0.315   1.718   4.467
 9647TIP3    H128905   0.373   1.669   4.525
 9647TIP3    H228906   0.330   1.810   4.489
 9648TIP3   OH228907   5.015   2.919   3.887
 9648TIP3    H128908   5.092   2.971   3.866
 9648TIP3    H228909   4.954   2.981   3.927
 9649TIP3   OH228910   1.709   2.650   4.339
 9649TIP3    H128911   1.772   2.629   4.409
 9649TIP3    H228912   1.700   2.745   4.344
 9650TIP3   OH228913   0.954   2.394   4.175
 9650TIP3    H128914   0.997   2.403   4.090
 9650TIP3    H228915   0.960   2.301   4.195
 9651TIP3   OH228916   5.024   6.037   0.268
 9651TIP3    H128917   4.984   5.967   0.215
 9651TIP3    H228918   4.951   6.083   0.307
 9652TIP3   OH228919   0.454   1.796   0.804
 9652TIP3    H128920   0.419   1.735   0.869
 9652TIP3    H228921   0.393   1.791   0.731
 9653TIP3   OH228922   3.244   5.476   4.267
 9653TIP3    H128923   3.254   5.544   4.334
 9653TIP3    H228924   3.151   5.479   4.245
 9654TIP3   OH228925   6.800   3.422   5.356
 9654TIP3    H128926   6.755   3.450   5.435
 9654TIP3    H228927   6.885   3.468   5.359
 9655TIP3   OH228928   4.893   5.190   3.223
 9655TIP3    H128929   4.854   5.139   3.153
 9655TIP3    H228930   4.981   5.153   3.234
 9656TIP3   OH228931   1.392   0.723   3.795
 9656TIP3    H128932   1.303   0.689   3.788
 9656TIP3    H228933   1.448   0.646   3.796
 9657TIP3   OH228934   5.920   0.091   1.435
 9657TIP3    H128935   5.948   0.158   1.497
 9657TIP3    H228936   5.985   0.021   1.444
 9658TIP3   OH228937   4.932   4.190   2.485
 9658TIP3    H128938   4.897   4.101   2.489
 9658TIP3    H228939   4.917   4.225   2.573
 9659TIP3   OH228940   6.114   0.623   4.737
 9659TIP3    H128941   6.195   0.671   4.722
 9659TIP3    H228942   6.067   0.675   4.803
 9660TIP3   OH228943   4.432   1.136   2.374
 9660TIP3    H128944   4.417   1.189   2.453
 9660TIP3    H228945   4.426   1.198   2.302
 9661TIP3   OH228946   2.230   5.539   2.234
 9661TIP3    H128947   2.242   5.604   2.304
 9661TIP3    H228948   2.246   5.455   2.276
 9662TIP3   OH228949   3.432   2.150   4.925
 9662TIP3    H128950   3.364   2.218   4.927
 9662TIP3    H228951   3.490   2.176   4.854
 9663TIP3   OH228952   2.244   5.405   1.021
 9663TIP3    H128953   2.281   5.454   1.095
 9663TIP3    H228954   2.177   5.349   1.060
 9664TIP3   OH228955   4.689   0.987   2.372
 9664TIP3    H128956   4.745   1.064   2.379
 9664TIP3    H228957   4.734   0.920   2.424
 9665TIP3   OH228958   4.746   4.455   5.292
 9665TIP3    H128959   4.735   4.489   5.204
 9665TIP3    H228960   4.676   4.390   5.302
 9666TIP3   OH228961   7.032   0.459   3.930
 9666TIP3    H128962   7.107   0.432   3.876
 9666TIP3    H228963   6.959   0.406   3.897
 9667TIP3   OH228964   4.784   6.159   3.137
 9667TIP3    H128965   4.737   6.122   3.212
 9667TIP3    H228966   4.723   6.150   3.063
 9668TIP3   OH228967   5.670   3.646   2.411
 9668TIP3    H128968   5.690   3.553   2.418
 9668TIP3    H228969   5.575   3.651   2.416
 9669TIP3   OH228970   0.928   1.700   2.042
 9669TIP3    H128971   1.023   1.692   2.041
 9669TIP3    H228972   0.897   1.620   2.085
 9670TIP3   OH228973   2.750   0.477   3.717
 9670TIP3    H128974   2.676   0.427   3.684
 9670TIP3    H228975   2.808   0.487   3.641
 9671TIP3   OH228976   0.808   4.896   2.001
 9671TIP3    H128977   0.733   4.953   1.986
 9671TIP3    H228978   0.884   4.951   1.979
 9672TIP3   OH228979   4.866   5.557   4.197
 9672TIP3    H128980   4.861   5.551   4.101
 9672TIP3    H228981   4.908   5.475   4.224
 9673TIP3   OH228982   5.440   3.641   2.744
 9673TIP3    H128983   5.506   3.588   2.789
 9673TIP3    H228984   5.370   3.653   2.808
 9674TIP3   OH228985   3.028   2.791   4.305
 9674TIP3    H128986   2.959   2.780   4.371
 9674TIP3    H228987   3.070   2.705   4.300
 9675TIP3   OH228988   5.053   5.417   5.061
 9675TIP3    H128989   5.017   5.371   4.984
 9675TIP3    H228990   5.146   5.424   5.043
 9676TIP3   OH228991   5.877   4.905   1.448
 9676TIP3    H128992   5.790   4.866   1.451
 9676TIP3    H228993   5.864   4.992   1.410
 9677TIP3   OH228994   5.109   2.824   3.268
 9677TIP3    H128995   5.155   2.899   3.230
 9677TIP3    H228996   5.124   2.832   3.362
 9678TIP3   OH228997   0.201   0.431   5.291
 9678TIP3    H128998   0.113   0.467   5.292
 9678TIP3    H228999   0.202   0.366   5.360
 9679TIP3   OH229000   0.576   3.294   0.293
 9679TIP3    H129001   0.547   3.295   0.384
 9679TIP3    H229002   0.666   3.328   0.296
 9680TIP3   OH229003   6.530   3.479   4.592
 9680TIP3    H129004   6.566   3.420   4.526
 9680TIP3    H229005   6.515   3.561   4.544
 9681TIP3   OH229006   3.830   4.048   0.146
 9681TIP3    H129007   3.920   4.015   0.149
 9681TIP3    H229008   3.830   4.123   0.205
 9682TIP3   OH229009   0.893   0.859   3.566
 9682TIP3    H129010   0.978   0.887   3.602
 9682TIP3    H229011   0.897   0.764   3.565
 9683TIP3   OH229012   1.729   2.377   0.898
 9683TIP3    H129013   1.790   2.304   0.888
 9683TIP3    H229014   1.785   2.455   0.893
 9684TIP3   OH229015   0.847   1.574   0.785
 9684TIP3    H129016   0.787   1.646   0.764
 9684TIP3    H229017   0.920   1.585   0.724
 9685TIP3   OH229018   6.227   5.456   1.056
 9685TIP3    H129019   6.148   5.432   1.103
 9685TIP3    H229020   6.196   5.476   0.967
 9686TIP3   OH229021   4.392   2.508   0.852
 9686TIP3    H129022   4.427   2.507   0.941
 9686TIP3    H229023   4.318   2.569   0.855
 9687TIP3   OH229024   4.850   2.280   5.165
 9687TIP3    H129025   4.778   2.341   5.181
 9687TIP3    H229026   4.916   2.332   5.120
 9688TIP3   OH229027   5.859   0.156   4.997
 9688TIP3    H129028   5.877   0.070   5.036
 9688TIP3    H229029   5.867   0.217   5.070
 9689TIP3   OH229030   5.248   0.126   1.717
 9689TIP3    H129031   5.221   0.142   1.626
 9689TIP3    H229032   5.179   0.166   1.770
 9690TIP3   OH229033   0.091   5.487   0.702
 9690TIP3    H129034   0.171   5.484   0.754
 9690TIP3    H229035   0.116   5.532   0.622
 9691TIP3   OH229036   2.228   6.266   5.125
 9691TIP3    H129037   2.258   6.264   5.035
 9691TIP3    H229038   2.190   6.179   5.140
 9692TIP3   OH229039   0.710   6.702   1.245
 9692TIP3    H129040   0.797   6.738   1.231
 9692TIP3    H229041   0.724   6.622   1.296
 9693TIP3   OH229042   2.998   3.738   1.785
 9693TIP3    H129043   3.048   3.710   1.861
 9693TIP3    H229044   2.975   3.829   1.804
 9694TIP3   OH229045   2.698   3.163   4.162
 9694TIP3    H129046   2.692   3.131   4.252
 9694TIP3    H229047   2.619   3.130   4.119
 9695TIP3   OH229048   5.012   1.784   0.852
 9695TIP3    H129049   5.061   1.839   0.790
 9695TIP3    H229050   4.943   1.744   0.799
 9696TIP3   OH229051   0.786   3.411   5.814
 9696TIP3    H129052   0.777   3.499   5.851
 9696TIP3    H229053   0.699   3.391   5.779
 9697TIP3   OH229054   4.829   5.799   1.029
 9697TIP3    H129055   4.806   5.714   1.065
 9697TIP3    H229056   4.887   5.780   0.956
 9698TIP3   OH229057   3.813   1.116   3.374
 9698TIP3    H129058   3.856   1.202   3.368
 9698TIP3    H229059   3.825   1.077   3.287
 9699TIP3   OH229060   0.300   6.421   2.969
 9699TIP3    H129061   0.269   6.399   3.057
 9699TIP3    H229062   0.332   6.339   2.933
 9700TIP3   OH229063   6.044   5.951   5.835
 9700TIP3    H129064   6.099   5.919   5.907
 9700TIP3    H229065   6.103   5.955   5.760
 9701TIP3   OH229066   1.289   1.633   4.931
 9701TIP3    H129067   1.234   1.709   4.951
 9701TIP3    H229068   1.365   1.643   4.989
 9702TIP3   OH229069   6.169   4.975   5.064
 9702TIP3    H129070   6.075   4.994   5.056
 9702TIP3    H229071   6.186   4.976   5.159
 9703TIP3   OH229072   4.311   5.057   0.409
 9703TIP3    H129073   4.310   5.077   0.316
 9703TIP3    H229074   4.404   5.055   0.432
 9704TIP3   OH229075   6.614   3.277   2.809
 9704TIP3    H129076   6.562   3.354   2.832
 9704TIP3    H229077   6.675   3.266   2.883
 9705TIP3   OH229078   0.568   3.452   1.442
 9705TIP3    H129079   0.475   3.469   1.453
 9705TIP3    H229080   0.573   3.359   1.420
 9706TIP3   OH229081   6.986   0.463   5.796
 9706TIP3    H129082   6.960   0.376   5.825
 9706TIP3    H229083   6.925   0.522   5.840
 9707TIP3   OH229084   3.822   4.198   2.942
 9707TIP3    H129085   3.790   4.268   2.999
 9707TIP3    H229086   3.889   4.154   2.993
 9708TIP3   OH229087   6.639   5.036   3.956
 9708TIP3    H129088   6.576   5.019   4.026
 9708TIP3    H229089   6.612   5.120   3.919
 9709TIP3   OH229090   6.371   3.739   0.812
 9709TIP3    H129091   6.330   3.808   0.864
 9709TIP3    H229092   6.465   3.749   0.830
 9710TIP3   OH229093   4.123   2.416   2.101
 9710TIP3    H129094   4.033   2.388   2.121
 9710TIP3    H229095   4.166   2.422   2.186
 9711TIP3   OH229096   1.018   5.323   4.718
 9711TIP3    H129097   1.034   5.413   4.746
 9711TIP3    H229098   1.105   5.282   4.719
 9712TIP3   OH229099   4.578   3.583   4.993
 9712TIP3    H129100   4.553   3.665   4.950
 9712TIP3    H229101   4.662   3.603   5.034
 9713TIP3   OH229102   3.786   2.671   1.950
 9713TIP3    H129103   3.818   2.761   1.943
 9713TIP3    H229104   3.691   2.679   1.946
 9714TIP3   OH229105   0.535   5.106   1.189
 9714TIP3    H129106   0.467   5.137   1.129
 9714TIP3    H229107   0.487   5.080   1.268
 9715TIP3   OH229108   1.042   0.796   2.892
 9715TIP3    H129109   1.047   0.888   2.865
 9715TIP3    H229110   1.131   0.763   2.884
 9716TIP3   OH229111   2.078   3.556   5.834
 9716TIP3    H129112   2.026   3.531   5.757
 9716TIP3    H229113   2.112   3.643   5.813
 9717TIP3   OH229114   0.450   3.208   2.098
 9717TIP3    H129115   0.382   3.140   2.097
 9717TIP3    H229116   0.401   3.290   2.106
 9718TIP3   OH229117   0.702   5.566   5.158
 9718TIP3    H129118   0.613   5.565   5.194
 9718TIP3    H229119   0.690   5.593   5.067
 9719TIP3   OH229120   3.276   1.800   0.268
 9719TIP3    H129121   3.372   1.800   0.266
 9719TIP3    H229122   3.250   1.737   0.201
 9720TIP3   OH229123   4.528   1.733   2.643
 9720TIP3    H129124   4.473   1.702   2.714
 9720TIP3    H229125   4.529   1.828   2.653
 9721TIP3   OH229126   5.896   3.510   4.416
 9721TIP3    H129127   5.851   3.525   4.333
 9721TIP3    H229128   5.905   3.415   4.422
 9722TIP3   OH229129   6.932   4.768   1.719
 9722TIP3    H129130   6.972   4.732   1.797
 9722TIP3    H229131   7.004   4.775   1.656
 9723TIP3   OH229132   0.989   5.167   3.884
 9723TIP3    H129133   1.077   5.133   3.899
 9723TIP3    H229134   0.949   5.103   3.825
 9724TIP3   OH229135   3.813   5.767   1.586
 9724TIP3    H129136   3.823   5.849   1.538
 9724TIP3    H229137   3.897   5.722   1.574
 9725TIP3   OH229138   6.098   1.362   3.121
 9725TIP3    H129139   6.139   1.442   3.154
 9725TIP3    H229140   6.169   1.312   3.083
 9726TIP3   OH229141   5.509   3.627   0.794
 9726TIP3    H129142   5.426   3.584   0.814
 9726TIP3    H229143   5.571   3.594   0.859
 9727TIP3   OH229144   3.901   2.997   3.876
 9727TIP3    H129145   3.820   2.945   3.877
 9727TIP3    H229146   3.955   2.958   3.945
 9728TIP3   OH229147   1.467   1.666   4.149
 9728TIP3    H129148   1.426   1.752   4.160
 9728TIP3    H229149   1.420   1.609   4.210
 9729TIP3   OH229150   2.312   6.554   3.231
 9729TIP3    H129151   2.340   6.509   3.151
 9729TIP3    H229152   2.242   6.498   3.265
 9730TIP3   OH229153   4.168   0.684   3.576
 9730TIP3    H129154   4.166   0.777   3.555
 9730TIP3    H229155   4.237   0.648   3.521
 9731TIP3   OH229156   5.496   0.229   4.358
 9731TIP3    H129157   5.421   0.288   4.363
 9731TIP3    H229158   5.508   0.197   4.448
 9732TIP3   OH229159   0.837   4.695   4.071
 9732TIP3    H129160   0.929   4.709   4.095
 9732TIP3    H229161   0.787   4.739   4.139
 9733TIP3   OH229162   5.126   4.383   2.342
 9733TIP3    H129163   5.045   4.337   2.364
 9733TIP3    H229164   5.100   4.451   2.280
 9734TIP3   OH229165   5.621   2.530   1.748
 9734TIP3    H129166   5.577   2.458   1.792
 9734TIP3    H229167   5.585   2.609   1.788
 9735TIP3   OH229168   1.907   1.139   3.495
 9735TIP3    H129169   1.905   1.092   3.412
 9735TIP3    H229170   1.819   1.130   3.530
 9736TIP3   OH229171   5.360   3.286   0.081
 9736TIP3    H129172   5.418   3.286   0.157
 9736TIP3    H229173   5.312   3.369   0.088
 9737TIP3   OH229174   1.954   4.691   4.220
 9737TIP3    H129175   1.880   4.752   4.223
 9737TIP3    H229176   1.927   4.624   4.158
 9738TIP3   OH229177   1.422   4.785   2.300
 9738TIP3    H129178   1.508   4.759   2.331
 9738TIP3    H229179   1.366   4.710   2.319
 9739TIP3   OH229180   0.032   6.345   4.200
 9739TIP3    H129181   0.120   6.376   4.182
 9739TIP3    H229182   0.044   6.255   4.229
 9740TIP3   OH229183   1.804   6.314   2.697
 9740TIP3    H129184   1.870   6.326   2.629
 9740TIP3    H229185   1.827   6.377   2.765
 9741TIP3   OH229186   1.608   1.576   2.721
 9741TIP3    H129187   1.653   1.568   2.806
 9741TIP3    H229188   1.576   1.666   2.720
 9742TIP3   OH229189   4.606   2.405   0.572
 9742TIP3    H129190   4.528   2.352   0.587
 9742TIP3    H229191   4.613   2.412   0.477
 9743TIP3   OH229192   4.042   6.003   0.776
 9743TIP3    H129193   4.112   5.958   0.822
 9743TIP3    H229194   4.021   5.945   0.703
 9744TIP3   OH229195   2.872   5.987   3.733
 9744TIP3    H129196   2.930   5.943   3.796
 9744TIP3    H229197   2.915   6.070   3.715
 9745TIP3   OH229198   5.626   2.601   3.269
 9745TIP3    H129199   5.551   2.569   3.217
 9745TIP3    H229200   5.586   2.647   3.342
 9746TIP3   OH229201   5.783   2.509   2.216
 9746TIP3    H129202   5.805   2.444   2.284
 9746TIP3    H229203   5.849   2.494   2.148
 9747TIP3   OH229204   1.828   6.458   0.301
 9747TIP3    H129205   1.857   6.446   0.392
 9747TIP3    H229206   1.741   6.496   0.308
 9748TIP3   OH229207   2.312  -0.043   5.510
 9748TIP3    H129208   2.336  -0.126   5.550
 9748TIP3    H229209   2.336   0.023   5.575
 9749TIP3   OH229210   1.283   1.950   5.521
 9749TIP3    H129211   1.305   1.972   5.430
 9749TIP3    H229212   1.228   1.872   5.514
   7.21483   6.80221   5.89087   0.00000   0.00000  -2.40495   0.00000  -2.40495  -3.40110
