Title t= 205.00000 step= 102500
19942
    1ASP      N    1   1.372   2.375   3.512
    1ASP    HT1    2   1.294   2.323   3.558
    1ASP    HT2    3   1.354   2.405   3.414
    1ASP    HT3    4   1.387   2.460   3.570
    1ASP     CA    5   1.494   2.300   3.505
    1ASP     HA    6   1.574   2.371   3.516
    1ASP     CB    7   1.498   2.211   3.627
    1ASP    HB1    8   1.416   2.137   3.622
    1ASP    HB2    9   1.460   2.274   3.710
    1ASP     CG   10   1.636   2.156   3.663
    1ASP    OD1   11   1.645   2.059   3.743
    1ASP    OD2   12   1.742   2.213   3.624
    1ASP      C   13   1.501   2.220   3.374
    1ASP      O   14   1.523   2.283   3.271
    2ALA      N   15   1.487   2.084   3.378
    2ALA     HN   16   1.483   2.043   3.469
    2ALA     CA   17   1.489   2.000   3.262
    2ALA     HA   18   1.578   2.023   3.205
    2ALA     CB   19   1.494   1.857   3.302
    2ALA    HB1   20   1.598   1.822   3.322
    2ALA    HB2   21   1.448   1.791   3.224
    2ALA    HB3   22   1.431   1.834   3.391
    2ALA      C   23   1.369   2.030   3.163
    2ALA      O   24   1.249   2.043   3.189
    3ASP      N   25   1.409   2.038   3.037
    3ASP     HN   26   1.504   2.016   3.014
    3ASP     CA   27   1.326   2.046   2.918
    3ASP     HA   28   1.277   2.142   2.923
    3ASP     CB   29   1.413   2.071   2.791
    3ASP    HB1   30   1.354   2.090   2.698
    3ASP    HB2   31   1.469   1.979   2.762
    3ASP     CG   32   1.503   2.191   2.800
    3ASP    OD1   33   1.628   2.170   2.783
    3ASP    OD2   34   1.463   2.310   2.830
    3ASP      C   35   1.219   1.934   2.907
    3ASP      O   36   1.247   1.820   2.952
    4GLY      N   37   1.098   1.961   2.854
    4GLY     HN   38   1.086   2.058   2.832
    4GLY     CA   39   0.974   1.881   2.848
    4GLY    HA1   40   0.897   1.934   2.793
    4GLY    HA2   41   0.949   1.854   2.950
    4GLY      C   42   0.998   1.752   2.771
    4GLY      O   43   1.106   1.724   2.719
    5PRO      N   44   0.902   1.668   2.769
    5PRO     CD   45   0.772   1.693   2.836
    5PRO    HD1   46   0.719   1.779   2.791
    5PRO    HD2   47   0.786   1.706   2.945
    5PRO     CA   48   0.896   1.549   2.676
    5PRO     HA   49   0.971   1.477   2.706
    5PRO     CB   50   0.753   1.503   2.685
    5PRO    HB1   51   0.753   1.393   2.674
    5PRO    HB2   52   0.700   1.556   2.604
    5PRO     CG   53   0.703   1.551   2.826
    5PRO    HG1   54   0.593   1.567   2.833
    5PRO    HG2   55   0.734   1.485   2.911
    5PRO      C   56   0.938   1.580   2.532
    5PRO      O   57   0.903   1.686   2.485
    6GLY      N   58   1.011   1.478   2.465
    6GLY     HN   59   1.043   1.392   2.503
    6GLY     CA   60   1.058   1.504   2.329
    6GLY    HA1   61   1.146   1.443   2.312
    6GLY    HA2   62   1.083   1.607   2.309
    6GLY      C   63   0.962   1.445   2.220
    6GLY      O   64   0.846   1.468   2.214
    7ASP      N   65   1.014   1.371   2.119
    7ASP     HN   66   1.112   1.372   2.107
    7ASP     CA   67   0.930   1.309   2.013
    7ASP     HA   68   0.871   1.386   1.964
    7ASP     CB   69   1.019   1.262   1.893
    7ASP    HB1   70   1.115   1.220   1.932
    7ASP    HB2   71   1.045   1.353   1.836
    7ASP     CG   72   0.959   1.160   1.796
    7ASP    OD1   73   0.836   1.165   1.762
    7ASP    OD2   74   1.040   1.085   1.734
    7ASP      C   75   0.836   1.197   2.063
    7ASP      O   76   0.897   1.113   2.125
    8PRO      N   77   0.709   1.183   2.042
    8PRO     CD   78   0.627   1.297   2.000
    8PRO    HD1   79   0.638   1.307   1.890
    8PRO    HD2   80   0.659   1.390   2.052
    8PRO     CA   81   0.628   1.072   2.094
    8PRO     HA   82   0.638   1.068   2.201
    8PRO     CB   83   0.491   1.103   2.039
    8PRO    HB1   84   0.413   1.053   2.100
    8PRO    HB2   85   0.478   1.064   1.935
    8PRO     CG   86   0.482   1.260   2.039
    8PRO    HG1   87   0.408   1.293   1.964
    8PRO    HG2   88   0.459   1.315   2.133
    8PRO      C   89   0.666   0.934   2.040
    8PRO      O   90   0.637   0.837   2.112
    9ASP      N   91   0.735   0.922   1.925
    9ASP     HN   92   0.748   1.009   1.878
    9ASP     CA   93   0.772   0.793   1.876
    9ASP     HA   94   0.710   0.720   1.925
    9ASP     CB   95   0.754   0.787   1.730
    9ASP    HB1   96   0.805   0.695   1.696
    9ASP    HB2   97   0.792   0.872   1.670
    9ASP     CG   98   0.612   0.779   1.674
    9ASP    OD1   99   0.595   0.773   1.549
    9ASP    OD2  100   0.521   0.771   1.760
    9ASP      C  101   0.916   0.766   1.906
    9ASP      O  102   0.973   0.660   1.894
   10ALA      N  103   0.987   0.862   1.959
   10ALA     HN  104   0.954   0.956   1.969
   10ALA     CA  105   1.122   0.836   2.005
   10ALA     HA  106   1.177   0.800   1.919
   10ALA     CB  107   1.170   0.973   2.037
   10ALA    HB1  108   1.161   1.034   1.944
   10ALA    HB2  109   1.273   0.984   2.077
   10ALA    HB3  110   1.113   1.027   2.115
   10ALA      C  111   1.141   0.750   2.126
   10ALA      O  112   1.060   0.744   2.215
   11GLY      N  113   1.251   0.670   2.126
   11GLY     HN  114   1.311   0.684   2.048
   11GLY     CA  115   1.303   0.596   2.239
   11GLY    HA1  116   1.365   0.511   2.214
   11GLY    HA2  117   1.217   0.564   2.297
   11GLY      C  118   1.386   0.685   2.326
   11GLY    OT1  119   1.365   0.692   2.450
   11GLY    OT2  120   1.479   0.751   2.271
   12LIT    LIT  121   4.281   4.199   1.712
   13LIT    LIT  122   1.474   2.859   1.863
   14LIT    LIT  123   0.883   4.846   4.238
   15LIT    LIT  124   6.052   0.050   4.989
   16LIT    LIT  125   0.276   1.256   3.670
   17LIT    LIT  126   3.668   5.229   3.475
   18LIT    LIT  127   2.278   3.358   2.667
   19LIT    LIT  128   0.495   0.756   1.385
   20LIT    LIT  129   2.265   1.220   3.640
   21LIT    LIT  130   2.855   0.057   4.786
   22LIT    LIT  131   6.165   3.329   2.164
   23LIT    LIT  132   5.993   0.546   2.422
   24LIT    LIT  133   3.784   2.129   0.456
   25LIT    LIT  134   1.294   4.365   1.507
   26LIT    LIT  135   2.531   1.722   5.039
   27LIT    LIT  136   0.033   5.757   3.715
   28LIT    LIT  137   1.839   2.061   3.756
   29LIT    LIT  138   2.021   5.073   1.478
   30LIT    LIT  139   2.046   0.262   3.896
   31LIT    LIT  140   4.204   3.406   2.609
   32LIT    LIT  141   0.564   0.124   2.141
   33LIT    LIT  142   3.320   1.546   0.247
   34CLA    CLA  143   2.234   2.459   1.354
   35CLA    CLA  144   5.972   1.159   3.550
   36CLA    CLA  145   4.385   2.940   4.230
   37CLA    CLA  146   6.174   1.537   4.230
   38CLA    CLA  147   2.456   2.308   4.071
   39CLA    CLA  148   6.297   5.838   3.191
   40CLA    CLA  149   0.679   1.350   4.885
   41CLA    CLA  150   1.158   2.497   0.686
   42CLA    CLA  151   4.362   5.082   1.724
   43CLA    CLA  152   0.896   1.955   5.154
   44CLA    CLA  153   4.723   0.074   1.051
   45CLA    CLA  154   2.199   0.800   3.901
   46CLA    CLA  155   3.374   2.051   3.932
   47CLA    CLA  156   2.732   1.623   5.099
   48CLA    CLA  157   3.237   0.502   4.510
   49CLA    CLA  158   6.141   1.094   1.713
   50CLA    CLA  159   3.469   5.376   5.067
   51CLA    CLA  160   2.218   5.385   1.786
   52TIP3   OH2  161   2.088   1.788   4.824
   52TIP3    H1  162   2.112   1.878   4.804
   52TIP3    H2  163   2.130   1.735   4.756
   53TIP3   OH2  164   1.297   3.723   3.203
   53TIP3    H1  165   1.380   3.721   3.156
   53TIP3    H2  166   1.320   3.742   3.294
   54TIP3   OH2  167   1.746   0.898   3.465
   54TIP3    H1  168   1.679   0.935   3.523
   54TIP3    H2  169   1.756   0.808   3.494
   55TIP3   OH2  170   4.510   5.347   1.352
   55TIP3    H1  171   4.597   5.384   1.340
   55TIP3    H2  172   4.495   5.296   1.272
   56TIP3   OH2  173   3.214   0.258   0.388
   56TIP3    H1  174   3.307   0.243   0.372
   56TIP3    H2  175   3.211   0.311   0.468
   57TIP3   OH2  176   0.441   3.301   4.591
   57TIP3    H1  177   0.511   3.361   4.618
   57TIP3    H2  178   0.361   3.350   4.607
   58TIP3   OH2  179   5.122   3.941   4.653
   58TIP3    H1  180   5.165   3.978   4.576
   58TIP3    H2  181   5.073   3.865   4.620
   59TIP3   OH2  182   6.083   5.528   0.226
   59TIP3    H1  183   6.001   5.533   0.178
   59TIP3    H2  184   6.090   5.436   0.253
   60TIP3   OH2  185   1.489   1.341   4.597
   60TIP3    H1  186   1.514   1.353   4.506
   60TIP3    H2  187   1.561   1.378   4.648
   61TIP3   OH2  188   0.470   5.761   0.286
   61TIP3    H1  189   0.382   5.765   0.325
   61TIP3    H2  190   0.464   5.693   0.220
   62TIP3   OH2  191   5.401   3.643   2.836
   62TIP3    H1  192   5.443   3.606   2.759
   62TIP3    H2  193   5.459   3.714   2.863
   63TIP3   OH2  194   4.627   5.674   1.191
   63TIP3    H1  195   4.534   5.660   1.174
   63TIP3    H2  196   4.631   5.696   1.284
   64TIP3   OH2  197   1.874   4.994   1.897
   64TIP3    H1  198   1.790   4.960   1.929
   64TIP3    H2  199   1.917   5.028   1.975
   65TIP3   OH2  200   4.747   1.140   1.701
   65TIP3    H1  201   4.832   1.167   1.667
   65TIP3    H2  202   4.695   1.119   1.623
   66TIP3   OH2  203   2.139   5.773   4.415
   66TIP3    H1  204   2.197   5.801   4.485
   66TIP3    H2  205   2.172   5.687   4.389
   67TIP3   OH2  206   2.048   0.169   3.734
   67TIP3    H1  207   1.988   0.113   3.686
   67TIP3    H2  208   2.105   0.207   3.666
   68TIP3   OH2  209   3.226   2.964   2.750
   68TIP3    H1  210   3.274   3.032   2.703
   68TIP3    H2  211   3.134   2.988   2.743
   69TIP3   OH2  212   1.916   3.217   0.669
   69TIP3    H1  213   1.864   3.144   0.701
   69TIP3    H2  214   2.000   3.178   0.645
   70TIP3   OH2  215   5.919   0.054   4.071
   70TIP3    H1  216   5.870   0.082   4.148
   70TIP3    H2  217   6.011   0.061   4.097
   71TIP3   OH2  218   5.467   1.317   1.941
   71TIP3    H1  219   5.546   1.345   1.894
   71TIP3    H2  220   5.497   1.300   2.030
   72TIP3   OH2  221   5.410   4.289   2.445
   72TIP3    H1  222   5.379   4.270   2.357
   72TIP3    H2  223   5.479   4.355   2.432
   73TIP3   OH2  224   6.225   3.467   4.735
   73TIP3    H1  225   6.219   3.449   4.641
   73TIP3    H2  226   6.267   3.553   4.741
   74TIP3   OH2  227   5.365   1.182   2.474
   74TIP3    H1  228   5.428   1.117   2.444
   74TIP3    H2  229   5.335   1.149   2.558
   75TIP3   OH2  230   6.038   1.018   1.331
   75TIP3    H1  231   6.066   0.941   1.380
   75TIP3    H2  232   6.014   1.082   1.398
   76TIP3   OH2  233   2.002   4.807   3.846
   76TIP3    H1  234   2.004   4.898   3.875
   76TIP3    H2  235   2.003   4.812   3.751
   77TIP3   OH2  236   1.918   3.797   2.214
   77TIP3    H1  237   2.004   3.829   2.239
   77TIP3    H2  238   1.935   3.715   2.167
   78TIP3   OH2  239   4.117   2.183   3.078
   78TIP3    H1  240   4.048   2.227   3.126
   78TIP3    H2  241   4.153   2.119   3.140
   79TIP3   OH2  242   3.773   1.028   0.855
   79TIP3    H1  243   3.690   0.988   0.880
   79TIP3    H2  244   3.805   0.972   0.784
   80TIP3   OH2  245   5.187   4.659   0.629
   80TIP3    H1  246   5.167   4.625   0.716
   80TIP3    H2  247   5.108   4.704   0.601
   81TIP3   OH2  248   1.521   3.880   3.869
   81TIP3    H1  249   1.492   3.882   3.778
   81TIP3    H2  250   1.454   3.928   3.917
   82TIP3   OH2  251   0.324   2.484   4.221
   82TIP3    H1  252   0.406   2.458   4.179
   82TIP3    H2  253   0.256   2.440   4.171
   83TIP3   OH2  254   4.940   3.475   2.688
   83TIP3    H1  255   4.950   3.564   2.722
   83TIP3    H2  256   4.891   3.428   2.755
   84TIP3   OH2  257   0.764   3.162   2.777
   84TIP3    H1  258   0.700   3.230   2.756
   84TIP3    H2  259   0.720   3.107   2.842
   85TIP3   OH2  260   0.100   2.123   4.956
   85TIP3    H1  261   0.172   2.061   4.945
   85TIP3    H2  262   0.028   2.071   4.990
   86TIP3   OH2  263   3.580   3.468   1.879
   86TIP3    H1  264   3.487   3.468   1.905
   86TIP3    H2  265   3.600   3.376   1.862
   87TIP3   OH2  266   0.365   3.506   3.301
   87TIP3    H1  267   0.447   3.554   3.289
   87TIP3    H2  268   0.302   3.572   3.329
   88TIP3   OH2  269   2.034   1.651   3.332
   88TIP3    H1  270   2.097   1.615   3.270
   88TIP3    H2  271   2.025   1.743   3.307
   89TIP3   OH2  272   2.554   0.090   0.475
   89TIP3    H1  273   2.631   0.074   0.530
   89TIP3    H2  274   2.508   0.007   0.474
   90TIP3   OH2  275   5.993   5.428   1.984
   90TIP3    H1  276   6.064   5.364   1.978
   90TIP3    H2  277   6.018   5.486   2.055
   91TIP3   OH2  278   1.302   1.917   4.226
   91TIP3    H1  279   1.243   1.931   4.151
   91TIP3    H2  280   1.283   1.828   4.256
   92TIP3   OH2  281   2.580   0.330   4.191
   92TIP3    H1  282   2.577   0.412   4.242
   92TIP3    H2  283   2.573   0.261   4.257
   93TIP3   OH2  284   5.020   4.396   3.290
   93TIP3    H1  285   5.079   4.423   3.219
   93TIP3    H2  286   5.057   4.437   3.368
   94TIP3   OH2  287   4.682   4.397   1.947
   94TIP3    H1  288   4.612   4.415   2.010
   94TIP3    H2  289   4.758   4.378   2.001
   95TIP3   OH2  290   3.441   3.832   3.599
   95TIP3    H1  291   3.440   3.753   3.544
   95TIP3    H2  292   3.490   3.896   3.547
   96TIP3   OH2  293   0.824   5.664   1.170
   96TIP3    H1  294   0.854   5.728   1.106
   96TIP3    H2  295   0.805   5.586   1.118
   97TIP3   OH2  296   0.240   1.251   4.669
   97TIP3    H1  297   0.287   1.249   4.586
   97TIP3    H2  298   0.164   1.196   4.656
   98TIP3   OH2  299   1.553   1.800   3.985
   98TIP3    H1  300   1.491   1.736   4.019
   98TIP3    H2  301   1.637   1.754   3.983
   99TIP3   OH2  302   1.234   1.543   2.040
   99TIP3    H1  303   1.297   1.479   2.005
   99TIP3    H2  304   1.288   1.605   2.089
  100TIP3   OH2  305   5.467   3.410   4.011
  100TIP3    H1  306   5.483   3.425   4.104
  100TIP3    H2  307   5.438   3.318   4.006
  101TIP3   OH2  308   0.978   1.429   3.433
  101TIP3    H1  309   1.007   1.412   3.523
  101TIP3    H2  310   1.020   1.512   3.410
  102TIP3   OH2  311   0.920   4.519   0.191
  102TIP3    H1  312   1.001   4.514   0.141
  102TIP3    H2  313   0.946   4.556   0.275
  103TIP3   OH2  314   1.723   5.272   3.878
  103TIP3    H1  315   1.803   5.273   3.826
  103TIP3    H2  316   1.702   5.179   3.889
  104TIP3   OH2  317   4.861   0.088   0.554
  104TIP3    H1  318   4.780   0.091   0.606
  104TIP3    H2  319   4.839   0.033   0.478
  105TIP3   OH2  320   2.644   5.824   4.301
  105TIP3    H1  321   2.685   5.778   4.374
  105TIP3    H2  322   2.571   5.871   4.341
  106TIP3   OH2  323   0.193   3.139   2.725
  106TIP3    H1  324   0.126   3.124   2.658
  106TIP3    H2  325   0.276   3.118   2.682
  107TIP3   OH2  326   1.114   0.333   2.918
  107TIP3    H1  327   1.205   0.339   2.890
  107TIP3    H2  328   1.095   0.418   2.958
  108TIP3   OH2  329   0.256   2.571   3.549
  108TIP3    H1  330   0.347   2.541   3.545
  108TIP3    H2  331   0.240   2.610   3.463
  109TIP3   OH2  332   4.620   0.739   2.288
  109TIP3    H1  333   4.546   0.711   2.342
  109TIP3    H2  334   4.678   0.784   2.350
  110TIP3   OH2  335   4.048   0.521   3.615
  110TIP3    H1  336   4.011   0.434   3.631
  110TIP3    H2  337   4.141   0.506   3.602
  111TIP3   OH2  338   6.026   4.889   3.145
  111TIP3    H1  339   6.119   4.886   3.164
  111TIP3    H2  340   6.010   4.979   3.115
  112TIP3   OH2  341   5.774   4.439   1.408
  112TIP3    H1  342   5.752   4.432   1.501
  112TIP3    H2  343   5.822   4.521   1.400
  113TIP3   OH2  344   5.712   5.192   2.237
  113TIP3    H1  345   5.805   5.177   2.254
  113TIP3    H2  346   5.668   5.142   2.306
  114TIP3   OH2  347   5.871   1.508   4.064
  114TIP3    H1  348   5.951   1.456   4.066
  114TIP3    H2  349   5.892   1.587   4.114
  115TIP3   OH2  350   4.632   1.911   3.353
  115TIP3    H1  351   4.624   1.990   3.407
  115TIP3    H2  352   4.661   1.942   3.268
  116TIP3   OH2  353   3.246   2.151   1.599
  116TIP3    H1  354   3.309   2.219   1.625
  116TIP3    H2  355   3.300   2.076   1.575
  117TIP3   OH2  356   0.460   0.186   1.162
  117TIP3    H1  357   0.529   0.124   1.138
  117TIP3    H2  358   0.381   0.153   1.119
  118TIP3   OH2  359   3.086   5.224   3.413
  118TIP3    H1  360   2.992   5.227   3.430
  118TIP3    H2  361   3.101   5.136   3.378
  119TIP3   OH2  362   1.697   4.089   0.997
  119TIP3    H1  363   1.754   4.045   0.934
  119TIP3    H2  364   1.706   4.182   0.977
  120TIP3   OH2  365   5.161   2.081   4.946
  120TIP3    H1  366   5.127   1.994   4.924
  120TIP3    H2  367   5.120   2.101   5.030
  121TIP3   OH2  368   5.146   0.689   3.265
  121TIP3    H1  369   5.190   0.711   3.348
  121TIP3    H2  370   5.092   0.613   3.287
  122TIP3   OH2  371   0.339   4.228   4.571
  122TIP3    H1  372   0.365   4.252   4.482
  122TIP3    H2  373   0.246   4.205   4.563
  123TIP3   OH2  374   4.481   2.110   4.361
  123TIP3    H1  375   4.530   2.032   4.339
  123TIP3    H2  376   4.466   2.154   4.277
  124TIP3   OH2  377   3.224   5.051   2.029
  124TIP3    H1  378   3.288   5.025   1.963
  124TIP3    H2  379   3.217   5.146   2.020
  125TIP3   OH2  380   4.094   3.879   1.164
  125TIP3    H1  381   4.187   3.870   1.185
  125TIP3    H2  382   4.050   3.822   1.228
  126TIP3   OH2  383   6.205   4.605   2.402
  126TIP3    H1  384   6.220   4.698   2.386
  126TIP3    H2  385   6.292   4.570   2.424
  127TIP3   OH2  386   1.291   0.325   1.519
  127TIP3    H1  387   1.355   0.393   1.499
  127TIP3    H2  388   1.314   0.296   1.607
  128TIP3   OH2  389   3.226   5.436   2.399
  128TIP3    H1  390   3.259   5.427   2.488
  128TIP3    H2  391   3.217   5.530   2.386
  129TIP3   OH2  392   4.276   2.043   1.337
  129TIP3    H1  393   4.369   2.043   1.314
  129TIP3    H2  394   4.273   2.005   1.425
  130TIP3   OH2  395   5.227   2.784   5.177
  130TIP3    H1  396   5.178   2.789   5.094
  130TIP3    H2  397   5.223   2.691   5.201
  131TIP3   OH2  398   2.232   1.647   4.627
  131TIP3    H1  399   2.267   1.711   4.565
  131TIP3    H2  400   2.289   1.571   4.620
  132TIP3   OH2  401   4.526   2.459   0.616
  132TIP3    H1  402   4.541   2.506   0.698
  132TIP3    H2  403   4.530   2.527   0.548
  133TIP3   OH2  404   3.614   1.296   2.709
  133TIP3    H1  405   3.553   1.223   2.697
  133TIP3    H2  406   3.626   1.330   2.620
  134TIP3   OH2  407   2.852   1.831   4.370
  134TIP3    H1  408   2.930   1.866   4.414
  134TIP3    H2  409   2.854   1.737   4.388
  135TIP3   OH2  410   4.816   1.547   0.865
  135TIP3    H1  411   4.877   1.556   0.938
  135TIP3    H2  412   4.838   1.620   0.807
  136TIP3   OH2  413   5.411   2.888   4.700
  136TIP3    H1  414   5.430   2.952   4.632
  136TIP3    H2  415   5.482   2.824   4.693
  137TIP3   OH2  416   0.201   1.656   0.656
  137TIP3    H1  417   0.248   1.580   0.620
  137TIP3    H2  418   0.109   1.631   0.653
  138TIP3   OH2  419   3.776   5.336   5.005
  138TIP3    H1  420   3.686   5.343   5.037
  138TIP3    H2  421   3.773   5.373   4.917
  139TIP3   OH2  422   5.167   0.008   2.000
  139TIP3    H1  423   5.240   0.054   2.040
  139TIP3    H2  424   5.171   0.032   1.907
  140TIP3   OH2  425   5.617   2.300   2.990
  140TIP3    H1  426   5.688   2.283   3.052
  140TIP3    H2  427   5.660   2.301   2.905
  141TIP3   OH2  428   4.710   0.812   3.083
  141TIP3    H1  429   4.670   0.894   3.111
  141TIP3    H2  430   4.653   0.779   3.014
  142TIP3   OH2  431   4.599   5.128   3.554
  142TIP3    H1  432   4.518   5.076   3.558
  142TIP3    H2  433   4.656   5.089   3.620
  143TIP3   OH2  434   0.277   1.777   1.493
  143TIP3    H1  435   0.199   1.777   1.549
  143TIP3    H2  436   0.334   1.710   1.532
  144TIP3   OH2  437   1.369   5.918   2.188
  144TIP3    H1  438   1.449   5.969   2.174
  144TIP3    H2  439   1.349   5.930   2.281
  145TIP3   OH2  440   6.046   4.099   1.256
  145TIP3    H1  441   6.105   4.164   1.293
  145TIP3    H2  442   5.969   4.101   1.313
  146TIP3   OH2  443   2.598   4.689   5.121
  146TIP3    H1  444   2.592   4.594   5.127
  146TIP3    H2  445   2.517   4.721   5.162
  147TIP3   OH2  446   4.658   3.345   2.546
  147TIP3    H1  447   4.664   3.332   2.451
  147TIP3    H2  448   4.717   3.279   2.583
  148TIP3   OH2  449   0.444   3.095   1.251
  148TIP3    H1  450   0.362   3.083   1.203
  148TIP3    H2  451   0.452   3.016   1.304
  149TIP3   OH2  452   2.647   2.752   3.681
  149TIP3    H1  453   2.618   2.721   3.766
  149TIP3    H2  454   2.645   2.848   3.688
  150TIP3   OH2  455   5.805   0.565   3.038
  150TIP3    H1  456   5.748   0.584   3.112
  150TIP3    H2  457   5.886   0.611   3.058
  151TIP3   OH2  458   4.624   1.215   2.219
  151TIP3    H1  459   4.636   1.229   2.125
  151TIP3    H2  460   4.646   1.299   2.259
  152TIP3   OH2  461   1.068   1.476   0.304
  152TIP3    H1  462   1.091   1.502   0.393
  152TIP3    H2  463   1.107   1.544   0.249
  153TIP3   OH2  464   0.613   0.662   3.476
  153TIP3    H1  465   0.601   0.604   3.401
  153TIP3    H2  466   0.706   0.684   3.475
  154TIP3   OH2  467   0.270   4.508   2.704
  154TIP3    H1  468   0.233   4.422   2.686
  154TIP3    H2  469   0.204   4.552   2.758
  155TIP3   OH2  470   2.277   2.710   0.274
  155TIP3    H1  471   2.188   2.698   0.305
  155TIP3    H2  472   2.322   2.756   0.345
  156TIP3   OH2  473   0.783   2.504   3.972
  156TIP3    H1  474   0.831   2.431   4.011
  156TIP3    H2  475   0.696   2.501   4.013
  157TIP3   OH2  476   2.557   2.896   1.043
  157TIP3    H1  477   2.521   2.871   1.128
  157TIP3    H2  478   2.517   2.981   1.024
  158TIP3   OH2  479   0.891   3.349   0.548
  158TIP3    H1  480   0.986   3.342   0.539
  158TIP3    H2  481   0.865   3.411   0.480
  159TIP3   OH2  482   5.840   2.707   3.341
  159TIP3    H1  483   5.930   2.733   3.359
  159TIP3    H2  484   5.799   2.700   3.427
  160TIP3   OH2  485   5.267   5.478   0.494
  160TIP3    H1  486   5.259   5.389   0.461
  160TIP3    H2  487   5.333   5.519   0.438
  161TIP3   OH2  488   4.230   0.378   2.388
  161TIP3    H1  489   4.219   0.309   2.323
  161TIP3    H2  490   4.198   0.458   2.345
  162TIP3   OH2  491   2.046   3.484   2.366
  162TIP3    H1  492   2.059   3.517   2.277
  162TIP3    H2  493   1.990   3.407   2.355
  163TIP3   OH2  494   2.742   0.831   2.616
  163TIP3    H1  495   2.680   0.766   2.583
  163TIP3    H2  496   2.767   0.798   2.703
  164TIP3   OH2  497   4.663   0.947   1.957
  164TIP3    H1  498   4.619   1.032   1.961
  164TIP3    H2  499   4.597   0.884   1.985
  165TIP3   OH2  500   3.073   1.878   0.146
  165TIP3    H1  501   2.990   1.884   0.098
  165TIP3    H2  502   3.136   1.925   0.091
  166TIP3   OH2  503   1.597   5.940   4.162
  166TIP3    H1  504   1.557   6.026   4.149
  166TIP3    H2  505   1.559   5.885   4.094
  167TIP3   OH2  506   1.199   1.997   5.097
  167TIP3    H1  507   1.104   1.994   5.107
  167TIP3    H2  508   1.230   1.915   5.136
  168TIP3   OH2  509   1.098   1.931   4.045
  168TIP3    H1  510   1.026   1.914   4.107
  168TIP3    H2  511   1.059   1.985   3.977
  169TIP3   OH2  512   3.925   0.971   2.227
  169TIP3    H1  513   3.918   0.888   2.180
  169TIP3    H2  514   3.998   0.958   2.288
  170TIP3   OH2  515   5.628   1.453   2.745
  170TIP3    H1  516   5.659   1.365   2.765
  170TIP3    H2  517   5.625   1.457   2.649
  171TIP3   OH2  518   3.982   4.462   0.062
  171TIP3    H1  519   3.890   4.438   0.073
  171TIP3    H2  520   3.983   4.518  -0.015
  172TIP3   OH2  521   1.753   4.638   2.346
  172TIP3    H1  522   1.818   4.703   2.321
  172TIP3    H2  523   1.762   4.630   2.441
  173TIP3   OH2  524   2.620   1.875   1.581
  173TIP3    H1  525   2.601   1.968   1.574
  173TIP3    H2  526   2.716   1.869   1.573
  174TIP3   OH2  527   5.331   1.667   1.551
  174TIP3    H1  528   5.362   1.665   1.641
  174TIP3    H2  529   5.387   1.605   1.505
  175TIP3   OH2  530   0.258   2.070   0.692
  175TIP3    H1  531   0.311   2.011   0.746
  175TIP3    H2  532   0.178   2.084   0.742
  176TIP3   OH2  533   6.228   3.004   2.828
  176TIP3    H1  534   6.227   3.057   2.748
  176TIP3    H2  535   6.244   2.915   2.798
  177TIP3   OH2  536   5.044   5.790   0.341
  177TIP3    H1  537   5.043   5.701   0.375
  177TIP3    H2  538   5.136   5.807   0.322
  178TIP3   OH2  539   1.900   2.765   1.971
  178TIP3    H1  540   1.961   2.785   1.900
  178TIP3    H2  541   1.850   2.690   1.939
  179TIP3   OH2  542   5.846   1.210   2.057
  179TIP3    H1  543   5.857   1.271   2.130
  179TIP3    H2  544   5.862   1.124   2.096
  180TIP3   OH2  545   0.952   3.621   2.975
  180TIP3    H1  546   0.928   3.655   2.890
  180TIP3    H2  547   0.870   3.590   3.014
  181TIP3   OH2  548   5.941   2.565   4.306
  181TIP3    H1  549   5.932   2.630   4.235
  181TIP3    H2  550   5.971   2.486   4.262
  182TIP3   OH2  551   1.669   1.649   5.106
  182TIP3    H1  552   1.619   1.580   5.061
  182TIP3    H2  553   1.746   1.662   5.051
  183TIP3   OH2  554   0.374   0.651   0.708
  183TIP3    H1  555   0.391   0.639   0.615
  183TIP3    H2  556   0.319   0.729   0.713
  184TIP3   OH2  557   4.768   5.535   1.712
  184TIP3    H1  558   4.783   5.524   1.618
  184TIP3    H2  559   4.721   5.455   1.738
  185TIP3   OH2  560   0.995   0.339   4.474
  185TIP3    H1  561   1.029   0.352   4.562
  185TIP3    H2  562   0.904   0.369   4.479
  186TIP3   OH2  563   4.863   2.789   2.547
  186TIP3    H1  564   4.858   2.708   2.497
  186TIP3    H2  565   4.906   2.765   2.629
  187TIP3   OH2  566   0.125   0.970   1.905
  187TIP3    H1  567   0.107   0.879   1.932
  187TIP3    H2  568   0.209   0.965   1.859
  188TIP3   OH2  569   3.172  -0.011   0.434
  188TIP3    H1  570   3.201  -0.039   0.347
  188TIP3    H2  571   3.136   0.076   0.421
  189TIP3   OH2  572   0.007   5.168   3.315
  189TIP3    H1  573  -0.011   5.247   3.263
  189TIP3    H2  574   0.102   5.164   3.320
  190TIP3   OH2  575   5.378   1.822   2.034
  190TIP3    H1  576   5.461   1.792   2.071
  190TIP3    H2  577   5.315   1.809   2.105
  191TIP3   OH2  578   6.140   0.488   4.969
  191TIP3    H1  579   6.171   0.575   4.996
  191TIP3    H2  580   6.104   0.502   4.882
  192TIP3   OH2  581   2.019   0.575   2.613
  192TIP3    H1  582   2.004   0.649   2.673
  192TIP3    H2  583   2.031   0.500   2.671
  193TIP3   OH2  584   4.683   5.184   4.794
  193TIP3    H1  585   4.740   5.262   4.796
  193TIP3    H2  586   4.719   5.130   4.723
  194TIP3   OH2  587   0.060   0.917   3.938
  194TIP3    H1  588  -0.027   0.878   3.930
  194TIP3    H2  589   0.076   0.958   3.854
  195TIP3   OH2  590   3.381   1.386   0.691
  195TIP3    H1  591   3.336   1.340   0.762
  195TIP3    H2  592   3.474   1.366   0.705
  196TIP3   OH2  593   2.796   5.796   1.845
  196TIP3    H1  594   2.705   5.814   1.821
  196TIP3    H2  595   2.836   5.883   1.853
  197TIP3   OH2  596   4.296   4.747   1.767
  197TIP3    H1  597   4.349   4.681   1.723
  197TIP3    H2  598   4.318   4.829   1.724
  198TIP3   OH2  599   5.877   0.987   1.883
  198TIP3    H1  600   5.842   1.068   1.919
  198TIP3    H2  601   5.942   1.015   1.818
  199TIP3   OH2  602   4.613   4.848   0.579
  199TIP3    H1  603   4.679   4.778   0.579
  199TIP3    H2  604   4.658   4.922   0.619
  200TIP3   OH2  605   6.088   3.635   1.083
  200TIP3    H1  606   6.158   3.676   1.032
  200TIP3    H2  607   6.060   3.561   1.030
  201TIP3   OH2  608   5.737   3.861   4.708
  201TIP3    H1  609   5.707   3.773   4.685
  201TIP3    H2  610   5.731   3.863   4.804
  202TIP3   OH2  611   1.741   4.431   2.203
  202TIP3    H1  612   1.805   4.369   2.236
  202TIP3    H2  613   1.757   4.511   2.253
  203TIP3   OH2  614   2.997   1.445   0.573
  203TIP3    H1  615   2.903   1.431   0.587
  203TIP3    H2  616   3.039   1.386   0.636
  204TIP3   OH2  617   0.667   5.539   2.502
  204TIP3    H1  618   0.631   5.574   2.420
  204TIP3    H2  619   0.644   5.605   2.568
  205TIP3   OH2  620   5.516   0.763   1.379
  205TIP3    H1  621   5.496   0.669   1.377
  205TIP3    H2  622   5.434   0.805   1.356
  206TIP3   OH2  623   0.094   4.562   0.525
  206TIP3    H1  624   0.061   4.500   0.589
  206TIP3    H2  625   0.031   4.557   0.453
  207TIP3   OH2  626   2.861   1.075   3.980
  207TIP3    H1  627   2.870   1.023   4.060
  207TIP3    H2  628   2.845   1.011   3.911
  208TIP3   OH2  629   2.402   2.329   5.030
  208TIP3    H1  630   2.330   2.342   5.091
  208TIP3    H2  631   2.396   2.237   5.005
  209TIP3   OH2  632   1.535   5.504   1.296
  209TIP3    H1  633   1.473   5.524   1.365
  209TIP3    H2  634   1.561   5.590   1.261
  210TIP3   OH2  635   2.680   0.562   2.535
  210TIP3    H1  636   2.675   0.606   2.450
  210TIP3    H2  637   2.764   0.517   2.533
  211TIP3   OH2  638   3.974   3.111   0.271
  211TIP3    H1  639   3.966   3.087   0.178
  211TIP3    H2  640   3.921   3.046   0.317
  212TIP3   OH2  641   2.626   5.163   2.865
  212TIP3    H1  642   2.644   5.082   2.913
  212TIP3    H2  643   2.574   5.216   2.926
  213TIP3   OH2  644   5.760   4.490   4.084
  213TIP3    H1  645   5.793   4.423   4.144
  213TIP3    H2  646   5.708   4.441   4.020
  214TIP3   OH2  647   0.124   1.133   1.112
  214TIP3    H1  648   0.151   1.223   1.133
  214TIP3    H2  649   0.156   1.081   1.186
  215TIP3   OH2  650   0.847   4.967   0.364
  215TIP3    H1  651   0.899   5.034   0.320
  215TIP3    H2  652   0.795   4.928   0.293
  216TIP3   OH2  653   6.198   3.225   2.000
  216TIP3    H1  654   6.280   3.222   1.950
  216TIP3    H2  655   6.141   3.161   1.956
  217TIP3   OH2  656   3.013   2.157   0.333
  217TIP3    H1  657   2.969   2.240   0.350
  217TIP3    H2  658   3.026   2.119   0.420
  218TIP3   OH2  659   2.997   2.462   3.876
  218TIP3    H1  660   3.089   2.450   3.854
  218TIP3    H2  661   2.985   2.415   3.959
  219TIP3   OH2  662   1.543   0.772   5.153
  219TIP3    H1  663   1.553   0.801   5.062
  219TIP3    H2  664   1.516   0.680   5.147
  220TIP3   OH2  665   5.699   2.794   4.478
  220TIP3    H1  666   5.682   2.719   4.422
  220TIP3    H2  667   5.680   2.870   4.423
  221TIP3   OH2  668   1.735   1.214   3.618
  221TIP3    H1  669   1.809   1.264   3.653
  221TIP3    H2  670   1.726   1.139   3.677
  222TIP3   OH2  671   3.842   1.059   3.146
  222TIP3    H1  672   3.808   1.026   3.062
  222TIP3    H2  673   3.764   1.090   3.192
  223TIP3   OH2  674   6.342   4.543   2.814
  223TIP3    H1  675   6.316   4.603   2.884
  223TIP3    H2  676   6.358   4.600   2.739
  224TIP3   OH2  677   2.400   3.204   0.569
  224TIP3    H1  678   2.333   3.198   0.501
  224TIP3    H2  679   2.459   3.274   0.539
  225TIP3   OH2  680   2.445   3.562   0.132
  225TIP3    H1  681   2.414   3.653   0.133
  225TIP3    H2  682   2.504   3.557   0.057
  226TIP3   OH2  683   5.509   4.691   3.391
  226TIP3    H1  684   5.575   4.698   3.322
  226TIP3    H2  685   5.549   4.635   3.458
  227TIP3   OH2  686   1.808   2.165   2.606
  227TIP3    H1  687   1.761   2.237   2.562
  227TIP3    H2  688   1.753   2.142   2.680
  228TIP3   OH2  689   3.277   5.454   1.775
  228TIP3    H1  690   3.264   5.542   1.811
  228TIP3    H2  691   3.200   5.440   1.720
  229TIP3   OH2  692   3.374   3.628   3.419
  229TIP3    H1  693   3.365   3.541   3.459
  229TIP3    H2  694   3.361   3.614   3.326
  230TIP3   OH2  695   0.987   0.336   1.595
  230TIP3    H1  696   1.012   0.257   1.547
  230TIP3    H2  697   1.011   0.408   1.536
  231TIP3   OH2  698   3.936   4.766   0.635
  231TIP3    H1  699   4.020   4.729   0.609
  231TIP3    H2  700   3.900   4.802   0.554
  232TIP3   OH2  701   3.061   4.619   3.338
  232TIP3    H1  702   3.124   4.650   3.273
  232TIP3    H2  703   2.976   4.651   3.307
  233TIP3   OH2  704   1.421   5.626   0.548
  233TIP3    H1  705   1.334   5.657   0.523
  233TIP3    H2  706   1.478   5.703   0.538
  234TIP3   OH2  707   6.079   0.534   3.789
  234TIP3    H1  708   6.044   0.459   3.838
  234TIP3    H2  709   6.167   0.547   3.824
  235TIP3   OH2  710   5.132   3.731   2.701
  235TIP3    H1  711   5.127   3.791   2.627
  235TIP3    H2  712   5.212   3.681   2.686
  236TIP3   OH2  713   2.822   5.820   2.600
  236TIP3    H1  714   2.896   5.878   2.581
  236TIP3    H2  715   2.746   5.878   2.598
  237TIP3   OH2  716   2.495   5.496   1.882
  237TIP3    H1  717   2.509   5.565   1.946
  237TIP3    H2  718   2.412   5.456   1.907
  238TIP3   OH2  719   4.760   3.854   4.143
  238TIP3    H1  720   4.738   3.885   4.231
  238TIP3    H2  721   4.752   3.932   4.088
  239TIP3   OH2  722   4.078   0.531   1.892
  239TIP3    H1  723   4.045   0.460   1.836
  239TIP3    H2  724   4.164   0.552   1.855
  240TIP3   OH2  725   4.021   5.307   4.774
  240TIP3    H1  726   3.948   5.246   4.776
  240TIP3    H2  727   4.076   5.276   4.703
  241TIP3   OH2  728   2.222   4.499   2.851
  241TIP3    H1  729   2.180   4.420   2.816
  241TIP3    H2  730   2.212   4.492   2.945
  242TIP3   OH2  731   3.329   3.805   1.688
  242TIP3    H1  732   3.237   3.829   1.699
  242TIP3    H2  733   3.341   3.729   1.744
  243TIP3   OH2  734   3.376   5.343   2.173
  243TIP3    H1  735   3.333   5.385   2.248
  243TIP3    H2  736   3.310   5.345   2.103
  244TIP3   OH2  737   3.381   1.626   4.478
  244TIP3    H1  738   3.405   1.534   4.476
  244TIP3    H2  739   3.463   1.673   4.460
  245TIP3   OH2  740   3.391   4.102   2.439
  245TIP3    H1  741   3.322   4.110   2.505
  245TIP3    H2  742   3.463   4.154   2.473
  246TIP3   OH2  743   4.431   0.524   0.934
  246TIP3    H1  744   4.523   0.538   0.909
  246TIP3    H2  745   4.431   0.536   1.029
  247TIP3   OH2  746   3.915   3.221   2.264
  247TIP3    H1  747   4.001   3.186   2.242
  247TIP3    H2  748   3.916   3.226   2.360
  248TIP3   OH2  749   3.364   3.198   0.931
  248TIP3    H1  750   3.303   3.236   0.869
  248TIP3    H2  751   3.400   3.272   0.979
  249TIP3   OH2  752   1.767   2.150   4.510
  249TIP3    H1  753   1.829   2.080   4.529
  249TIP3    H2  754   1.789   2.177   4.420
  250TIP3   OH2  755   3.815   5.703   1.085
  250TIP3    H1  756   3.748   5.639   1.108
  250TIP3    H2  757   3.799   5.721   0.992
  251TIP3   OH2  758   4.099   1.981   0.995
  251TIP3    H1  759   4.076   1.924   0.922
  251TIP3    H2  760   4.101   1.923   1.071
  252TIP3   OH2  761   1.816   0.113   4.152
  252TIP3    H1  762   1.727   0.148   4.156
  252TIP3    H2  763   1.817   0.042   4.216
  253TIP3   OH2  764   0.079   3.613   0.961
  253TIP3    H1  765   0.099   3.682   0.899
  253TIP3    H2  766   0.163   3.590   1.000
  254TIP3   OH2  767   2.611   5.494   1.108
  254TIP3    H1  768   2.697   5.509   1.149
  254TIP3    H2  769   2.581   5.581   1.083
  255TIP3   OH2  770   4.118   2.273   4.494
  255TIP3    H1  771   4.026   2.282   4.519
  255TIP3    H2  772   4.116   2.268   4.398
  256TIP3   OH2  773   5.934   0.150   3.552
  256TIP3    H1  774   5.854   0.127   3.504
  256TIP3    H2  775   5.922   0.109   3.638
  257TIP3   OH2  776   0.357   2.529   2.738
  257TIP3    H1  777   0.391   2.445   2.768
  257TIP3    H2  778   0.330   2.574   2.818
  258TIP3   OH2  779   6.363   0.910   4.432
  258TIP3    H1  780   6.303   0.837   4.415
  258TIP3    H2  781   6.323   0.985   4.388
  259TIP3   OH2  782   1.415   2.677   1.847
  259TIP3    H1  783   1.328   2.640   1.828
  259TIP3    H2  784   1.445   2.628   1.924
  260TIP3   OH2  785   5.557   0.421   2.542
  260TIP3    H1  786   5.523   0.471   2.468
  260TIP3    H2  787   5.500   0.444   2.615
  261TIP3   OH2  788   1.200   4.063   3.371
  261TIP3    H1  789   1.193   4.157   3.387
  261TIP3    H2  790   1.244   4.056   3.286
  262TIP3   OH2  791   4.666   3.124   4.640
  262TIP3    H1  792   4.624   3.043   4.610
  262TIP3    H2  793   4.645   3.188   4.572
  263TIP3   OH2  794   4.655   4.067   3.942
  263TIP3    H1  795   4.649   4.160   3.922
  263TIP3    H2  796   4.578   4.049   3.997
  264TIP3   OH2  797   1.676   1.906   4.302
  264TIP3    H1  798   1.608   1.966   4.272
  264TIP3    H2  799   1.653   1.821   4.265
  265TIP3   OH2  800   0.989   0.698   4.315
  265TIP3    H1  801   0.958   0.788   4.329
  265TIP3    H2  802   1.078   0.709   4.280
  266TIP3   OH2  803   3.853   4.219   5.157
  266TIP3    H1  804   3.926   4.158   5.167
  266TIP3    H2  805   3.789   4.191   5.223
  267TIP3   OH2  806   2.051   5.732   1.358
  267TIP3    H1  807   2.137   5.721   1.399
  267TIP3    H2  808   2.011   5.645   1.364
  268TIP3   OH2  809   1.169   0.870   1.664
  268TIP3    H1  810   1.116   0.793   1.641
  268TIP3    H2  811   1.105   0.938   1.686
  269TIP3   OH2  812   5.665   2.071   4.260
  269TIP3    H1  813   5.576   2.063   4.225
  269TIP3    H2  814   5.675   2.165   4.279
  270TIP3   OH2  815   4.321   5.563   1.503
  270TIP3    H1  816   4.405   5.556   1.456
  270TIP3    H2  817   4.327   5.496   1.571
  271TIP3   OH2  818   1.509   2.396   4.772
  271TIP3    H1  819   1.513   2.368   4.681
  271TIP3    H2  820   1.416   2.389   4.795
  272TIP3   OH2  821   2.199   2.775   3.358
  272TIP3    H1  822   2.133   2.706   3.354
  272TIP3    H2  823   2.282   2.730   3.347
  273TIP3   OH2  824   0.592   5.524   0.465
  273TIP3    H1  825   0.568   5.445   0.514
  273TIP3    H2  826   0.609   5.494   0.376
  274TIP3   OH2  827   6.222   0.098   3.644
  274TIP3    H1  828   6.238   0.192   3.635
  274TIP3    H2  829   6.239   0.081   3.737
  275TIP3   OH2  830   4.327   0.058   3.327
  275TIP3    H1  831   4.348   0.021   3.241
  275TIP3    H2  832   4.372   0.001   3.389
  276TIP3   OH2  833   5.323   4.663   4.842
  276TIP3    H1  834   5.395   4.619   4.797
  276TIP3    H2  835   5.347   4.755   4.842
  277TIP3   OH2  836   5.738   3.073   3.907
  277TIP3    H1  837   5.833   3.073   3.892
  277TIP3    H2  838   5.712   2.982   3.896
  278TIP3   OH2  839   0.837   1.031   1.048
  278TIP3    H1  840   0.802   1.065   1.130
  278TIP3    H2  841   0.931   1.049   1.053
  279TIP3   OH2  842   0.210   1.397   2.275
  279TIP3    H1  843   0.232   1.476   2.227
  279TIP3    H2  844   0.131   1.364   2.232
  280TIP3   OH2  845   0.434   0.521   1.762
  280TIP3    H1  846   0.473   0.608   1.749
  280TIP3    H2  847   0.494   0.478   1.824
  281TIP3   OH2  848   4.777   2.247   0.338
  281TIP3    H1  849   4.699   2.241   0.283
  281TIP3    H2  850   4.790   2.340   0.353
  282TIP3   OH2  851   1.559   2.968   4.814
  282TIP3    H1  852   1.645   2.947   4.850
  282TIP3    H2  853   1.519   3.026   4.879
  283TIP3   OH2  854   3.439   5.167   0.123
  283TIP3    H1  855   3.354   5.131   0.095
  283TIP3    H2  856   3.472   5.212   0.045
  284TIP3   OH2  857   1.355   1.804   1.700
  284TIP3    H1  858   1.333   1.727   1.753
  284TIP3    H2  859   1.450   1.803   1.695
  285TIP3   OH2  860   4.861   3.339   1.760
  285TIP3    H1  861   4.918   3.289   1.702
  285TIP3    H2  862   4.838   3.417   1.710
  286TIP3   OH2  863   2.187   1.406   2.604
  286TIP3    H1  864   2.215   1.410   2.696
  286TIP3    H2  865   2.245   1.341   2.564
  287TIP3   OH2  866   6.289   4.593   3.085
  287TIP3    H1  867   6.198   4.617   3.066
  287TIP3    H2  868   6.286   4.558   3.174
  288TIP3   OH2  869   5.972   2.018   2.358
  288TIP3    H1  870   5.964   1.963   2.280
  288TIP3    H2  871   6.000   2.103   2.325
  289TIP3   OH2  872   0.484   0.714   4.337
  289TIP3    H1  873   0.569   0.733   4.296
  289TIP3    H2  874   0.449   0.800   4.359
  290TIP3   OH2  875   4.486   2.834   2.388
  290TIP3    H1  876   4.525   2.774   2.451
  290TIP3    H2  877   4.483   2.918   2.433
  291TIP3   OH2  878   2.920   0.303   2.203
  291TIP3    H1  879   2.894   0.389   2.170
  291TIP3    H2  880   2.914   0.312   2.298
  292TIP3   OH2  881   1.220   1.919   0.238
  292TIP3    H1  882   1.240   1.987   0.302
  292TIP3    H2  883   1.178   1.965   0.166
  293TIP3   OH2  884   3.502   1.614   0.269
  293TIP3    H1  885   3.519   1.707   0.252
  293TIP3    H2  886   3.589   1.574   0.274
  294TIP3   OH2  887   5.136   1.749   2.713
  294TIP3    H1  888   5.189   1.753   2.793
  294TIP3    H2  889   5.058   1.701   2.739
  295TIP3   OH2  890   4.692   5.412   0.298
  295TIP3    H1  891   4.597   5.415   0.292
  295TIP3    H2  892   4.722   5.398   0.209
  296TIP3   OH2  893   1.460   5.733   2.028
  296TIP3    H1  894   1.417   5.814   2.056
  296TIP3    H2  895   1.423   5.665   2.084
  297TIP3   OH2  896   5.001   5.152   4.158
  297TIP3    H1  897   4.953   5.216   4.209
  297TIP3    H2  898   4.951   5.145   4.076
  298TIP3   OH2  899   2.605   4.849   3.783
  298TIP3    H1  900   2.642   4.784   3.842
  298TIP3    H2  901   2.657   4.842   3.703
  299TIP3   OH2  902   2.613   4.243   0.620
  299TIP3    H1  903   2.555   4.304   0.573
  299TIP3    H2  904   2.658   4.195   0.551
  300TIP3   OH2  905   2.476   5.359   0.792
  300TIP3    H1  906   2.482   5.317   0.878
  300TIP3    H2  907   2.402   5.419   0.801
  301TIP3   OH2  908   2.063   1.789   3.815
  301TIP3    H1  909   2.017   1.749   3.889
  301TIP3    H2  910   1.994   1.831   3.765
  302TIP3   OH2  911   5.350   1.639   2.575
  302TIP3    H1  912   5.267   1.669   2.612
  302TIP3    H2  913   5.405   1.620   2.651
  303TIP3   OH2  914   5.951   1.043   0.541
  303TIP3    H1  915   6.029   1.039   0.486
  303TIP3    H2  916   5.879   1.056   0.479
  304TIP3   OH2  917   6.254   5.651   2.950
  304TIP3    H1  918   6.282   5.695   2.870
  304TIP3    H2  919   6.261   5.717   3.018
  305TIP3   OH2  920   4.656   5.430   2.150
  305TIP3    H1  921   4.622   5.368   2.214
  305TIP3    H2  922   4.593   5.502   2.149
  306TIP3   OH2  923   2.113   0.683   2.246
  306TIP3    H1  924   2.118   0.590   2.270
  306TIP3    H2  925   2.053   0.722   2.309
  307TIP3   OH2  926   3.860   1.182   4.479
  307TIP3    H1  927   3.950   1.151   4.467
  307TIP3    H2  928   3.821   1.178   4.391
  308TIP3   OH2  929   5.727   0.112   4.288
  308TIP3    H1  930   5.766   0.063   4.360
  308TIP3    H2  931   5.707   0.198   4.325
  309TIP3   OH2  932   5.481   0.109   2.077
  309TIP3    H1  933   5.507   0.111   2.169
  309TIP3    H2  934   5.532   0.036   2.040
  310TIP3   OH2  935   6.038   4.795   4.193
  310TIP3    H1  936   6.040   4.732   4.266
  310TIP3    H2  937   6.016   4.743   4.116
  311TIP3   OH2  938   5.310   0.769   2.506
  311TIP3    H1  939   5.275   0.854   2.479
  311TIP3    H2  940   5.344   0.784   2.595
  312TIP3   OH2  941   2.098   4.213   2.795
  312TIP3    H1  942   2.012   4.174   2.779
  312TIP3    H2  943   2.118   4.190   2.886
  313TIP3   OH2  944   4.949   3.236   2.309
  313TIP3    H1  945   5.024   3.236   2.249
  313TIP3    H2  946   4.988   3.242   2.396
  314TIP3   OH2  947   4.037   5.226   3.166
  314TIP3    H1  948   3.951   5.213   3.125
  314TIP3    H2  949   4.044   5.155   3.230
  315TIP3   OH2  950   3.763   0.147   3.830
  315TIP3    H1  951   3.764   0.151   3.734
  315TIP3    H2  952   3.840   0.096   3.852
  316TIP3   OH2  953   4.249   5.439   1.207
  316TIP3    H1  954   4.177   5.377   1.194
  316TIP3    H2  955   4.207   5.517   1.245
  317TIP3   OH2  956   1.304   3.719   3.491
  317TIP3    H1  957   1.319   3.812   3.508
  317TIP3    H2  958   1.366   3.674   3.549
  318TIP3   OH2  959   2.060   5.104   3.105
  318TIP3    H1  960   2.013   5.037   3.056
  318TIP3    H2  961   2.002   5.126   3.178
  319TIP3   OH2  962   2.898   4.809   3.165
  319TIP3    H1  963   2.819   4.756   3.151
  319TIP3    H2  964   2.897   4.871   3.092
  320TIP3   OH2  965   3.027   3.156   0.803
  320TIP3    H1  966   2.936   3.145   0.775
  320TIP3    H2  967   3.022   3.164   0.898
  321TIP3   OH2  968   1.219   1.217   0.140
  321TIP3    H1  969   1.152   1.282   0.158
  321TIP3    H2  970   1.174   1.148   0.091
  322TIP3   OH2  971   4.811   2.839   3.329
  322TIP3    H1  972   4.741   2.835   3.263
  322TIP3    H2  973   4.799   2.924   3.371
  323TIP3   OH2  974   4.363   1.335   2.617
  323TIP3    H1  975   4.351   1.425   2.646
  323TIP3    H2  976   4.453   1.331   2.586
  324TIP3   OH2  977   4.456   1.954   2.427
  324TIP3    H1  978   4.417   1.915   2.505
  324TIP3    H2  979   4.383   1.994   2.381
  325TIP3   OH2  980   4.422   3.811   0.795
  325TIP3    H1  981   4.453   3.726   0.828
  325TIP3    H2  982   4.329   3.812   0.816
  326TIP3   OH2  983   4.161   1.041   2.643
  326TIP3    H1  984   4.157   1.096   2.721
  326TIP3    H2  985   4.075   1.051   2.602
  327TIP3   OH2  986   4.961   4.936   0.525
  327TIP3    H1  987   4.903   4.859   0.521
  327TIP3    H2  988   4.968   4.955   0.619
  328TIP3   OH2  989   5.172   2.347   0.783
  328TIP3    H1  990   5.137   2.379   0.700
  328TIP3    H2  991   5.216   2.265   0.761
  329TIP3   OH2  992   4.987   4.403   4.626
  329TIP3    H1  993   4.941   4.469   4.574
  329TIP3    H2  994   4.921   4.369   4.686
  330TIP3   OH2  995   3.559   2.486   5.021
  330TIP3    H1  996   3.608   2.554   4.975
  330TIP3    H2  997   3.591   2.404   4.984
  331TIP3   OH2  998   3.524   2.237   3.720
  331TIP3    H1  999   3.486   2.242   3.633
  331TIP3    H2 1000   3.465   2.178   3.768
  332TIP3   OH2 1001   1.665   2.605   0.457
  332TIP3    H1 1002   1.621   2.533   0.502
  332TIP3    H2 1003   1.677   2.672   0.524
  333TIP3   OH2 1004   3.455   2.291   1.969
  333TIP3    H1 1005   3.418   2.205   1.949
  333TIP3    H2 1006   3.388   2.333   2.024
  334TIP3   OH2 1007   5.373   4.489   0.841
  334TIP3    H1 1008   5.365   4.422   0.773
  334TIP3    H2 1009   5.320   4.455   0.914
  335TIP3   OH2 1010   1.535   2.308   4.102
  335TIP3    H1 1011   1.458   2.324   4.157
  335TIP3    H2 1012   1.506   2.243   4.038
  336TIP3   OH2 1013   4.592   0.237   1.990
  336TIP3    H1 1014   4.636   0.321   1.972
  336TIP3    H2 1015   4.610   0.220   2.082
  337TIP3   OH2 1016   0.619   3.633   0.735
  337TIP3    H1 1017   0.585   3.721   0.753
  337TIP3    H2 1018   0.616   3.625   0.640
  338TIP3   OH2 1019   5.324   2.890   4.323
  338TIP3    H1 1020   5.376   2.947   4.380
  338TIP3    H2 1021   5.249   2.944   4.298
  339TIP3   OH2 1022   3.262   1.962   3.345
  339TIP3    H1 1023   3.173   1.934   3.365
  339TIP3    H2 1024   3.313   1.882   3.344
  340TIP3   OH2 1025   0.290   1.649   0.193
  340TIP3    H1 1026   0.305   1.743   0.185
  340TIP3    H2 1027   0.378   1.612   0.204
  341TIP3   OH2 1028   3.770   1.002   2.893
  341TIP3    H1 1029   3.706   0.932   2.880
  341TIP3    H2 1030   3.735   1.075   2.843
  342TIP3   OH2 1031   3.268   1.045   0.559
  342TIP3    H1 1032   3.276   1.126   0.611
  342TIP3    H2 1033   3.263   1.076   0.469
  343TIP3   OH2 1034   6.055   4.767   2.606
  343TIP3    H1 1035   6.075   4.844   2.660
  343TIP3    H2 1036   6.140   4.737   2.575
  344TIP3   OH2 1037   0.479   5.858   1.075
  344TIP3    H1 1038   0.414   5.925   1.052
  344TIP3    H2 1039   0.525   5.839   0.993
  345TIP3   OH2 1040   0.744   5.078   3.896
  345TIP3    H1 1041   0.746   5.164   3.854
  345TIP3    H2 1042   0.771   5.017   3.828
  346TIP3   OH2 1043   4.888   0.843   4.381
  346TIP3    H1 1044   4.871   0.799   4.464
  346TIP3    H2 1045   4.809   0.895   4.365
  347TIP3   OH2 1046   0.338   2.261   4.953
  347TIP3    H1 1047   0.258   2.209   4.968
  347TIP3    H2 1048   0.306   2.351   4.945
  348TIP3   OH2 1049   5.908   1.459   1.082
  348TIP3    H1 1050   5.931   1.376   1.040
  348TIP3    H2 1051   5.852   1.503   1.019
  349TIP3   OH2 1052   5.012   4.985   2.124
  349TIP3    H1 1053   5.043   4.898   2.147
  349TIP3    H2 1054   5.071   5.014   2.054
  350TIP3   OH2 1055   2.819   4.980   0.893
  350TIP3    H1 1056   2.844   4.912   0.956
  350TIP3    H2 1057   2.797   5.056   0.948
  351TIP3   OH2 1058   6.246   0.690   2.812
  351TIP3    H1 1059   6.269   0.655   2.898
  351TIP3    H2 1060   6.262   0.618   2.751
  352TIP3   OH2 1061   1.794   0.569   3.352
  352TIP3    H1 1062   1.708   0.585   3.314
  352TIP3    H2 1063   1.785   0.591   3.444
  353TIP3   OH2 1064   4.170   3.412   2.407
  353TIP3    H1 1065   4.236   3.361   2.361
  353TIP3    H2 1066   4.128   3.465   2.339
  354TIP3   OH2 1067   5.373   5.347   3.644
  354TIP3    H1 1068   5.368   5.405   3.720
  354TIP3    H2 1069   5.410   5.401   3.574
  355TIP3   OH2 1070   0.857   5.519   0.563
  355TIP3    H1 1071   0.788   5.565   0.514
  355TIP3    H2 1072   0.911   5.589   0.600
  356TIP3   OH2 1073   4.486   2.444   3.971
  356TIP3    H1 1074   4.464   2.446   3.877
  356TIP3    H2 1075   4.424   2.505   4.011
  357TIP3   OH2 1076   3.506   2.783   4.817
  357TIP3    H1 1077   3.430   2.770   4.760
  357TIP3    H2 1078   3.569   2.717   4.789
  358TIP3   OH2 1079   2.527   1.673   4.453
  358TIP3    H1 1080   2.449   1.714   4.415
  358TIP3    H2 1081   2.600   1.718   4.412
  359TIP3   OH2 1082   4.187   5.068   1.005
  359TIP3    H1 1083   4.126   5.080   0.931
  359TIP3    H2 1084   4.145   5.113   1.078
  360TIP3   OH2 1085   5.882   0.387   2.458
  360TIP3    H1 1086   5.789   0.368   2.449
  360TIP3    H2 1087   5.917   0.312   2.506
  361TIP3   OH2 1088   4.664   4.813   5.061
  361TIP3    H1 1089   4.657   4.718   5.074
  361TIP3    H2 1090   4.579   4.847   5.091
  362TIP3   OH2 1091   4.124   1.608   2.111
  362TIP3    H1 1092   4.208   1.600   2.157
  362TIP3    H2 1093   4.114   1.526   2.064
  363TIP3   OH2 1094   1.014   0.647   0.852
  363TIP3    H1 1095   0.941   0.707   0.860
  363TIP3    H2 1096   1.085   0.699   0.813
  364TIP3   OH2 1097   1.021   1.187   2.516
  364TIP3    H1 1098   1.097   1.185   2.459
  364TIP3    H2 1099   0.960   1.124   2.478
  365TIP3   OH2 1100   1.868   3.851   0.236
  365TIP3    H1 1101   1.859   3.769   0.285
  365TIP3    H2 1102   1.844   3.919   0.299
  366TIP3   OH2 1103   1.658   1.001   0.820
  366TIP3    H1 1104   1.751   1.008   0.844
  366TIP3    H2 1105   1.659   0.987   0.725
  367TIP3   OH2 1106   0.494   0.443   4.007
  367TIP3    H1 1107   0.489   0.441   3.912
  367TIP3    H2 1108   0.584   0.415   4.027
  368TIP3   OH2 1109   2.030   3.827   2.570
  368TIP3    H1 1110   2.007   3.919   2.585
  368TIP3    H2 1111   2.093   3.829   2.499
  369TIP3   OH2 1112   5.744   1.794   4.725
  369TIP3    H1 1113   5.795   1.790   4.645
  369TIP3    H2 1114   5.792   1.855   4.782
  370TIP3   OH2 1115   0.390   3.791   4.344
  370TIP3    H1 1116   0.435   3.875   4.340
  370TIP3    H2 1117   0.433   3.737   4.278
  371TIP3   OH2 1118   1.279   0.532   3.374
  371TIP3    H1 1119   1.239   0.481   3.304
  371TIP3    H2 1120   1.250   0.622   3.358
  372TIP3   OH2 1121   4.362   2.705   2.781
  372TIP3    H1 1122   4.388   2.642   2.848
  372TIP3    H2 1123   4.268   2.692   2.771
  373TIP3   OH2 1124   4.058   1.873   0.489
  373TIP3    H1 1125   4.069   1.940   0.421
  373TIP3    H2 1126   4.082   1.791   0.446
  374TIP3   OH2 1127   4.004   2.111   1.362
  374TIP3    H1 1128   4.087   2.068   1.342
  374TIP3    H2 1129   4.026   2.203   1.375
  375TIP3   OH2 1130   1.729   2.398   5.023
  375TIP3    H1 1131   1.717   2.435   4.936
  375TIP3    H2 1132   1.775   2.466   5.072
  376TIP3   OH2 1133   6.314   2.335   5.105
  376TIP3    H1 1134   6.365   2.274   5.052
  376TIP3    H2 1135   6.235   2.352   5.053
  377TIP3   OH2 1136   4.591   2.539   4.757
  377TIP3    H1 1137   4.643   2.461   4.736
  377TIP3    H2 1138   4.652   2.596   4.803
  378TIP3   OH2 1139   5.200   5.936   3.800
  378TIP3    H1 1140   5.227   5.910   3.712
  378TIP3    H2 1141   5.281   5.932   3.852
  379TIP3   OH2 1142   6.015   0.255   1.496
  379TIP3    H1 1143   6.062   0.220   1.420
  379TIP3    H2 1144   5.942   0.194   1.508
  380TIP3   OH2 1145   2.798   4.642   4.926
  380TIP3    H1 1146   2.872   4.672   4.980
  380TIP3    H2 1147   2.727   4.630   4.989
  381TIP3   OH2 1148   2.587   2.563   5.052
  381TIP3    H1 1149   2.642   2.640   5.047
  381TIP3    H2 1150   2.499   2.597   5.070
  382TIP3   OH2 1151   1.238   1.201   2.324
  382TIP3    H1 1152   1.313   1.193   2.265
  382TIP3    H2 1153   1.248   1.129   2.385
  383TIP3   OH2 1154   5.416   3.817   0.597
  383TIP3    H1 1155   5.390   3.862   0.677
  383TIP3    H2 1156   5.374   3.866   0.526
  384TIP3   OH2 1157   5.432   1.119   2.995
  384TIP3    H1 1158   5.392   1.084   3.075
  384TIP3    H2 1159   5.521   1.084   2.996
  385TIP3   OH2 1160   1.160   2.473   1.524
  385TIP3    H1 1161   1.190   2.428   1.446
  385TIP3    H2 1162   1.067   2.491   1.509
  386TIP3   OH2 1163   4.255   2.529   1.416
  386TIP3    H1 1164   4.345   2.495   1.420
  386TIP3    H2 1165   4.237   2.558   1.506
  387TIP3   OH2 1166   3.062   3.854   4.554
  387TIP3    H1 1167   2.982   3.904   4.574
  387TIP3    H2 1168   3.038   3.763   4.570
  388TIP3   OH2 1169   4.420   3.998   4.384
  388TIP3    H1 1170   4.372   4.081   4.381
  388TIP3    H2 1171   4.455   3.994   4.473
  389TIP3   OH2 1172   5.816   4.741   1.807
  389TIP3    H1 1173   5.897   4.788   1.788
  389TIP3    H2 1174   5.750   4.811   1.816
  390TIP3   OH2 1175   5.851   0.113   3.816
  390TIP3    H1 1176   5.892   0.074   3.893
  390TIP3    H2 1177   5.758   0.094   3.827
  391TIP3   OH2 1178   3.960   0.073   1.747
  391TIP3    H1 1179   4.039   0.033   1.783
  391TIP3    H2 1180   3.889   0.019   1.780
  392TIP3   OH2 1181   2.655   2.310   2.078
  392TIP3    H1 1182   2.614   2.319   2.164
  392TIP3    H2 1183   2.598   2.250   2.030
  393TIP3   OH2 1184   6.179   2.086   0.094
  393TIP3    H1 1185   6.144   2.073   0.182
  393TIP3    H2 1186   6.242   2.157   0.103
  394TIP3   OH2 1187   0.472   3.049   2.238
  394TIP3    H1 1188   0.455   2.957   2.260
  394TIP3    H2 1189   0.548   3.046   2.180
  395TIP3   OH2 1190   5.140   1.849   4.146
  395TIP3    H1 1191   5.050   1.873   4.166
  395TIP3    H2 1192   5.133   1.775   4.086
  396TIP3   OH2 1193   0.855   3.097   1.954
  396TIP3    H1 1194   0.939   3.114   1.910
  396TIP3    H2 1195   0.872   3.020   2.008
  397TIP3   OH2 1196   2.787   5.414   3.732
  397TIP3    H1 1197   2.847   5.488   3.736
  397TIP3    H2 1198   2.795   5.372   3.818
  398TIP3   OH2 1199   6.272   4.885   2.348
  398TIP3    H1 1200   6.355   4.897   2.303
  398TIP3    H2 1201   6.262   4.964   2.401
  399TIP3   OH2 1202   2.789   2.261   2.409
  399TIP3    H1 1203   2.711   2.242   2.357
  399TIP3    H2 1204   2.850   2.190   2.387
  400TIP3   OH2 1205   4.470   3.582   3.515
  400TIP3    H1 1206   4.398   3.542   3.467
  400TIP3    H2 1207   4.548   3.564   3.463
  401TIP3   OH2 1208   4.044   2.579   0.533
  401TIP3    H1 1209   4.111   2.524   0.575
  401TIP3    H2 1210   3.962   2.533   0.551
  402TIP3   OH2 1211   4.994   0.936   0.151
  402TIP3    H1 1212   4.928   0.942   0.081
  402TIP3    H2 1213   5.008   0.842   0.161
  403TIP3   OH2 1214   2.763   1.343   3.473
  403TIP3    H1 1215   2.742   1.305   3.558
  403TIP3    H2 1216   2.685   1.393   3.449
  404TIP3   OH2 1217   5.508   1.561   3.505
  404TIP3    H1 1218   5.541   1.489   3.559
  404TIP3    H2 1219   5.412   1.554   3.512
  405TIP3   OH2 1220   4.132   1.222   1.192
  405TIP3    H1 1221   4.067   1.156   1.169
  405TIP3    H2 1222   4.195   1.176   1.248
  406TIP3   OH2 1223   4.411   5.966   1.557
  406TIP3    H1 1224   4.488   5.911   1.546
  406TIP3    H2 1225   4.440   6.054   1.533
  407TIP3   OH2 1226   2.954   1.462   0.216
  407TIP3    H1 1227   2.914   1.452   0.129
  407TIP3    H2 1228   2.938   1.379   0.259
  408TIP3   OH2 1229   1.894   1.773   2.996
  408TIP3    H1 1230   1.857   1.686   3.015
  408TIP3    H2 1231   1.825   1.834   3.021
  409TIP3   OH2 1232   0.325   0.870   4.764
  409TIP3    H1 1233   0.341   0.915   4.847
  409TIP3    H2 1234   0.284   0.787   4.790
  410TIP3   OH2 1235   2.814   3.526   4.868
  410TIP3    H1 1236   2.861   3.474   4.803
  410TIP3    H2 1237   2.839   3.487   4.952
  411TIP3   OH2 1238   5.206   0.110   4.540
  411TIP3    H1 1239   5.275   0.052   4.508
  411TIP3    H2 1240   5.136   0.103   4.475
  412TIP3   OH2 1241   0.575   1.472   2.332
  412TIP3    H1 1242   0.545   1.384   2.353
  412TIP3    H2 1243   0.665   1.460   2.302
  413TIP3   OH2 1244   3.665   4.344   3.244
  413TIP3    H1 1245   3.684   4.429   3.283
  413TIP3    H2 1246   3.681   4.357   3.150
  414TIP3   OH2 1247   1.222   1.207   3.081
  414TIP3    H1 1248   1.268   1.160   3.011
  414TIP3    H2 1249   1.136   1.227   3.043
  415TIP3   OH2 1250   1.044   3.288   4.350
  415TIP3    H1 1251   1.001   3.368   4.321
  415TIP3    H2 1252   1.049   3.234   4.270
  416TIP3   OH2 1253   5.934   2.437   3.925
  416TIP3    H1 1254   5.953   2.351   3.887
  416TIP3    H2 1255   6.000   2.449   3.993
  417TIP3   OH2 1256   1.673   5.393   4.360
  417TIP3    H1 1257   1.662   5.388   4.265
  417TIP3    H2 1258   1.620   5.467   4.387
  418TIP3   OH2 1259   2.755   1.484   0.726
  418TIP3    H1 1260   2.762   1.565   0.777
  418TIP3    H2 1261   2.661   1.475   0.709
  419TIP3   OH2 1262   4.038   1.583   4.553
  419TIP3    H1 1263   4.026   1.625   4.639
  419TIP3    H2 1264   4.096   1.643   4.506
  420TIP3   OH2 1265   2.043   3.825   1.483
  420TIP3    H1 1266   2.050   3.730   1.474
  420TIP3    H2 1267   2.029   3.839   1.577
  421TIP3   OH2 1268   4.307   0.851   4.953
  421TIP3    H1 1269   4.301   0.855   4.857
  421TIP3    H2 1270   4.369   0.921   4.976
  422TIP3   OH2 1271   2.040   2.936   1.454
  422TIP3    H1 1272   2.090   2.855   1.468
  422TIP3    H2 1273   2.013   2.932   1.363
  423TIP3   OH2 1274   5.128   1.462   1.013
  423TIP3    H1 1275   5.197   1.495   1.070
  423TIP3    H2 1276   5.175   1.410   0.947
  424TIP3   OH2 1277   4.266   3.205   1.985
  424TIP3    H1 1278   4.274   3.110   1.999
  424TIP3    H2 1279   4.215   3.214   1.905
  425TIP3   OH2 1280   2.619   4.208   0.323
  425TIP3    H1 1281   2.528   4.203   0.354
  425TIP3    H2 1282   2.645   4.298   0.342
  426TIP3   OH2 1283   0.059   1.076   4.963
  426TIP3    H1 1284   0.093   1.091   4.875
  426TIP3    H2 1285   0.116   1.009   5.000
  427TIP3   OH2 1286   0.288   4.085   1.648
  427TIP3    H1 1287   0.328   4.091   1.735
  427TIP3    H2 1288   0.332   4.012   1.606
  428TIP3   OH2 1289   2.971   4.728   4.133
  428TIP3    H1 1290   2.970   4.823   4.148
  428TIP3    H2 1291   3.064   4.705   4.131
  429TIP3   OH2 1292   6.027   3.632   3.808
  429TIP3    H1 1293   6.074   3.549   3.803
  429TIP3    H2 1294   6.045   3.674   3.724
  430TIP3   OH2 1295   3.860   4.549   1.964
  430TIP3    H1 1296   3.775   4.540   1.922
  430TIP3    H2 1297   3.920   4.571   1.893
  431TIP3   OH2 1298   5.687   1.085   4.521
  431TIP3    H1 1299   5.754   1.130   4.573
  431TIP3    H2 1300   5.630   1.154   4.489
  432TIP3   OH2 1301   5.311   5.659   4.578
  432TIP3    H1 1302   5.348   5.664   4.666
  432TIP3    H2 1303   5.216   5.660   4.593
  433TIP3   OH2 1304   1.488   2.323   1.542
  433TIP3    H1 1305   1.495   2.230   1.521
  433TIP3    H2 1306   1.570   2.343   1.588
  434TIP3   OH2 1307   4.767   3.539   5.019
  434TIP3    H1 1308   4.716   3.463   5.047
  434TIP3    H2 1309   4.779   3.591   5.099
  435TIP3   OH2 1310   0.272   5.068   1.759
  435TIP3    H1 1311   0.313   5.116   1.687
  435TIP3    H2 1312   0.256   4.980   1.724
  436TIP3   OH2 1313   2.621   1.287   0.315
  436TIP3    H1 1314   2.601   1.377   0.342
  436TIP3    H2 1315   2.550   1.235   0.352
  437TIP3   OH2 1316   1.908   2.184   2.076
  437TIP3    H1 1317   1.860   2.153   2.153
  437TIP3    H2 1318   1.841   2.200   2.010
  438TIP3   OH2 1319   4.639   4.561   2.708
  438TIP3    H1 1320   4.717   4.573   2.761
  438TIP3    H2 1321   4.584   4.638   2.728
  439TIP3   OH2 1322   2.627   3.938   3.494
  439TIP3    H1 1323   2.540   3.977   3.485
  439TIP3    H2 1324   2.657   3.964   3.581
  440TIP3   OH2 1325   4.920   0.434   0.045
  440TIP3    H1 1326   4.900   0.405   0.134
  440TIP3    H2 1327   5.016   0.432   0.040
  441TIP3   OH2 1328   6.105   0.177   1.876
  441TIP3    H1 1329   6.090   0.214   1.788
  441TIP3    H2 1330   6.031   0.207   1.928
  442TIP3   OH2 1331   4.463   2.223   4.607
  442TIP3    H1 1332   4.463   2.146   4.551
  442TIP3    H2 1333   4.446   2.296   4.548
  443TIP3   OH2 1334   4.680   3.336   4.443
  443TIP3    H1 1335   4.589   3.333   4.416
  443TIP3    H2 1336   4.684   3.407   4.507
  444TIP3   OH2 1337   3.094   1.906   1.533
  444TIP3    H1 1338   3.099   1.978   1.470
  444TIP3    H2 1339   3.185   1.878   1.545
  445TIP3   OH2 1340   0.605   2.619   0.883
  445TIP3    H1 1341   0.690   2.647   0.917
  445TIP3    H2 1342   0.586   2.538   0.930
  446TIP3   OH2 1343   4.148   1.170   0.902
  446TIP3    H1 1344   4.195   1.088   0.886
  446TIP3    H2 1345   4.182   1.201   0.986
  447TIP3   OH2 1346   2.554   0.188   2.888
  447TIP3    H1 1347   2.630   0.233   2.851
  447TIP3    H2 1348   2.488   0.191   2.818
  448TIP3   OH2 1349   0.865   3.535   4.670
  448TIP3    H1 1350   0.843   3.517   4.762
  448TIP3    H2 1351   0.948   3.584   4.675
  449TIP3   OH2 1352   0.029   5.416   0.409
  449TIP3    H1 1353   0.091   5.440   0.340
  449TIP3    H2 1354   0.074   5.438   0.491
  450TIP3   OH2 1355   0.514   3.240   4.194
  450TIP3    H1 1356   0.495   3.148   4.208
  450TIP3    H2 1357   0.428   3.283   4.196
  451TIP3   OH2 1358   2.853   2.011   1.670
  451TIP3    H1 1359   2.937   1.979   1.636
  451TIP3    H2 1360   2.857   2.106   1.660
  452TIP3   OH2 1361   0.658   3.894   0.919
  452TIP3    H1 1362   0.581   3.889   0.976
  452TIP3    H2 1363   0.657   3.985   0.887
  453TIP3   OH2 1364   0.285   2.299   0.894
  453TIP3    H1 1365   0.293   2.369   0.829
  453TIP3    H2 1366   0.318   2.221   0.850
  454TIP3   OH2 1367   0.701   4.145   4.023
  454TIP3    H1 1368   0.669   4.232   4.048
  454TIP3    H2 1369   0.784   4.163   3.978
  455TIP3   OH2 1370   4.209   5.700   5.087
  455TIP3    H1 1371   4.174   5.742   5.166
  455TIP3    H2 1372   4.136   5.647   5.054
  456TIP3   OH2 1373   3.589   3.980   1.921
  456TIP3    H1 1374   3.659   4.045   1.929
  456TIP3    H2 1375   3.536   4.011   1.848
  457TIP3   OH2 1376   4.927   5.079   0.311
  457TIP3    H1 1377   4.838   5.073   0.278
  457TIP3    H2 1378   4.926   5.029   0.393
  458TIP3   OH2 1379   6.300   5.238   1.423
  458TIP3    H1 1380   6.308   5.333   1.414
  458TIP3    H2 1381   6.208   5.224   1.448
  459TIP3   OH2 1382   0.068   1.183   0.290
  459TIP3    H1 1383   0.050   1.140   0.207
  459TIP3    H2 1384  -0.009   1.166   0.344
  460TIP3   OH2 1385   2.108   2.001   2.431
  460TIP3    H1 1386   2.121   2.037   2.343
  460TIP3    H2 1387   2.017   1.972   2.431
  461TIP3   OH2 1388   5.864   5.574   4.427
  461TIP3    H1 1389   5.916   5.493   4.425
  461TIP3    H2 1390   5.775   5.546   4.405
  462TIP3   OH2 1391   6.183   5.789   4.944
  462TIP3    H1 1392   6.207   5.868   4.896
  462TIP3    H2 1393   6.095   5.808   4.978
  463TIP3   OH2 1394   6.191   3.835   0.029
  463TIP3    H1 1395   6.234   3.916   0.058
  463TIP3    H2 1396   6.261   3.771   0.022
  464TIP3   OH2 1397   3.901   4.040   1.925
  464TIP3    H1 1398   3.945   4.032   2.009
  464TIP3    H2 1399   3.898   3.951   1.891
  465TIP3   OH2 1400   5.686   2.249   0.407
  465TIP3    H1 1401   5.646   2.323   0.452
  465TIP3    H2 1402   5.670   2.264   0.314
  466TIP3   OH2 1403   2.786   3.970   5.001
  466TIP3    H1 1404   2.814   4.014   4.921
  466TIP3    H2 1405   2.843   4.006   5.069
  467TIP3   OH2 1406   3.553   3.352   0.290
  467TIP3    H1 1407   3.458   3.361   0.296
  467TIP3    H2 1408   3.579   3.316   0.376
  468TIP3   OH2 1409   0.196   3.880   4.856
  468TIP3    H1 1410   0.254   3.937   4.805
  468TIP3    H2 1411   0.239   3.795   4.854
  469TIP3   OH2 1412   1.192   5.695   1.880
  469TIP3    H1 1413   1.172   5.767   1.940
  469TIP3    H2 1414   1.275   5.659   1.912
  470TIP3   OH2 1415   2.567   4.734   1.414
  470TIP3    H1 1416   2.619   4.672   1.464
  470TIP3    H2 1417   2.579   4.818   1.460
  471TIP3   OH2 1418   4.102   3.903   2.463
  471TIP3    H1 1419   4.017   3.882   2.502
  471TIP3    H2 1420   4.144   3.960   2.527
  472TIP3   OH2 1421   4.774   4.903   2.792
  472TIP3    H1 1422   4.791   4.899   2.698
  472TIP3    H2 1423   4.860   4.899   2.833
  473TIP3   OH2 1424   0.656   2.398   5.132
  473TIP3    H1 1425   0.736   2.410   5.081
  473TIP3    H2 1426   0.657   2.305   5.157
  474TIP3   OH2 1427   5.833   3.381   4.895
  474TIP3    H1 1428   5.841   3.290   4.926
  474TIP3    H2 1429   5.738   3.397   4.896
  475TIP3   OH2 1430   0.944   0.402   2.562
  475TIP3    H1 1431   0.921   0.343   2.634
  475TIP3    H2 1432   0.882   0.475   2.571
  476TIP3   OH2 1433   0.920   4.849   2.708
  476TIP3    H1 1434   0.848   4.796   2.741
  476TIP3    H2 1435   0.884   4.937   2.698
  477TIP3   OH2 1436   2.955   0.094   4.192
  477TIP3    H1 1437   2.925   0.016   4.239
  477TIP3    H2 1438   2.992   0.151   4.260
  478TIP3   OH2 1439   2.294   1.457   0.204
  478TIP3    H1 1440   2.357   1.491   0.267
  478TIP3    H2 1441   2.263   1.375   0.244
  479TIP3   OH2 1442   2.931   3.776   3.118
  479TIP3    H1 1443   2.988   3.768   3.195
  479TIP3    H2 1444   2.846   3.802   3.154
  480TIP3   OH2 1445   3.393   3.846   0.485
  480TIP3    H1 1446   3.314   3.896   0.463
  480TIP3    H2 1447   3.385   3.765   0.435
  481TIP3   OH2 1448   3.262   3.493   4.874
  481TIP3    H1 1449   3.319   3.541   4.935
  481TIP3    H2 1450   3.240   3.557   4.807
  482TIP3   OH2 1451   1.925   0.040   2.648
  482TIP3    H1 1452   1.891   0.111   2.593
  482TIP3    H2 1453   1.848  -0.004   2.682
  483TIP3   OH2 1454   1.946   5.982   4.468
  483TIP3    H1 1455   1.882   5.949   4.531
  483TIP3    H2 1456   2.014   5.915   4.464
  484TIP3   OH2 1457   4.973   2.690   3.507
  484TIP3    H1 1458   5.064   2.713   3.488
  484TIP3    H2 1459   4.921   2.758   3.464
  485TIP3   OH2 1460   1.999   2.343   1.171
  485TIP3    H1 1461   1.978   2.256   1.205
  485TIP3    H2 1462   2.075   2.371   1.222
  486TIP3   OH2 1463   6.346   1.596   2.760
  486TIP3    H1 1464   6.336   1.628   2.670
  486TIP3    H2 1465   6.259   1.567   2.785
  487TIP3   OH2 1466   1.385   1.460   1.660
  487TIP3    H1 1467   1.351   1.370   1.658
  487TIP3    H2 1468   1.329   1.508   1.599
  488TIP3   OH2 1469   4.369   5.892   3.816
  488TIP3    H1 1470   4.442   5.839   3.849
  488TIP3    H2 1471   4.407   5.942   3.744
  489TIP3   OH2 1472   5.913   0.108   5.103
  489TIP3    H1 1473   5.843   0.059   5.146
  489TIP3    H2 1474   5.874   0.193   5.083
  490TIP3   OH2 1475   0.955   5.281   1.130
  490TIP3    H1 1476   0.927   5.355   1.076
  490TIP3    H2 1477   1.001   5.321   1.203
  491TIP3   OH2 1478   0.129   3.654   2.574
  491TIP3    H1 1479   0.118   3.712   2.649
  491TIP3    H2 1480   0.176   3.578   2.609
  492TIP3   OH2 1481   1.595   1.139   1.666
  492TIP3    H1 1482   1.627   1.116   1.753
  492TIP3    H2 1483   1.500   1.146   1.677
  493TIP3   OH2 1484   1.718   1.789   2.158
  493TIP3    H1 1485   1.772   1.746   2.225
  493TIP3    H2 1486   1.778   1.801   2.084
  494TIP3   OH2 1487   5.400   4.984   2.020
  494TIP3    H1 1488   5.378   4.959   2.109
  494TIP3    H2 1489   5.316   5.010   1.981
  495TIP3   OH2 1490   2.325   4.198   4.720
  495TIP3    H1 1491   2.377   4.248   4.656
  495TIP3    H2 1492   2.243   4.246   4.728
  496TIP3   OH2 1493   3.432   4.287   0.947
  496TIP3    H1 1494   3.398   4.218   0.890
  496TIP3    H2 1495   3.525   4.291   0.927
  497TIP3   OH2 1496   1.940   1.181   3.011
  497TIP3    H1 1497   2.005   1.112   3.019
  497TIP3    H2 1498   1.918   1.183   2.918
  498TIP3   OH2 1499   0.219   3.472   4.594
  498TIP3    H1 1500   0.124   3.469   4.582
  498TIP3    H2 1501   0.237   3.564   4.615
  499TIP3   OH2 1502   0.532   0.679   0.936
  499TIP3    H1 1503   0.488   0.660   0.854
  499TIP3    H2 1504   0.567   0.594   0.964
  500TIP3   OH2 1505   2.474   4.156   0.869
  500TIP3    H1 1506   2.532   4.158   0.793
  500TIP3    H2 1507   2.431   4.242   0.867
  501TIP3   OH2 1508   5.310   5.611   0.887
  501TIP3    H1 1509   5.334   5.703   0.895
  501TIP3    H2 1510   5.306   5.595   0.792
  502TIP3   OH2 1511   0.546   5.170   4.448
  502TIP3    H1 1512   0.531   5.087   4.404
  502TIP3    H2 1513   0.496   5.234   4.398
  503TIP3   OH2 1514   3.319   4.959   1.090
  503TIP3    H1 1515   3.375   4.883   1.077
  503TIP3    H2 1516   3.364   5.030   1.042
  504TIP3   OH2 1517   5.949   3.806   5.047
  504TIP3    H1 1518   5.983   3.740   4.986
  504TIP3    H2 1519   5.998   3.790   5.128
  505TIP3   OH2 1520   1.382   3.407   1.260
  505TIP3    H1 1521   1.338   3.483   1.222
  505TIP3    H2 1522   1.353   3.407   1.351
  506TIP3   OH2 1523   1.044   3.312   1.564
  506TIP3    H1 1524   1.053   3.314   1.469
  506TIP3    H2 1525   1.134   3.320   1.597
  507TIP3   OH2 1526   1.627   3.863   1.510
  507TIP3    H1 1527   1.612   3.906   1.426
  507TIP3    H2 1528   1.684   3.789   1.490
  508TIP3   OH2 1529   2.516   1.536   0.344
  508TIP3    H1 1530   2.589   1.552   0.284
  508TIP3    H2 1531   2.510   1.616   0.396
  509TIP3   OH2 1532   5.856   1.254   2.530
  509TIP3    H1 1533   5.911   1.317   2.576
  509TIP3    H2 1534   5.767   1.286   2.543
  510TIP3   OH2 1535   3.647   4.802   3.763
  510TIP3    H1 1536   3.563   4.837   3.735
  510TIP3    H2 1537   3.628   4.757   3.845
  511TIP3   OH2 1538   1.320   3.221   2.952
  511TIP3    H1 1539   1.393   3.182   2.904
  511TIP3    H2 1540   1.348   3.310   2.970
  512TIP3   OH2 1541   6.060   5.909   1.437
  512TIP3    H1 1542   6.024   5.927   1.524
  512TIP3    H2 1543   6.023   5.978   1.381
  513TIP3   OH2 1544   3.394   0.720  -0.017
  513TIP3    H1 1545   3.462   0.655   0.003
  513TIP3    H2 1546   3.402   0.785   0.052
  514TIP3   OH2 1547   5.320   2.142   3.852
  514TIP3    H1 1548   5.244   2.152   3.908
  514TIP3    H2 1549   5.293   2.080   3.785
  515TIP3   OH2 1550   3.316   5.566   0.847
  515TIP3    H1 1551   3.341   5.498   0.784
  515TIP3    H2 1552   3.244   5.613   0.805
  516TIP3   OH2 1553   3.641   1.179   4.702
  516TIP3    H1 1554   3.602   1.101   4.742
  516TIP3    H2 1555   3.712   1.145   4.648
  517TIP3   OH2 1556   4.539   2.049   1.252
  517TIP3    H1 1557   4.538   2.132   1.205
  517TIP3    H2 1558   4.631   2.030   1.266
  518TIP3   OH2 1559   2.591   2.974   3.336
  518TIP3    H1 1560   2.539   3.054   3.331
  518TIP3    H2 1561   2.671   2.994   3.288
  519TIP3   OH2 1562   6.255   4.993   0.653
  519TIP3    H1 1563   6.263   5.071   0.707
  519TIP3    H2 1564   6.340   4.950   0.661
  520TIP3   OH2 1565   5.552   2.541   2.064
  520TIP3    H1 1566   5.503   2.465   2.033
  520TIP3    H2 1567   5.624   2.550   2.001
  521TIP3   OH2 1568   6.023   4.989   4.835
  521TIP3    H1 1569   6.056   5.053   4.772
  521TIP3    H2 1570   6.080   4.913   4.824
  522TIP3   OH2 1571   5.633   4.803   2.330
  522TIP3    H1 1572   5.662   4.827   2.242
  522TIP3    H2 1573   5.709   4.759   2.369
  523TIP3   OH2 1574   5.246   0.261   1.207
  523TIP3    H1 1575   5.298   0.337   1.180
  523TIP3    H2 1576   5.156   0.285   1.187
  524TIP3   OH2 1577   5.968   3.704   0.652
  524TIP3    H1 1578   5.957   3.744   0.738
  524TIP3    H2 1579   5.886   3.722   0.606
  525TIP3   OH2 1580   3.367   2.595   1.772
  525TIP3    H1 1581   3.298   2.616   1.709
  525TIP3    H2 1582   3.333   2.624   1.856
  526TIP3   OH2 1583   1.732   5.098   4.346
  526TIP3    H1 1584   1.786   5.177   4.347
  526TIP3    H2 1585   1.792   5.028   4.320
  527TIP3   OH2 1586   4.677   5.157   4.124
  527TIP3    H1 1587   4.693   5.065   4.105
  527TIP3    H2 1588   4.590   5.175   4.087
  528TIP3   OH2 1589   1.933   3.893   1.741
  528TIP3    H1 1590   1.970   3.974   1.706
  528TIP3    H2 1591   1.880   3.920   1.815
  529TIP3   OH2 1592   5.568   5.831   3.021
  529TIP3    H1 1593   5.507   5.902   3.039
  529TIP3    H2 1594   5.556   5.811   2.928
  530TIP3   OH2 1595   4.968   5.131   3.505
  530TIP3    H1 1596   4.928   5.217   3.521
  530TIP3    H2 1597   5.057   5.152   3.477
  531TIP3   OH2 1598   0.621   0.104   1.387
  531TIP3    H1 1599   0.639   0.183   1.437
  531TIP3    H2 1600   0.629   0.131   1.296
  532TIP3   OH2 1601   1.388   2.880   3.907
  532TIP3    H1 1602   1.412   2.810   3.968
  532TIP3    H2 1603   1.295   2.897   3.924
  533TIP3   OH2 1604   1.032   3.956   1.994
  533TIP3    H1 1605   1.050   3.980   2.085
  533TIP3    H2 1606   0.969   3.884   2.000
  534TIP3   OH2 1607   5.189   1.377   2.687
  534TIP3    H1 1608   5.252   1.333   2.744
  534TIP3    H2 1609   5.236   1.390   2.605
  535TIP3   OH2 1610   0.207   1.223   4.156
  535TIP3    H1 1611   0.125   1.257   4.120
  535TIP3    H2 1612   0.194   1.128   4.162
  536TIP3   OH2 1613   2.623   5.059   4.158
  536TIP3    H1 1614   2.635   5.068   4.252
  536TIP3    H2 1615   2.593   4.968   4.147
  537TIP3   OH2 1616   6.337   4.863   4.164
  537TIP3    H1 1617   6.250   4.823   4.164
  537TIP3    H2 1618   6.358   4.874   4.257
  538TIP3   OH2 1619   0.470   0.298   3.480
  538TIP3    H1 1620   0.504   0.339   3.401
  538TIP3    H2 1621   0.463   0.370   3.543
  539TIP3   OH2 1622   3.640   0.419   3.459
  539TIP3    H1 1623   3.725   0.462   3.448
  539TIP3    H2 1624   3.590   0.480   3.514
  540TIP3   OH2 1625   0.577   5.540   4.433
  540TIP3    H1 1626   0.568   5.557   4.527
  540TIP3    H2 1627   0.502   5.485   4.411
  541TIP3   OH2 1628   0.155   0.319   3.729
  541TIP3    H1 1629   0.211   0.258   3.777
  541TIP3    H2 1630   0.211   0.358   3.662
  542TIP3   OH2 1631   0.064   1.830   1.748
  542TIP3    H1 1632   0.037   1.767   1.815
  542TIP3    H2 1633   0.027   1.913   1.776
  543TIP3   OH2 1634   3.038   2.950   1.210
  543TIP3    H1 1635   3.011   2.871   1.258
  543TIP3    H2 1636   3.132   2.939   1.198
  544TIP3   OH2 1637   6.303   4.358   1.705
  544TIP3    H1 1638   6.372   4.307   1.662
  544TIP3    H2 1639   6.278   4.423   1.639
  545TIP3   OH2 1640   4.019   4.045   0.616
  545TIP3    H1 1641   4.105   4.006   0.599
  545TIP3    H2 1642   4.018   4.062   0.710
  546TIP3   OH2 1643   0.904   4.190   1.858
  546TIP3    H1 1644   0.812   4.187   1.885
  546TIP3    H2 1645   0.945   4.120   1.908
  547TIP3   OH2 1646   5.210   0.405   4.147
  547TIP3    H1 1647   5.177   0.489   4.178
  547TIP3    H2 1648   5.155   0.339   4.190
  548TIP3   OH2 1649   3.908   4.932   0.017
  548TIP3    H1 1650   3.835   4.951  -0.043
  548TIP3    H2 1651   3.870   4.875   0.084
  549TIP3   OH2 1652   4.841   4.176   3.282
  549TIP3    H1 1653   4.786   4.201   3.356
  549TIP3    H2 1654   4.918   4.233   3.289
  550TIP3   OH2 1655   5.848   0.532   2.771
  550TIP3    H1 1656   5.871   0.439   2.776
  550TIP3    H2 1657   5.817   0.554   2.859
  551TIP3   OH2 1658   4.461   3.815   0.041
  551TIP3    H1 1659   4.418   3.733   0.065
  551TIP3    H2 1660   4.554   3.793   0.039
  552TIP3   OH2 1661   4.301   3.153   0.514
  552TIP3    H1 1662   4.393   3.131   0.523
  552TIP3    H2 1663   4.290   3.235   0.561
  553TIP3   OH2 1664   4.708   5.934   1.710
  553TIP3    H1 1665   4.718   6.023   1.675
  553TIP3    H2 1666   4.788   5.889   1.684
  554TIP3   OH2 1667   3.813   5.549   4.779
  554TIP3    H1 1668   3.896   5.547   4.828
  554TIP3    H2 1669   3.824   5.620   4.717
  555TIP3   OH2 1670   3.745   1.582   2.250
  555TIP3    H1 1671   3.715   1.568   2.160
  555TIP3    H2 1672   3.699   1.515   2.301
  556TIP3   OH2 1673   0.458   2.227   0.186
  556TIP3    H1 1674   0.394   2.205   0.254
  556TIP3    H2 1675   0.543   2.207   0.226
  557TIP3   OH2 1676   5.877   2.753   2.170
  557TIP3    H1 1677   5.957   2.788   2.131
  557TIP3    H2 1678   5.807   2.810   2.138
  558TIP3   OH2 1679   5.439   4.235   4.830
  558TIP3    H1 1680   5.458   4.258   4.739
  558TIP3    H2 1681   5.345   4.216   4.830
  559TIP3   OH2 1682   3.612   1.395   2.437
  559TIP3    H1 1683   3.562   1.320   2.403
  559TIP3    H2 1684   3.545   1.457   2.464
  560TIP3   OH2 1685   5.501   2.323   3.773
  560TIP3    H1 1686   5.541   2.299   3.690
  560TIP3    H2 1687   5.432   2.258   3.786
  561TIP3   OH2 1688   5.255   5.270   2.500
  561TIP3    H1 1689   5.170   5.275   2.455
  561TIP3    H2 1690   5.241   5.317   2.582
  562TIP3   OH2 1691   1.684   4.535   4.921
  562TIP3    H1 1692   1.708   4.594   4.849
  562TIP3    H2 1693   1.588   4.528   4.915
  563TIP3   OH2 1694   1.009   0.788   4.034
  563TIP3    H1 1695   0.940   0.726   4.009
  563TIP3    H2 1696   1.048   0.815   3.951
  564TIP3   OH2 1697   6.341   0.549   1.932
  564TIP3    H1 1698   6.412   0.599   1.971
  564TIP3    H2 1699   6.299   0.609   1.871
  565TIP3   OH2 1700   2.361   1.822   1.198
  565TIP3    H1 1701   2.270   1.790   1.198
  565TIP3    H2 1702   2.369   1.870   1.280
  566TIP3   OH2 1703   4.469   1.370   0.222
  566TIP3    H1 1704   4.537   1.383   0.288
  566TIP3    H2 1705   4.473   1.448   0.167
  567TIP3   OH2 1706   3.857   5.408   2.818
  567TIP3    H1 1707   3.875   5.500   2.798
  567TIP3    H2 1708   3.897   5.360   2.746
  568TIP3   OH2 1709   5.101   3.939   1.178
  568TIP3    H1 1710   5.064   3.889   1.105
  568TIP3    H2 1711   5.098   3.878   1.252
  569TIP3   OH2 1712   0.844   4.708   2.428
  569TIP3    H1 1713   0.867   4.784   2.482
  569TIP3    H2 1714   0.821   4.746   2.343
  570TIP3   OH2 1715   1.634   0.960   2.779
  570TIP3    H1 1716   1.704   0.995   2.725
  570TIP3    H2 1717   1.587   0.900   2.721
  571TIP3   OH2 1718   3.956   4.459   3.577
  571TIP3    H1 1719   4.008   4.382   3.598
  571TIP3    H2 1720   4.010   4.509   3.516
  572TIP3   OH2 1721   5.507   5.747   1.452
  572TIP3    H1 1722   5.522   5.769   1.544
  572TIP3    H2 1723   5.543   5.659   1.443
  573TIP3   OH2 1724   2.973   2.807   2.939
  573TIP3    H1 1725   2.904   2.743   2.921
  573TIP3    H2 1726   2.989   2.850   2.856
  574TIP3   OH2 1727   3.394   0.606   2.219
  574TIP3    H1 1728   3.453   0.627   2.146
  574TIP3    H2 1729   3.321   0.667   2.209
  575TIP3   OH2 1730   6.003   3.454   1.586
  575TIP3    H1 1731   5.954   3.536   1.572
  575TIP3    H2 1732   5.972   3.421   1.670
  576TIP3   OH2 1733   4.463   4.767   1.229
  576TIP3    H1 1734   4.424   4.837   1.282
  576TIP3    H2 1735   4.413   4.769   1.147
  577TIP3   OH2 1736   0.329   3.871   1.494
  577TIP3    H1 1737   0.275   3.807   1.540
  577TIP3    H2 1738   0.275   3.902   1.422
  578TIP3   OH2 1739   0.593   2.940   0.133
  578TIP3    H1 1740   0.668   2.887   0.161
  578TIP3    H2 1741   0.529   2.875   0.102
  579TIP3   OH2 1742   0.998   1.867   2.291
  579TIP3    H1 1743   0.985   1.793   2.351
  579TIP3    H2 1744   0.940   1.849   2.217
  580TIP3   OH2 1745   4.951   5.547   2.740
  580TIP3    H1 1746   4.880   5.601   2.704
  580TIP3    H2 1747   4.909   5.494   2.808
  581TIP3   OH2 1748   4.132   0.623   0.382
  581TIP3    H1 1749   4.161   0.535   0.359
  581TIP3    H2 1750   4.067   0.610   0.451
  582TIP3   OH2 1751   5.159   4.424   3.019
  582TIP3    H1 1752   5.182   4.499   3.074
  582TIP3    H2 1753   5.243   4.394   2.984
  583TIP3   OH2 1754   1.963   5.544   1.727
  583TIP3    H1 1755   2.031   5.486   1.760
  583TIP3    H2 1756   1.963   5.619   1.786
  584TIP3   OH2 1757   5.046   0.966   0.899
  584TIP3    H1 1758   5.033   0.917   0.818
  584TIP3    H2 1759   5.104   1.038   0.874
  585TIP3   OH2 1760   2.772   5.461   4.700
  585TIP3    H1 1761   2.751   5.550   4.726
  585TIP3    H2 1762   2.803   5.419   4.780
  586TIP3   OH2 1763   5.796   2.448   1.258
  586TIP3    H1 1764   5.868   2.391   1.234
  586TIP3    H2 1765   5.742   2.396   1.318
  587TIP3   OH2 1766   4.924   3.980   2.816
  587TIP3    H1 1767   4.967   3.911   2.866
  587TIP3    H2 1768   4.960   4.061   2.851
  588TIP3   OH2 1769   5.166   2.881   2.752
  588TIP3    H1 1770   5.109   2.829   2.695
  588TIP3    H2 1771   5.241   2.904   2.697
  589TIP3   OH2 1772   6.355   1.296   2.102
  589TIP3    H1 1773   6.402   1.278   2.021
  589TIP3    H2 1774   6.268   1.259   2.087
  590TIP3   OH2 1775   2.811   0.348   1.438
  590TIP3    H1 1776   2.757   0.270   1.450
  590TIP3    H2 1777   2.844   0.340   1.348
  591TIP3   OH2 1778   0.811   0.753   1.150
  591TIP3    H1 1779   0.851   0.839   1.134
  591TIP3    H2 1780   0.846   0.697   1.081
  592TIP3   OH2 1781   2.747   3.338   0.633
  592TIP3    H1 1782   2.748   3.358   0.539
  592TIP3    H2 1783   2.815   3.395   0.670
  593TIP3   OH2 1784   3.089   0.052   1.170
  593TIP3    H1 1785   3.060  -0.012   1.105
  593TIP3    H2 1786   3.176   0.080   1.139
  594TIP3   OH2 1787   3.780   1.921   0.457
  594TIP3    H1 1788   3.810   1.889   0.542
  594TIP3    H2 1789   3.837   1.878   0.394
  595TIP3   OH2 1790   2.900   1.716   1.018
  595TIP3    H1 1791   2.908   1.670   1.102
  595TIP3    H2 1792   2.807   1.713   0.997
  596TIP3   OH2 1793   0.861   2.584   0.406
  596TIP3    H1 1794   0.955   2.572   0.422
  596TIP3    H2 1795   0.821   2.572   0.492
  597TIP3   OH2 1796   3.033   4.665   5.077
  597TIP3    H1 1797   3.019   4.697   5.166
  597TIP3    H2 1798   3.125   4.684   5.059
  598TIP3   OH2 1799   0.900   5.123   2.638
  598TIP3    H1 1800   0.831   5.133   2.573
  598TIP3    H2 1801   0.928   5.212   2.658
  599TIP3   OH2 1802   2.172   0.135   5.137
  599TIP3    H1 1803   2.197   0.206   5.197
  599TIP3    H2 1804   2.194   0.055   5.184
  600TIP3   OH2 1805   3.234   0.083   4.551
  600TIP3    H1 1806   3.326   0.078   4.526
  600TIP3    H2 1807   3.193   0.130   4.478
  601TIP3   OH2 1808   0.693   4.275   0.502
  601TIP3    H1 1809   0.657   4.331   0.434
  601TIP3    H2 1810   0.672   4.186   0.473
  602TIP3   OH2 1811   0.625   3.429   2.182
  602TIP3    H1 1812   0.604   3.506   2.129
  602TIP3    H2 1813   0.690   3.459   2.244
  603TIP3   OH2 1814   4.548   0.397   1.667
  603TIP3    H1 1815   4.618   0.343   1.702
  603TIP3    H2 1816   4.537   0.369   1.576
  604TIP3   OH2 1817   2.324   1.096   3.260
  604TIP3    H1 1818   2.398   1.066   3.315
  604TIP3    H2 1819   2.255   1.032   3.277
  605TIP3   OH2 1820   5.936   1.615   1.972
  605TIP3    H1 1821   5.949   1.601   1.878
  605TIP3    H2 1822   5.988   1.547   2.014
  606TIP3   OH2 1823   6.207   1.590   4.596
  606TIP3    H1 1824   6.212   1.652   4.670
  606TIP3    H2 1825   6.276   1.619   4.536
  607TIP3   OH2 1826   1.235   3.739  -0.011
  607TIP3    H1 1827   1.168   3.701  -0.067
  607TIP3    H2 1828   1.186   3.777   0.062
  608TIP3   OH2 1829   3.350   5.535   0.555
  608TIP3    H1 1830   3.295   5.458   0.542
  608TIP3    H2 1831   3.324   5.596   0.486
  609TIP3   OH2 1832   5.973   4.645   3.995
  609TIP3    H1 1833   5.898   4.592   4.021
  609TIP3    H2 1834   6.022   4.589   3.934
  610TIP3   OH2 1835   4.724   5.055   0.765
  610TIP3    H1 1836   4.708   5.101   0.683
  610TIP3    H2 1837   4.801   5.096   0.802
  611TIP3   OH2 1838   1.503   3.256   4.580
  611TIP3    H1 1839   1.530   3.229   4.668
  611TIP3    H2 1840   1.412   3.226   4.573
  612TIP3   OH2 1841   5.064   3.833   1.431
  612TIP3    H1 1842   5.044   3.888   1.507
  612TIP3    H2 1843   5.159   3.822   1.434
  613TIP3   OH2 1844   4.614   5.522   4.208
  613TIP3    H1 1845   4.617   5.584   4.135
  613TIP3    H2 1846   4.697   5.474   4.202
  614TIP3   OH2 1847   5.002   1.171   4.042
  614TIP3    H1 1848   5.011   1.081   4.011
  614TIP3    H2 1849   5.091   1.204   4.047
  615TIP3   OH2 1850   5.020   2.984   4.545
  615TIP3    H1 1851   5.012   3.049   4.475
  615TIP3    H2 1852   5.021   3.036   4.626
  616TIP3   OH2 1853   3.117   0.308   4.270
  616TIP3    H1 1854   3.117   0.373   4.200
  616TIP3    H2 1855   3.140   0.359   4.348
  617TIP3   OH2 1856   6.163   4.298   1.940
  617TIP3    H1 1857   6.214   4.236   1.992
  617TIP3    H2 1858   6.225   4.335   1.877
  618TIP3   OH2 1859   0.827   4.265   3.373
  618TIP3    H1 1860   0.889   4.317   3.321
  618TIP3    H2 1861   0.860   4.175   3.366
  619TIP3   OH2 1862   3.203   3.337   1.660
  619TIP3    H1 1863   3.161   3.387   1.589
  619TIP3    H2 1864   3.192   3.246   1.634
  620TIP3   OH2 1865   1.716   5.697   0.437
  620TIP3    H1 1866   1.704   5.756   0.511
  620TIP3    H2 1867   1.738   5.613   0.477
  621TIP3   OH2 1868   0.036   4.870   0.922
  621TIP3    H1 1869   0.114   4.922   0.944
  621TIP3    H2 1870   0.056   4.833   0.836
  622TIP3   OH2 1871   2.337   0.962   2.939
  622TIP3    H1 1872   2.284   0.944   3.017
  622TIP3    H2 1873   2.352   1.057   2.942
  623TIP3   OH2 1874   3.429   2.128   5.047
  623TIP3    H1 1875   3.359   2.093   5.101
  623TIP3    H2 1876   3.393   2.129   4.958
  624TIP3   OH2 1877   1.631   5.139   1.990
  624TIP3    H1 1878   1.594   5.051   1.999
  624TIP3    H2 1879   1.565   5.197   2.029
  625TIP3   OH2 1880   1.231   5.604   1.165
  625TIP3    H1 1881   1.174   5.534   1.199
  625TIP3    H2 1882   1.236   5.668   1.235
  626TIP3   OH2 1883   3.795   2.899   1.834
  626TIP3    H1 1884   3.849   2.825   1.807
  626TIP3    H2 1885   3.725   2.902   1.769
  627TIP3   OH2 1886   1.667   3.854   2.290
  627TIP3    H1 1887   1.756   3.822   2.272
  627TIP3    H2 1888   1.664   3.864   2.385
  628TIP3   OH2 1889   4.791   5.132   3.109
  628TIP3    H1 1890   4.884   5.130   3.130
  628TIP3    H2 1891   4.764   5.040   3.109
  629TIP3   OH2 1892   3.054   3.777   3.375
  629TIP3    H1 1893   3.026   3.864   3.403
  629TIP3    H2 1894   3.001   3.716   3.427
  630TIP3   OH2 1895   4.912   4.879   1.749
  630TIP3    H1 1896   4.926   4.875   1.654
  630TIP3    H2 1897   4.987   4.930   1.781
  631TIP3   OH2 1898   5.520   5.754   4.082
  631TIP3    H1 1899   5.547   5.673   4.040
  631TIP3    H2 1900   5.502   5.728   4.173
  632TIP3   OH2 1901   2.974   1.488   3.584
  632TIP3    H1 1902   3.022   1.521   3.508
  632TIP3    H2 1903   2.902   1.436   3.547
  633TIP3   OH2 1904   3.336   4.707   4.315
  633TIP3    H1 1905   3.295   4.711   4.401
  633TIP3    H2 1906   3.293   4.633   4.271
  634TIP3   OH2 1907   4.421   4.310   0.735
  634TIP3    H1 1908   4.492   4.275   0.681
  634TIP3    H2 1909   4.400   4.240   0.796
  635TIP3   OH2 1910   5.212   0.939   1.480
  635TIP3    H1 1911   5.241   1.013   1.426
  635TIP3    H2 1912   5.129   0.968   1.516
  636TIP3   OH2 1913   4.774   2.427   2.857
  636TIP3    H1 1914   4.740   2.517   2.855
  636TIP3    H2 1915   4.843   2.427   2.791
  637TIP3   OH2 1916   3.988   0.136   0.740
  637TIP3    H1 1917   3.987   0.232   0.730
  637TIP3    H2 1918   3.941   0.104   0.663
  638TIP3   OH2 1919   3.094   4.379   5.158
  638TIP3    H1 1920   3.119   4.338   5.076
  638TIP3    H2 1921   3.041   4.454   5.132
  639TIP3   OH2 1922   2.041   3.600   0.615
  639TIP3    H1 1923   2.072   3.534   0.676
  639TIP3    H2 1924   2.121   3.640   0.580
  640TIP3   OH2 1925   6.006   3.495   2.434
  640TIP3    H1 1926   6.074   3.495   2.501
  640TIP3    H2 1927   5.947   3.425   2.460
  641TIP3   OH2 1928   0.363   1.938   4.185
  641TIP3    H1 1929   0.285   1.988   4.158
  641TIP3    H2 1930   0.403   1.910   4.103
  642TIP3   OH2 1931   5.163   5.377   0.037
  642TIP3    H1 1932   5.146   5.384   0.130
  642TIP3    H2 1933   5.123   5.293   0.011
  643TIP3   OH2 1934   4.429   4.353   4.613
  643TIP3    H1 1935   4.398   4.302   4.688
  643TIP3    H2 1936   4.478   4.425   4.652
  644TIP3   OH2 1937   4.025   1.145   3.501
  644TIP3    H1 1938   4.011   1.195   3.581
  644TIP3    H2 1939   3.980   1.062   3.515
  645TIP3   OH2 1940   4.045   1.882   2.058
  645TIP3    H1 1941   4.071   1.792   2.076
  645TIP3    H2 1942   4.059   1.892   1.964
  646TIP3   OH2 1943   5.154   3.271   2.131
  646TIP3    H1 1944   5.219   3.332   2.167
  646TIP3    H2 1945   5.206   3.196   2.102
  647TIP3   OH2 1946   3.922   5.152   2.310
  647TIP3    H1 1947   3.849   5.189   2.261
  647TIP3    H2 1948   3.940   5.068   2.267
  648TIP3   OH2 1949   4.517   2.599   2.979
  648TIP3    H1 1950   4.486   2.636   3.061
  648TIP3    H2 1951   4.549   2.512   3.002
  649TIP3   OH2 1952   2.242   3.994   1.781
  649TIP3    H1 1953   2.316   4.011   1.722
  649TIP3    H2 1954   2.168   4.037   1.739
  650TIP3   OH2 1955   5.901   4.576   2.038
  650TIP3    H1 1956   5.975   4.577   1.977
  650TIP3    H2 1957   5.919   4.649   2.098
  651TIP3   OH2 1958   2.886   6.018   4.337
  651TIP3    H1 1959   2.809   5.964   4.356
  651TIP3    H2 1960   2.947   5.959   4.293
  652TIP3   OH2 1961   3.007   5.040   4.988
  652TIP3    H1 1962   2.937   4.975   4.984
  652TIP3    H2 1963   2.978   5.103   5.054
  653TIP3   OH2 1964   3.515   2.787   3.015
  653TIP3    H1 1965   3.424   2.777   3.042
  653TIP3    H2 1966   3.519   2.748   2.928
  654TIP3   OH2 1967   3.759   2.168   4.377
  654TIP3    H1 1968   3.679   2.122   4.400
  654TIP3    H2 1969   3.828   2.102   4.381
  655TIP3   OH2 1970   5.711   5.354   3.614
  655TIP3    H1 1971   5.688   5.440   3.580
  655TIP3    H2 1972   5.685   5.293   3.545
  656TIP3   OH2 1973   4.240   1.539   2.419
  656TIP3    H1 1974   4.299   1.522   2.345
  656TIP3    H2 1975   4.246   1.634   2.432
  657TIP3   OH2 1976   2.636   1.639   1.830
  657TIP3    H1 1977   2.686   1.659   1.751
  657TIP3    H2 1978   2.590   1.720   1.851
  658TIP3   OH2 1979   0.540   2.011   1.242
  658TIP3    H1 1980   0.556   2.077   1.175
  658TIP3    H2 1981   0.609   2.025   1.307
  659TIP3   OH2 1982   4.702   1.324   3.757
  659TIP3    H1 1983   4.648   1.395   3.721
  659TIP3    H2 1984   4.776   1.317   3.698
  660TIP3   OH2 1985   4.109   1.405   1.694
  660TIP3    H1 1986   4.119   1.463   1.618
  660TIP3    H2 1987   4.097   1.318   1.656
  661TIP3   OH2 1988   2.591   1.359   1.815
  661TIP3    H1 1989   2.498   1.349   1.799
  661TIP3    H2 1990   2.607   1.453   1.806
  662TIP3   OH2 1991   3.132   3.659   1.107
  662TIP3    H1 1992   3.039   3.649   1.129
  662TIP3    H2 1993   3.164   3.726   1.169
  663TIP3   OH2 1994   3.229   5.163   2.421
  663TIP3    H1 1995   3.225   5.187   2.513
  663TIP3    H2 1996   3.223   5.246   2.374
  664TIP3   OH2 1997   5.823   5.547   0.884
  664TIP3    H1 1998   5.753   5.482   0.878
  664TIP3    H2 1999   5.834   5.563   0.977
  665TIP3   OH2 2000   4.522   0.784   1.329
  665TIP3    H1 2001   4.558   0.747   1.409
  665TIP3    H2 2002   4.599   0.816   1.281
  666TIP3   OH2 2003   4.717   4.122   2.450
  666TIP3    H1 2004   4.624   4.144   2.449
  666TIP3    H2 2005   4.723   4.043   2.504
  667TIP3   OH2 2006   6.327   3.014   1.401
  667TIP3    H1 2007   6.320   3.093   1.454
  667TIP3    H2 2008   6.247   3.014   1.348
  668TIP3   OH2 2009   1.846   5.873   2.129
  668TIP3    H1 2010   1.791   5.796   2.115
  668TIP3    H2 2011   1.882   5.862   2.217
  669TIP3   OH2 2012   3.181   0.817   4.027
  669TIP3    H1 2013   3.192   0.756   4.101
  669TIP3    H2 2014   3.163   0.760   3.952
  670TIP3   OH2 2015   6.277   0.726   4.754
  670TIP3    H1 2016   6.195   0.700   4.712
  670TIP3    H2 2017   6.345   0.691   4.697
  671TIP3   OH2 2018   5.369   5.894   0.541
  671TIP3    H1 2019   5.438   5.960   0.543
  671TIP3    H2 2020   5.378   5.852   0.455
  672TIP3   OH2 2021   2.042   3.890   3.482
  672TIP3    H1 2022   1.996   3.808   3.465
  672TIP3    H2 2023   2.021   3.911   3.573
  673TIP3   OH2 2024   1.155   1.050   1.103
  673TIP3    H1 2025   1.129   1.024   1.191
  673TIP3    H2 2026   1.215   0.981   1.074
  674TIP3   OH2 2027   1.247   0.433   0.685
  674TIP3    H1 2028   1.163   0.392   0.702
  674TIP3    H2 2029   1.268   0.409   0.594
  675TIP3   OH2 2030   4.526   5.681   1.755
  675TIP3    H1 2031   4.592   5.613   1.769
  675TIP3    H2 2032   4.572   5.763   1.774
  676TIP3   OH2 2033   3.637   2.584   1.714
  676TIP3    H1 2034   3.542   2.570   1.718
  676TIP3    H2 2035   3.669   2.556   1.799
  677TIP3   OH2 2036   4.373   5.084   3.014
  677TIP3    H1 2037   4.371   5.062   3.107
  677TIP3    H2 2038   4.430   5.018   2.975
  678TIP3   OH2 2039   3.226   3.153   0.325
  678TIP3    H1 2040   3.259   3.208   0.396
  678TIP3    H2 2041   3.148   3.111   0.363
  679TIP3   OH2 2042   0.286   5.793   1.303
  679TIP3    H1 2043   0.368   5.785   1.255
  679TIP3    H2 2044   0.298   5.739   1.381
  680TIP3   OH2 2045   0.105   4.451   1.268
  680TIP3    H1 2046   0.091   4.533   1.220
  680TIP3    H2 2047   0.083   4.382   1.205
  681TIP3   OH2 2048   2.244   4.441   1.596
  681TIP3    H1 2049   2.241   4.390   1.677
  681TIP3    H2 2050   2.322   4.495   1.604
  682TIP3   OH2 2051   1.970   2.192   3.809
  682TIP3    H1 2052   2.046   2.244   3.783
  682TIP3    H2 2053   1.958   2.213   3.902
  683TIP3   OH2 2054   1.321   3.168   3.425
  683TIP3    H1 2055   1.362   3.222   3.492
  683TIP3    H2 2056   1.373   3.088   3.423
  684TIP3   OH2 2057   2.213   1.158   1.304
  684TIP3    H1 2058   2.141   1.095   1.309
  684TIP3    H2 2059   2.221   1.192   1.393
  685TIP3   OH2 2060   4.094   3.911   0.196
  685TIP3    H1 2061   4.015   3.960   0.174
  685TIP3    H2 2062   4.062   3.824   0.219
  686TIP3   OH2 2063   5.264   4.963   0.474
  686TIP3    H1 2064   5.172   4.940   0.467
  686TIP3    H2 2065   5.276   4.989   0.565
  687TIP3   OH2 2066   0.935   3.149   1.119
  687TIP3    H1 2067   0.938   3.182   1.029
  687TIP3    H2 2068   0.854   3.100   1.124
  688TIP3   OH2 2069   1.044   2.611   4.084
  688TIP3    H1 2070   0.954   2.608   4.053
  688TIP3    H2 2071   1.038   2.643   4.174
  689TIP3   OH2 2072   2.060   3.983   3.041
  689TIP3    H1 2073   1.971   4.016   3.038
  689TIP3    H2 2074   2.062   3.915   2.973
  690TIP3   OH2 2075   0.703   2.507   0.145
  690TIP3    H1 2076   0.637   2.554   0.196
  690TIP3    H2 2077   0.738   2.442   0.205
  691TIP3   OH2 2078   4.028   5.000   0.434
  691TIP3    H1 2079   4.076   4.943   0.373
  691TIP3    H2 2080   3.936   4.982   0.416
  692TIP3   OH2 2081   4.553   2.001   2.789
  692TIP3    H1 2082   4.512   2.087   2.803
  692TIP3    H2 2083   4.646   2.020   2.774
  693TIP3   OH2 2084   0.856   5.073   2.963
  693TIP3    H1 2085   0.898   5.159   2.956
  693TIP3    H2 2086   0.822   5.055   2.876
  694TIP3   OH2 2087   5.482   3.497   0.660
  694TIP3    H1 2088   5.520   3.572   0.614
  694TIP3    H2 2089   5.432   3.536   0.732
  695TIP3   OH2 2090   0.809   0.683   1.415
  695TIP3    H1 2091   0.730   0.729   1.443
  695TIP3    H2 2092   0.818   0.705   1.322
  696TIP3   OH2 2093   2.918   5.295   0.258
  696TIP3    H1 2094   2.946   5.209   0.291
  696TIP3    H2 2095   2.967   5.358   0.311
  697TIP3   OH2 2096   2.795   3.925   4.595
  697TIP3    H1 2097   2.746   3.875   4.660
  697TIP3    H2 2098   2.751   4.010   4.592
  698TIP3   OH2 2099   3.573   0.952   2.544
  698TIP3    H1 2100   3.632   1.003   2.488
  698TIP3    H2 2101   3.532   0.889   2.485
  699TIP3   OH2 2102   5.746   4.100   3.449
  699TIP3    H1 2103   5.670   4.045   3.463
  699TIP3    H2 2104   5.819   4.051   3.487
  700TIP3   OH2 2105   5.803   0.487   1.553
  700TIP3    H1 2106   5.750   0.521   1.626
  700TIP3    H2 2107   5.827   0.399   1.581
  701TIP3   OH2 2108   5.410   1.735   4.834
  701TIP3    H1 2109   5.460   1.680   4.774
  701TIP3    H2 2110   5.371   1.802   4.778
  702TIP3   OH2 2111   2.732   1.961   3.206
  702TIP3    H1 2112   2.690   1.882   3.174
  702TIP3    H2 2113   2.689   2.032   3.158
  703TIP3   OH2 2114   2.105   2.978   0.575
  703TIP3    H1 2115   2.145   2.939   0.652
  703TIP3    H2 2116   2.021   2.933   0.565
  704TIP3   OH2 2117   4.757   0.771   1.762
  704TIP3    H1 2118   4.813   0.713   1.813
  704TIP3    H2 2119   4.726   0.836   1.825
  705TIP3   OH2 2120   5.689   4.318   3.900
  705TIP3    H1 2121   5.683   4.365   3.817
  705TIP3    H2 2122   5.657   4.230   3.880
  706TIP3   OH2 2123   5.665   2.496   3.493
  706TIP3    H1 2124   5.637   2.556   3.562
  706TIP3    H2 2125   5.714   2.428   3.539
  707TIP3   OH2 2126   3.787   1.454   5.012
  707TIP3    H1 2127   3.818   1.474   4.924
  707TIP3    H2 2128   3.700   1.416   4.999
  708TIP3   OH2 2129   4.199   0.858   3.752
  708TIP3    H1 2130   4.239   0.800   3.817
  708TIP3    H2 2131   4.106   0.835   3.755
  709TIP3   OH2 2132   5.303   2.244   4.775
  709TIP3    H1 2133   5.337   2.191   4.703
  709TIP3    H2 2134   5.260   2.181   4.833
  710TIP3   OH2 2135   3.689   4.356   0.892
  710TIP3    H1 2136   3.717   4.271   0.859
  710TIP3    H2 2137   3.734   4.419   0.835
  711TIP3   OH2 2138   1.275   5.386   4.114
  711TIP3    H1 2139   1.321   5.341   4.044
  711TIP3    H2 2140   1.315   5.473   4.118
  712TIP3   OH2 2141   2.312   4.884   1.773
  712TIP3    H1 2142   2.254   4.825   1.822
  712TIP3    H2 2143   2.272   4.890   1.686
  713TIP3   OH2 2144   1.810   1.921   0.449
  713TIP3    H1 2145   1.901   1.942   0.468
  713TIP3    H2 2146   1.798   1.833   0.485
  714TIP3   OH2 2147   2.945   3.318   3.728
  714TIP3    H1 2148   3.010   3.272   3.781
  714TIP3    H2 2149   2.924   3.397   3.780
  715TIP3   OH2 2150   1.640   0.158   1.020
  715TIP3    H1 2151   1.725   0.195   0.993
  715TIP3    H2 2152   1.608   0.113   0.942
  716TIP3   OH2 2153   1.766   5.029   4.694
  716TIP3    H1 2154   1.732   5.077   4.619
  716TIP3    H2 2155   1.806   5.096   4.749
  717TIP3   OH2 2156   0.932   2.322   4.127
  717TIP3    H1 2157   0.920   2.238   4.172
  717TIP3    H2 2158   1.019   2.351   4.154
  718TIP3   OH2 2159   5.112   3.788   0.341
  718TIP3    H1 2160   5.039   3.730   0.362
  718TIP3    H2 2161   5.112   3.852   0.412
  719TIP3   OH2 2162   0.208   4.587   1.502
  719TIP3    H1 2163   0.213   4.527   1.577
  719TIP3    H2 2164   0.188   4.531   1.427
  720TIP3   OH2 2165   4.414   3.062   1.289
  720TIP3    H1 2166   4.482   3.004   1.322
  720TIP3    H2 2167   4.457   3.147   1.279
  721TIP3   OH2 2168   5.876   3.752   1.567
  721TIP3    H1 2169   5.956   3.802   1.551
  721TIP3    H2 2170   5.806   3.807   1.533
  722TIP3   OH2 2171   0.611   2.323   3.113
  722TIP3    H1 2172   0.647   2.244   3.072
  722TIP3    H2 2173   0.660   2.395   3.073
  723TIP3   OH2 2174   4.661   3.165   0.219
  723TIP3    H1 2175   4.691   3.204   0.301
  723TIP3    H2 2176   4.634   3.077   0.244
  724TIP3   OH2 2177   3.921   5.064   2.780
  724TIP3    H1 2178   3.949   4.988   2.729
  724TIP3    H2 2179   3.922   5.137   2.717
  725TIP3   OH2 2180   1.726   4.972   1.135
  725TIP3    H1 2181   1.639   4.935   1.148
  725TIP3    H2 2182   1.776   4.902   1.094
  726TIP3   OH2 2183   2.701   5.312   1.812
  726TIP3    H1 2184   2.671   5.222   1.799
  726TIP3    H2 2185   2.620   5.362   1.826
  727TIP3   OH2 2186   6.284   5.785   1.483
  727TIP3    H1 2187   6.359   5.780   1.423
  727TIP3    H2 2188   6.221   5.840   1.438
  728TIP3   OH2 2189   6.176   1.521   2.190
  728TIP3    H1 2190   6.201   1.599   2.140
  728TIP3    H2 2191   6.248   1.459   2.175
  729TIP3   OH2 2192   1.386   1.447   3.777
  729TIP3    H1 2193   1.334   1.500   3.838
  729TIP3    H2 2194   1.399   1.503   3.701
  730TIP3   OH2 2195   0.145   5.219   3.046
  730TIP3    H1 2196   0.100   5.212   2.961
  730TIP3    H2 2197   0.233   5.187   3.029
  731TIP3   OH2 2198   2.359   5.088   2.421
  731TIP3    H1 2199   2.396   5.133   2.497
  731TIP3    H2 2200   2.386   5.141   2.347
  732TIP3   OH2 2201   0.879   0.769   3.424
  732TIP3    H1 2202   0.950   0.714   3.457
  732TIP3    H2 2203   0.923   0.840   3.377
  733TIP3   OH2 2204   0.137   4.698   1.111
  733TIP3    H1 2205   0.135   4.754   1.189
  733TIP3    H2 2206   0.102   4.754   1.041
  734TIP3   OH2 2207   1.879   5.877   3.454
  734TIP3    H1 2208   1.940   5.811   3.488
  734TIP3    H2 2209   1.887   5.871   3.359
  735TIP3   OH2 2210   4.863   1.875   2.292
  735TIP3    H1 2211   4.805   1.939   2.334
  735TIP3    H2 2212   4.829   1.790   2.319
  736TIP3   OH2 2213   3.871   4.278   3.985
  736TIP3    H1 2214   3.867   4.371   3.962
  736TIP3    H2 2215   3.933   4.274   4.057
  737TIP3   OH2 2216   4.209   4.349   3.623
  737TIP3    H1 2217   4.234   4.286   3.692
  737TIP3    H2 2218   4.253   4.317   3.545
  738TIP3   OH2 2219   2.213   1.080   4.734
  738TIP3    H1 2220   2.296   1.071   4.687
  738TIP3    H2 2221   2.221   1.022   4.809
  739TIP3   OH2 2222   1.300   2.156   4.873
  739TIP3    H1 2223   1.224   2.215   4.879
  739TIP3    H2 2224   1.273   2.078   4.921
  740TIP3   OH2 2225   0.872   2.875   1.247
  740TIP3    H1 2226   0.934   2.943   1.272
  740TIP3    H2 2227   0.798   2.887   1.307
  741TIP3   OH2 2228   3.759   1.458   3.102
  741TIP3    H1 2229   3.762   1.443   3.197
  741TIP3    H2 2230   3.698   1.392   3.070
  742TIP3   OH2 2231   4.586   0.651   5.021
  742TIP3    H1 2232   4.652   0.687   5.080
  742TIP3    H2 2233   4.581   0.714   4.949
  743TIP3   OH2 2234   5.962   5.623   2.974
  743TIP3    H1 2235   6.058   5.614   2.974
  743TIP3    H2 2236   5.938   5.623   2.881
  744TIP3   OH2 2237   5.077   0.523   1.568
  744TIP3    H1 2238   5.031   0.554   1.491
  744TIP3    H2 2239   5.009   0.485   1.624
  745TIP3   OH2 2240   0.231   2.260   2.103
  745TIP3    H1 2241   0.313   2.255   2.053
  745TIP3    H2 2242   0.199   2.349   2.087
  746TIP3   OH2 2243   4.075   1.993   4.845
  746TIP3    H1 2244   4.148   2.046   4.877
  746TIP3    H2 2245   4.032   1.962   4.925
  747TIP3   OH2 2246   1.332   5.214   2.409
  747TIP3    H1 2247   1.334   5.131   2.459
  747TIP3    H2 2248   1.241   5.243   2.414
  748TIP3   OH2 2249   0.930   1.210   5.040
  748TIP3    H1 2250   0.867   1.190   5.109
  748TIP3    H2 2251   0.877   1.245   4.969
  749TIP3   OH2 2252   3.439   4.572   0.818
  749TIP3    H1 2253   3.511   4.597   0.759
  749TIP3    H2 2254   3.462   4.484   0.848
  750TIP3   OH2 2255   4.223   3.208   2.644
  750TIP3    H1 2256   4.175   3.190   2.725
  750TIP3    H2 2257   4.226   3.124   2.599
  751TIP3   OH2 2258   5.670   3.388   3.533
  751TIP3    H1 2259   5.713   3.304   3.547
  751TIP3    H2 2260   5.675   3.431   3.619
  752TIP3   OH2 2261   5.878   4.953   0.725
  752TIP3    H1 2262   5.962   4.953   0.771
  752TIP3    H2 2263   5.835   4.872   0.755
  753TIP3   OH2 2264   1.655   0.095   1.283
  753TIP3    H1 2265   1.578   0.037   1.277
  753TIP3    H2 2266   1.657   0.140   1.198
  754TIP3   OH2 2267   0.918   4.613   1.648
  754TIP3    H1 2268   0.981   4.563   1.699
  754TIP3    H2 2269   0.878   4.550   1.588
  755TIP3   OH2 2270   4.032   2.275   1.723
  755TIP3    H1 2271   3.996   2.314   1.803
  755TIP3    H2 2272   3.971   2.203   1.702
  756TIP3   OH2 2273   2.679   1.554   1.088
  756TIP3    H1 2274   2.593   1.533   1.051
  756TIP3    H2 2275   2.705   1.474   1.134
  757TIP3   OH2 2276   3.783   4.881   4.558
  757TIP3    H1 2277   3.865   4.850   4.597
  757TIP3    H2 2278   3.808   4.963   4.514
  758TIP3   OH2 2279   6.139   0.133   2.290
  758TIP3    H1 2280   6.162   0.224   2.273
  758TIP3    H2 2281   6.049   0.125   2.260
  759TIP3   OH2 2282   6.179   1.192   2.335
  759TIP3    H1 2283   6.138   1.177   2.250
  759TIP3    H2 2284   6.177   1.106   2.378
  760TIP3   OH2 2285   0.571   4.755   3.998
  760TIP3    H1 2286   0.480   4.777   3.980
  760TIP3    H2 2287   0.599   4.703   3.922
  761TIP3   OH2 2288   0.447   2.368   2.256
  761TIP3    H1 2289   0.439   2.391   2.348
  761TIP3    H2 2290   0.356   2.354   2.227
  762TIP3   OH2 2291   3.694   5.759   3.492
  762TIP3    H1 2292   3.659   5.720   3.412
  762TIP3    H2 2293   3.617   5.779   3.545
  763TIP3   OH2 2294   3.231   2.680   4.321
  763TIP3    H1 2295   3.236   2.773   4.345
  763TIP3    H2 2296   3.182   2.640   4.392
  764TIP3   OH2 2297   1.582   1.874   4.876
  764TIP3    H1 2298   1.645   1.818   4.830
  764TIP3    H2 2299   1.566   1.946   4.816
  765TIP3   OH2 2300   4.859   0.788   0.425
  765TIP3    H1 2301   4.893   0.785   0.335
  765TIP3    H2 2302   4.861   0.697   0.454
  766TIP3   OH2 2303   5.586   1.234   1.479
  766TIP3    H1 2304   5.573   1.146   1.512
  766TIP3    H2 2305   5.678   1.253   1.496
  767TIP3   OH2 2306   5.870   3.291   2.545
  767TIP3    H1 2307   5.786   3.294   2.589
  767TIP3    H2 2308   5.878   3.201   2.514
  768TIP3   OH2 2309   5.119   4.661   1.398
  768TIP3    H1 2310   5.160   4.582   1.433
  768TIP3    H2 2311   5.158   4.672   1.311
  769TIP3   OH2 2312   1.219   2.913   4.242
  769TIP3    H1 2313   1.158   2.962   4.296
  769TIP3    H2 2314   1.169   2.888   4.164
  770TIP3   OH2 2315   0.679   1.366   3.546
  770TIP3    H1 2316   0.718   1.450   3.523
  770TIP3    H2 2317   0.643   1.333   3.464
  771TIP3   OH2 2318   1.890   4.557   4.544
  771TIP3    H1 2319   1.869   4.471   4.581
  771TIP3    H2 2320   1.833   4.618   4.591
  772TIP3   OH2 2321   3.480   3.737   4.466
  772TIP3    H1 2322   3.498   3.783   4.384
  772TIP3    H2 2323   3.410   3.676   4.444
  773TIP3   OH2 2324   4.077   5.860   3.093
  773TIP3    H1 2325   4.037   5.904   3.168
  773TIP3    H2 2326   4.071   5.924   3.022
  774TIP3   OH2 2327   1.994   2.464   0.926
  774TIP3    H1 2328   2.009   2.418   1.009
  774TIP3    H2 2329   2.082   2.484   0.894
  775TIP3   OH2 2330   5.324   3.705   3.326
  775TIP3    H1 2331   5.334   3.635   3.391
  775TIP3    H2 2332   5.323   3.786   3.377
  776TIP3   OH2 2333   2.663   5.994   0.295
  776TIP3    H1 2334   2.659   5.956   0.207
  776TIP3    H2 2335   2.582   6.044   0.302
  777TIP3   OH2 2336   1.762   0.549   3.910
  777TIP3    H1 2337   1.686   0.580   3.860
  777TIP3    H2 2338   1.745   0.578   4.000
  778TIP3   OH2 2339   4.659   0.911   0.081
  778TIP3    H1 2340   4.671   0.960   0.162
  778TIP3    H2 2341   4.709   0.830   0.094
  779TIP3   OH2 2342   5.720   5.227   3.856
  779TIP3    H1 2343   5.665   5.283   3.910
  779TIP3    H2 2344   5.717   5.267   3.769
  780TIP3   OH2 2345   4.426   4.299   2.368
  780TIP3    H1 2346   4.401   4.238   2.438
  780TIP3    H2 2347   4.412   4.251   2.287
  781TIP3   OH2 2348   0.673   4.856   3.413
  781TIP3    H1 2349   0.686   4.761   3.410
  781TIP3    H2 2350   0.760   4.891   3.428
  782TIP3   OH2 2351   1.138   4.952   2.949
  782TIP3    H1 2352   1.052   4.979   2.917
  782TIP3    H2 2353   1.132   4.857   2.959
  783TIP3   OH2 2354   2.304   2.578   2.439
  783TIP3    H1 2355   2.305   2.673   2.426
  783TIP3    H2 2356   2.386   2.547   2.402
  784TIP3   OH2 2357   2.510   3.050   2.104
  784TIP3    H1 2358   2.510   3.002   2.021
  784TIP3    H2 2359   2.603   3.054   2.130
  785TIP3   OH2 2360   0.236   0.805   0.399
  785TIP3    H1 2361   0.324   0.769   0.389
  785TIP3    H2 2362   0.250   0.898   0.416
  786TIP3   OH2 2363   3.431   3.605   5.049
  786TIP3    H1 2364   3.509   3.589   4.995
  786TIP3    H2 2365   3.437   3.541   5.119
  787TIP3   OH2 2366   5.436   5.427   4.599
  787TIP3    H1 2367   5.514   5.450   4.548
  787TIP3    H2 2368   5.374   5.498   4.581
  788TIP3   OH2 2369   1.730   3.045   3.399
  788TIP3    H1 2370   1.697   2.955   3.394
  788TIP3    H2 2371   1.676   3.094   3.336
  789TIP3   OH2 2372   1.433   3.513   3.965
  789TIP3    H1 2373   1.379   3.560   3.901
  789TIP3    H2 2374   1.464   3.581   4.024
  790TIP3   OH2 2375   1.945   4.940   4.220
  790TIP3    H1 2376   2.027   4.950   4.269
  790TIP3    H2 2377   1.911   4.854   4.247
  791TIP3   OH2 2378   3.095   3.975   0.049
  791TIP3    H1 2379   3.121   4.067   0.039
  791TIP3    H2 2380   2.999   3.977   0.049
  792TIP3   OH2 2381   5.699   2.545   1.841
  792TIP3    H1 2382   5.639   2.619   1.852
  792TIP3    H2 2383   5.704   2.532   1.746
  793TIP3   OH2 2384   0.632   0.454   1.057
  793TIP3    H1 2385   0.604   0.373   1.014
  793TIP3    H2 2386   0.726   0.443   1.069
  794TIP3   OH2 2387   1.222   4.802   4.756
  794TIP3    H1 2388   1.184   4.876   4.708
  794TIP3    H2 2389   1.237   4.836   4.844
  795TIP3   OH2 2390   2.291   1.681   2.983
  795TIP3    H1 2391   2.369   1.706   3.032
  795TIP3    H2 2392   2.234   1.758   2.988
  796TIP3   OH2 2393   5.151   3.463   1.162
  796TIP3    H1 2394   5.184   3.390   1.214
  796TIP3    H2 2395   5.140   3.427   1.074
  797TIP3   OH2 2396   0.033   4.035   2.636
  797TIP3    H1 2397   0.028   3.996   2.724
  797TIP3    H2 2398  -0.005   4.123   2.648
  798TIP3   OH2 2399   3.253   3.224   3.169
  798TIP3    H1 2400   3.204   3.166   3.111
  798TIP3    H2 2401   3.298   3.285   3.110
  799TIP3   OH2 2402   3.419   4.130   1.445
  799TIP3    H1 2403   3.360   4.119   1.371
  799TIP3    H2 2404   3.452   4.219   1.437
  800TIP3   OH2 2405   4.900   0.912   4.844
  800TIP3    H1 2406   4.863   0.866   4.768
  800TIP3    H2 2407   4.965   0.971   4.806
  801TIP3   OH2 2408   5.464   2.698   1.493
  801TIP3    H1 2409   5.512   2.630   1.444
  801TIP3    H2 2410   5.462   2.665   1.583
  802TIP3   OH2 2411   3.648   5.147   4.633
  802TIP3    H1 2412   3.647   5.091   4.710
  802TIP3    H2 2413   3.672   5.233   4.666
  803TIP3   OH2 2414   1.951   2.467   4.358
  803TIP3    H1 2415   1.920   2.557   4.358
  803TIP3    H2 2416   2.038   2.471   4.320
  804TIP3   OH2 2417   0.996   3.035   2.782
  804TIP3    H1 2418   0.919   3.091   2.770
  804TIP3    H2 2419   0.976   2.955   2.734
  805TIP3   OH2 2420   3.120   0.486   2.739
  805TIP3    H1 2421   3.098   0.579   2.729
  805TIP3    H2 2422   3.111   0.470   2.833
  806TIP3   OH2 2423   6.277   1.500   0.821
  806TIP3    H1 2424   6.182   1.505   0.816
  806TIP3    H2 2425   6.298   1.408   0.802
  807TIP3   OH2 2426   3.993   0.907   4.360
  807TIP3    H1 2427   3.960   0.837   4.418
  807TIP3    H2 2428   4.004   0.864   4.275
  808TIP3   OH2 2429   4.987   5.145   0.046
  808TIP3    H1 2430   4.966   5.118   0.136
  808TIP3    H2 2431   4.962   5.071  -0.008
  809TIP3   OH2 2432   3.570   1.153   3.262
  809TIP3    H1 2433   3.624   1.220   3.304
  809TIP3    H2 2434   3.519   1.201   3.197
  810TIP3   OH2 2435   3.084   1.371   1.300
  810TIP3    H1 2436   3.107   1.342   1.211
  810TIP3    H2 2437   3.053   1.461   1.288
  811TIP3   OH2 2438   2.157   0.019   4.898
  811TIP3    H1 2439   2.159   0.047   4.990
  811TIP3    H2 2440   2.228  -0.045   4.892
  812TIP3   OH2 2441   2.287   2.620   4.111
  812TIP3    H1 2442   2.324   2.542   4.071
  812TIP3    H2 2443   2.342   2.636   4.188
  813TIP3   OH2 2444   0.265   5.405   4.919
  813TIP3    H1 2445   0.190   5.346   4.904
  813TIP3    H2 2446   0.235   5.464   4.988
  814TIP3   OH2 2447   3.934   3.626   0.990
  814TIP3    H1 2448   3.949   3.604   1.082
  814TIP3    H2 2449   4.021   3.620   0.950
  815TIP3   OH2 2450   3.560   4.186   4.711
  815TIP3    H1 2451   3.611   4.137   4.646
  815TIP3    H2 2452   3.594   4.275   4.706
  816TIP3   OH2 2453   5.577   2.286   4.027
  816TIP3    H1 2454   5.531   2.317   4.106
  816TIP3    H2 2455   5.512   2.295   3.957
  817TIP3   OH2 2456   2.146   5.807   2.710
  817TIP3    H1 2457   2.092   5.846   2.778
  817TIP3    H2 2458   2.232   5.847   2.720
  818TIP3   OH2 2459   0.073   3.897   0.727
  818TIP3    H1 2460  -0.022   3.908   0.732
  818TIP3    H2 2461   0.108   3.986   0.720
  819TIP3   OH2 2462   1.575   2.453   0.105
  819TIP3    H1 2463   1.533   2.435   0.021
  819TIP3    H2 2464   1.503   2.453   0.168
  820TIP3   OH2 2465   0.360   3.293   2.077
  820TIP3    H1 2466   0.390   3.352   2.009
  820TIP3    H2 2467   0.440   3.253   2.112
  821TIP3   OH2 2468   3.503   1.035   5.137
  821TIP3    H1 2469   3.505   1.117   5.186
  821TIP3    H2 2470   3.583   0.989   5.164
  822TIP3   OH2 2471   1.630   1.731   1.115
  822TIP3    H1 2472   1.681   1.651   1.105
  822TIP3    H2 2473   1.628   1.769   1.027
  823TIP3   OH2 2474   2.966   0.105   2.656
  823TIP3    H1 2475   3.058   0.121   2.635
  823TIP3    H2 2476   2.937   0.041   2.590
  824TIP3   OH2 2477   2.015   3.572   1.381
  824TIP3    H1 2478   2.016   3.553   1.287
  824TIP3    H2 2479   2.108   3.582   1.404
  825TIP3   OH2 2480   0.292   5.076   0.782
  825TIP3    H1 2481   0.202   5.100   0.803
  825TIP3    H2 2482   0.301   5.097   0.689
  826TIP3   OH2 2483   2.838   0.955   3.712
  826TIP3    H1 2484   2.892   0.951   3.633
  826TIP3    H2 2485   2.822   0.863   3.735
  827TIP3   OH2 2486   5.597   4.903   4.569
  827TIP3    H1 2487   5.512   4.872   4.540
  827TIP3    H2 2488   5.580   4.989   4.608
  828TIP3   OH2 2489   4.196   2.536   3.844
  828TIP3    H1 2490   4.200   2.546   3.939
  828TIP3    H2 2491   4.286   2.515   3.819
  829TIP3   OH2 2492   2.122   4.935   0.463
  829TIP3    H1 2493   2.207   4.910   0.427
  829TIP3    H2 2494   2.142   5.006   0.524
  830TIP3   OH2 2495   1.138   2.814   2.448
  830TIP3    H1 2496   1.066   2.765   2.408
  830TIP3    H2 2497   1.183   2.750   2.503
  831TIP3   OH2 2498   5.516   5.592   2.224
  831TIP3    H1 2499   5.567   5.536   2.165
  831TIP3    H2 2500   5.534   5.558   2.311
  832TIP3   OH2 2501   0.105   4.772   5.046
  832TIP3    H1 2502   0.098   4.718   4.967
  832TIP3    H2 2503   0.022   4.819   5.051
  833TIP3   OH2 2504   2.639   1.746   0.820
  833TIP3    H1 2505   2.675   1.816   0.766
  833TIP3    H2 2506   2.570   1.789   0.871
  834TIP3   OH2 2507   2.468   2.604   1.739
  834TIP3    H1 2508   2.499   2.574   1.654
  834TIP3    H2 2509   2.436   2.525   1.783
  835TIP3   OH2 2510   3.948   5.792   3.883
  835TIP3    H1 2511   3.861   5.805   3.921
  835TIP3    H2 2512   3.937   5.811   3.790
  836TIP3   OH2 2513   2.238   5.182   0.802
  836TIP3    H1 2514   2.278   5.100   0.774
  836TIP3    H2 2515   2.310   5.245   0.799
  837TIP3   OH2 2516   5.877   1.764   2.195
  837TIP3    H1 2517   5.906   1.715   2.118
  837TIP3    H2 2518   5.849   1.849   2.160
  838TIP3   OH2 2519   5.764   5.807   2.286
  838TIP3    H1 2520   5.693   5.847   2.236
  838TIP3    H2 2521   5.791   5.874   2.348
  839TIP3   OH2 2522   4.579   1.030   3.266
  839TIP3    H1 2523   4.566   1.022   3.360
  839TIP3    H2 2524   4.504   0.984   3.228
  840TIP3   OH2 2525   2.980   0.979   2.843
  840TIP3    H1 2526   2.932   1.060   2.825
  840TIP3    H2 2527   2.911   0.915   2.861
  841TIP3   OH2 2528   0.937   1.198   0.228
  841TIP3    H1 2529   0.879   1.220   0.155
  841TIP3    H2 2530   0.986   1.278   0.244
  842TIP3   OH2 2531   1.528   4.518   0.130
  842TIP3    H1 2532   1.609   4.557   0.161
  842TIP3    H2 2533   1.459   4.569   0.171
  843TIP3   OH2 2534   5.333   2.517   5.207
  843TIP3    H1 2535   5.363   2.549   5.122
  843TIP3    H2 2536   5.331   2.422   5.197
  844TIP3   OH2 2537   2.281   1.629   0.887
  844TIP3    H1 2538   2.235   1.556   0.930
  844TIP3    H2 2539   2.309   1.685   0.959
  845TIP3   OH2 2540   3.542   0.244   4.176
  845TIP3    H1 2541   3.527   0.277   4.264
  845TIP3    H2 2542   3.548   0.322   4.122
  846TIP3   OH2 2543   1.094   5.615   1.618
  846TIP3    H1 2544   1.140   5.623   1.702
  846TIP3    H2 2545   1.066   5.705   1.598
  847TIP3   OH2 2546   2.928   3.581   0.111
  847TIP3    H1 2547   2.951   3.534   0.192
  847TIP3    H2 2548   2.982   3.540   0.043
  848TIP3   OH2 2549   1.801   3.925   0.767
  848TIP3    H1 2550   1.758   3.968   0.693
  848TIP3    H2 2551   1.894   3.943   0.754
  849TIP3   OH2 2552   0.797   5.499   0.903
  849TIP3    H1 2553   0.876   5.463   0.862
  849TIP3    H2 2554   0.728   5.438   0.878
  850TIP3   OH2 2555   3.282   1.356   4.831
  850TIP3    H1 2556   3.216   1.290   4.853
  850TIP3    H2 2557   3.306   1.337   4.740
  851TIP3   OH2 2558   0.441   2.621   1.953
  851TIP3    H1 2559   0.517   2.666   1.989
  851TIP3    H2 2560   0.470   2.532   1.936
  852TIP3   OH2 2561   5.171   0.317   0.625
  852TIP3    H1 2562   5.262   0.321   0.652
  852TIP3    H2 2563   5.171   0.264   0.546
  853TIP3   OH2 2564   1.771   1.291   1.542
  853TIP3    H1 2565   1.711   1.324   1.475
  853TIP3    H2 2566   1.719   1.228   1.592
  854TIP3   OH2 2567   3.363   4.472   3.847
  854TIP3    H1 2568   3.289   4.478   3.787
  854TIP3    H2 2569   3.437   4.445   3.792
  855TIP3   OH2 2570   3.087   5.684   0.761
  855TIP3    H1 2571   3.066   5.701   0.669
  855TIP3    H2 2572   3.010   5.640   0.795
  856TIP3   OH2 2573   2.716   2.044   4.754
  856TIP3    H1 2574   2.737   2.066   4.844
  856TIP3    H2 2575   2.623   2.023   4.755
  857TIP3   OH2 2576   5.217   3.677   3.763
  857TIP3    H1 2577   5.169   3.665   3.844
  857TIP3    H2 2578   5.305   3.644   3.782
  858TIP3   OH2 2579   5.280   1.105   2.748
  858TIP3    H1 2580   5.318   1.111   2.836
  858TIP3    H2 2581   5.208   1.043   2.759
  859TIP3   OH2 2582   0.933   1.102   1.497
  859TIP3    H1 2583   0.979   1.105   1.581
  859TIP3    H2 2584   0.866   1.171   1.504
  860TIP3   OH2 2585   1.254   3.441   4.827
  860TIP3    H1 2586   1.200   3.362   4.822
  860TIP3    H2 2587   1.284   3.456   4.738
  861TIP3   OH2 2588   0.905   4.577   2.111
  861TIP3    H1 2589   0.994   4.560   2.081
  861TIP3    H2 2590   0.905   4.669   2.137
  862TIP3   OH2 2591   6.293   4.427   0.867
  862TIP3    H1 2592   6.322   4.513   0.835
  862TIP3    H2 2593   6.283   4.374   0.787
  863TIP3   OH2 2594   2.466   2.771   3.197
  863TIP3    H1 2595   2.544   2.719   3.180
  863TIP3    H2 2596   2.493   2.835   3.263
  864TIP3   OH2 2597   4.150   2.629   4.752
  864TIP3    H1 2598   4.065   2.587   4.740
  864TIP3    H2 2599   4.202   2.563   4.798
  865TIP3   OH2 2600   3.605   4.049  -0.044
  865TIP3    H1 2601   3.554   4.045   0.036
  865TIP3    H2 2602   3.650   3.965  -0.049
  866TIP3   OH2 2603   2.385   3.376   2.844
  866TIP3    H1 2604   2.470   3.411   2.872
  866TIP3    H2 2605   2.376   3.294   2.891
  867TIP3   OH2 2606   3.338   1.830   3.644
  867TIP3    H1 2607   3.312   1.921   3.629
  867TIP3    H2 2608   3.358   1.825   3.737
  868TIP3   OH2 2609   6.303   2.434   0.791
  868TIP3    H1 2610   6.268   2.489   0.862
  868TIP3    H2 2611   6.395   2.459   0.784
  869TIP3   OH2 2612   1.538   2.669   5.035
  869TIP3    H1 2613   1.474   2.681   4.964
  869TIP3    H2 2614   1.617   2.639   4.991
  870TIP3   OH2 2615   3.690   3.327   0.043
  870TIP3    H1 2616   3.644   3.339   0.126
  870TIP3    H2 2617   3.653   3.246   0.007
  871TIP3   OH2 2618   3.853   5.942   4.837
  871TIP3    H1 2619   3.911   5.866   4.840
  871TIP3    H2 2620   3.765   5.906   4.847
  872TIP3   OH2 2621   1.503   4.983   0.049
  872TIP3    H1 2622   1.487   4.977   0.143
  872TIP3    H2 2623   1.571   5.050   0.041
  873TIP3   OH2 2624   5.937   4.413   3.837
  873TIP3    H1 2625   5.902   4.473   3.771
  873TIP3    H2 2626   5.859   4.375   3.878
  874TIP3   OH2 2627   6.213   5.853   3.721
  874TIP3    H1 2628   6.138   5.866   3.662
  874TIP3    H2 2629   6.182   5.886   3.805
  875TIP3   OH2 2630   5.511   5.812   3.669
  875TIP3    H1 2631   5.600   5.847   3.678
  875TIP3    H2 2632   5.455   5.878   3.709
  876TIP3   OH2 2633   2.129   3.266   0.917
  876TIP3    H1 2634   2.063   3.326   0.881
  876TIP3    H2 2635   2.104   3.254   1.008
  877TIP3   OH2 2636   5.052   4.213   0.468
  877TIP3    H1 2637   5.106   4.289   0.447
  877TIP3    H2 2638   5.006   4.193   0.386
  878TIP3   OH2 2639   2.220   4.443   2.471
  878TIP3    H1 2640   2.297   4.425   2.416
  878TIP3    H2 2641   2.156   4.378   2.444
  879TIP3   OH2 2642   5.735   4.706   0.733
  879TIP3    H1 2643   5.676   4.706   0.808
  879TIP3    H2 2644   5.689   4.758   0.666
  880TIP3   OH2 2645   0.314   5.967   3.930
  880TIP3    H1 2646   0.376   5.898   3.906
  880TIP3    H2 2647   0.303   6.018   3.849
  881TIP3   OH2 2648   3.370   0.103   1.121
  881TIP3    H1 2649   3.447   0.154   1.143
  881TIP3    H2 2650   3.388   0.070   1.033
  882TIP3   OH2 2651   5.596   1.972   1.463
  882TIP3    H1 2652   5.665   1.973   1.530
  882TIP3    H2 2653   5.580   1.878   1.448
  883TIP3   OH2 2654   4.065   1.262   4.697
  883TIP3    H1 2655   4.019   1.187   4.735
  883TIP3    H2 2656   4.075   1.240   4.605
  884TIP3   OH2 2657   2.140   0.374   4.960
  884TIP3    H1 2658   2.213   0.435   4.966
  884TIP3    H2 2659   2.180   0.288   4.973
  885TIP3   OH2 2660   6.030   0.707   3.087
  885TIP3    H1 2661   6.102   0.712   3.150
  885TIP3    H2 2662   5.996   0.796   3.082
  886TIP3   OH2 2663   3.021   2.482   2.924
  886TIP3    H1 2664   3.078   2.498   2.848
  886TIP3    H2 2665   2.944   2.538   2.908
  887TIP3   OH2 2666   2.533   1.361   2.101
  887TIP3    H1 2667   2.545   1.365   2.006
  887TIP3    H2 2668   2.617   1.330   2.134
  888TIP3   OH2 2669   5.798   4.855   3.667
  888TIP3    H1 2670   5.884   4.843   3.706
  888TIP3    H2 2671   5.807   4.820   3.579
  889TIP3   OH2 2672   3.448   5.277   3.200
  889TIP3    H1 2673   3.459   5.277   3.105
  889TIP3    H2 2674   3.386   5.206   3.217
  890TIP3   OH2 2675   0.042   3.210  -0.022
  890TIP3    H1 2676  -0.047   3.240  -0.005
  890TIP3    H2 2677   0.088   3.226   0.060
  891TIP3   OH2 2678   3.891   4.113   3.147
  891TIP3    H1 2679   3.955   4.169   3.192
  891TIP3    H2 2680   3.887   4.034   3.201
  892TIP3   OH2 2681   3.397   1.583   1.444
  892TIP3    H1 2682   3.395   1.509   1.505
  892TIP3    H2 2683   3.380   1.544   1.359
  893TIP3   OH2 2684   1.246   5.852   0.900
  893TIP3    H1 2685   1.322   5.795   0.912
  893TIP3    H2 2686   1.182   5.798   0.855
  894TIP3   OH2 2687   5.586   1.309   0.752
  894TIP3    H1 2688   5.644   1.238   0.782
  894TIP3    H2 2689   5.598   1.310   0.657
  895TIP3   OH2 2690   0.000   2.351   0.089
  895TIP3    H1 2691   0.089   2.386   0.091
  895TIP3    H2 2692  -0.045   2.403   0.023
  896TIP3   OH2 2693   0.823   3.920   0.045
  896TIP3    H1 2694   0.876   3.931   0.124
  896TIP3    H2 2695   0.820   4.007   0.005
  897TIP3   OH2 2696   2.647   1.585   1.496
  897TIP3    H1 2697   2.723   1.629   1.534
  897TIP3    H2 2698   2.573   1.643   1.514
  898TIP3   OH2 2699   1.962   5.488   4.214
  898TIP3    H1 2700   1.956   5.503   4.308
  898TIP3    H2 2701   1.896   5.547   4.176
  899TIP3   OH2 2702   3.968   0.583   2.394
  899TIP3    H1 2703   3.973   0.491   2.368
  899TIP3    H2 2704   4.052   0.620   2.366
  900TIP3   OH2 2705   2.924   4.863   0.546
  900TIP3    H1 2706   2.946   4.940   0.493
  900TIP3    H2 2707   2.950   4.789   0.492
  901TIP3   OH2 2708   3.353   2.509   1.404
  901TIP3    H1 2709   3.410   2.462   1.342
  901TIP3    H2 2710   3.382   2.600   1.399
  902TIP3   OH2 2711   2.547   0.102   4.640
  902TIP3    H1 2712   2.461   0.093   4.681
  902TIP3    H2 2713   2.559   0.196   4.628
  903TIP3   OH2 2714   3.956   2.548   4.395
  903TIP3    H1 2715   3.907   2.620   4.356
  903TIP3    H2 2716   4.045   2.558   4.361
  904TIP3   OH2 2717   0.110   3.175   4.154
  904TIP3    H1 2718   0.133   3.102   4.211
  904TIP3    H2 2719   0.112   3.137   4.066
  905TIP3   OH2 2720   5.728   2.298   2.239
  905TIP3    H1 2721   5.784   2.221   2.252
  905TIP3    H2 2722   5.787   2.365   2.203
  906TIP3   OH2 2723   2.539   5.944   1.817
  906TIP3    H1 2724   2.486   5.890   1.875
  906TIP3    H2 2725   2.526   5.906   1.730
  907TIP3   OH2 2726   5.138   2.803   4.086
  907TIP3    H1 2727   5.068   2.864   4.113
  907TIP3    H2 2728   5.119   2.723   4.134
  908TIP3   OH2 2729   4.627   5.507   2.773
  908TIP3    H1 2730   4.558   5.469   2.829
  908TIP3    H2 2731   4.648   5.590   2.815
  909TIP3   OH2 2732   4.153   2.993   2.474
  909TIP3    H1 2733   4.196   3.050   2.410
  909TIP3    H2 2734   4.157   2.906   2.435
  910TIP3   OH2 2735   0.728   4.936   0.741
  910TIP3    H1 2736   0.775   4.860   0.776
  910TIP3    H2 2737   0.718   4.994   0.816
  911TIP3   OH2 2738   1.621   3.555   2.164
  911TIP3    H1 2739   1.711   3.544   2.133
  911TIP3    H2 2740   1.612   3.649   2.178
  912TIP3   OH2 2741   6.102   4.803   0.798
  912TIP3    H1 2742   6.133   4.809   0.889
  912TIP3    H2 2743   6.160   4.862   0.750
  913TIP3   OH2 2744   6.223   4.889   1.536
  913TIP3    H1 2745   6.229   4.842   1.452
  913TIP3    H2 2746   6.278   4.838   1.596
  914TIP3   OH2 2747   3.170   5.326   1.999
  914TIP3    H1 2748   3.234   5.359   1.935
  914TIP3    H2 2749   3.095   5.301   1.946
  915TIP3   OH2 2750   3.540   1.487   1.195
  915TIP3    H1 2751   3.479   1.518   1.128
  915TIP3    H2 2752   3.578   1.566   1.232
  916TIP3   OH2 2753   5.359   1.303   0.947
  916TIP3    H1 2754   5.328   1.217   0.921
  916TIP3    H2 2755   5.439   1.316   0.896
  917TIP3   OH2 2756   3.527   1.851   1.986
  917TIP3    H1 2757   3.499   1.772   2.034
  917TIP3    H2 2758   3.596   1.888   2.040
  918TIP3   OH2 2759   5.565   5.774   2.748
  918TIP3    H1 2760   5.573   5.870   2.750
  918TIP3    H2 2761   5.630   5.747   2.683
  919TIP3   OH2 2762   1.917   0.981   4.268
  919TIP3    H1 2763   1.977   0.998   4.195
  919TIP3    H2 2764   1.964   1.013   4.345
  920TIP3   OH2 2765   0.312   1.736   3.457
  920TIP3    H1 2766   0.339   1.670   3.393
  920TIP3    H2 2767   0.371   1.810   3.441
  921TIP3   OH2 2768   5.309   0.572   0.871
  921TIP3    H1 2769   5.352   0.499   0.826
  921TIP3    H2 2770   5.312   0.548   0.964
  922TIP3   OH2 2771   5.467   2.160   4.464
  922TIP3    H1 2772   5.402   2.214   4.419
  922TIP3    H2 2773   5.547   2.212   4.461
  923TIP3   OH2 2774   4.464   4.787   2.619
  923TIP3    H1 2775   4.502   4.790   2.531
  923TIP3    H2 2776   4.394   4.852   2.617
  924TIP3   OH2 2777   4.878   4.379   2.433
  924TIP3    H1 2778   4.807   4.442   2.420
  924TIP3    H2 2779   4.837   4.304   2.475
  925TIP3   OH2 2780   2.539   5.840   0.102
  925TIP3    H1 2781   2.585   5.772   0.053
  925TIP3    H2 2782   2.473   5.793   0.152
  926TIP3   OH2 2783   5.171   4.256   3.572
  926TIP3    H1 2784   5.245   4.232   3.517
  926TIP3    H2 2785   5.115   4.310   3.517
  927TIP3   OH2 2786   4.581   3.533   1.842
  927TIP3    H1 2787   4.585   3.506   1.750
  927TIP3    H2 2788   4.580   3.629   1.838
  928TIP3   OH2 2789   6.075   3.971   2.178
  928TIP3    H1 2790   6.016   3.990   2.251
  928TIP3    H2 2791   6.108   3.884   2.195
  929TIP3   OH2 2792   1.183   4.047   1.773
  929TIP3    H1 2793   1.140   4.020   1.854
  929TIP3    H2 2794   1.196   3.966   1.724
  930TIP3   OH2 2795   4.757   2.805   2.038
  930TIP3    H1 2796   4.744   2.721   2.083
  930TIP3    H2 2797   4.708   2.868   2.091
  931TIP3   OH2 2798   3.487   5.080   4.200
  931TIP3    H1 2799   3.581   5.082   4.183
  931TIP3    H2 2800   3.458   5.170   4.185
  932TIP3   OH2 2801   4.804   1.782   3.530
  932TIP3    H1 2802   4.862   1.858   3.531
  932TIP3    H2 2803   4.746   1.797   3.456
  933TIP3   OH2 2804   4.553   0.904   0.368
  933TIP3    H1 2805   4.622   0.969   0.361
  933TIP3    H2 2806   4.597   0.824   0.394
  934TIP3   OH2 2807   2.949   4.980   2.025
  934TIP3    H1 2808   2.952   4.885   2.036
  934TIP3    H2 2809   3.041   5.008   2.030
  935TIP3   OH2 2810   2.151   3.247   4.406
  935TIP3    H1 2811   2.127   3.336   4.379
  935TIP3    H2 2812   2.221   3.260   4.470
  936TIP3   OH2 2813   4.340   1.641   1.761
  936TIP3    H1 2814   4.244   1.642   1.763
  936TIP3    H2 2815   4.365   1.732   1.775
  937TIP3   OH2 2816   0.698   1.644   4.571
  937TIP3    H1 2817   0.785   1.614   4.598
  937TIP3    H2 2818   0.648   1.564   4.558
  938TIP3   OH2 2819   3.675   3.138   1.062
  938TIP3    H1 2820   3.595   3.184   1.040
  938TIP3    H2 2821   3.738   3.207   1.082
  939TIP3   OH2 2822   2.476   5.410   4.700
  939TIP3    H1 2823   2.454   5.404   4.607
  939TIP3    H2 2824   2.570   5.429   4.700
  940TIP3   OH2 2825   5.334   3.109   3.156
  940TIP3    H1 2826   5.423   3.087   3.128
  940TIP3    H2 2827   5.278   3.045   3.113
  941TIP3   OH2 2828   3.000   4.040   3.770
  941TIP3    H1 2829   3.037   4.008   3.852
  941TIP3    H2 2830   3.060   4.010   3.702
  942TIP3   OH2 2831   5.911   3.284   4.614
  942TIP3    H1 2832   5.964   3.246   4.684
  942TIP3    H2 2833   5.828   3.307   4.656
  943TIP3   OH2 2834   3.757   2.544   2.529
  943TIP3    H1 2835   3.807   2.470   2.494
  943TIP3    H2 2836   3.753   2.606   2.456
  944TIP3   OH2 2837   2.471   4.553   2.472
  944TIP3    H1 2838   2.506   4.509   2.550
  944TIP3    H2 2839   2.378   4.566   2.492
  945TIP3   OH2 2840   2.445   4.143   0.124
  945TIP3    H1 2841   2.533   4.171   0.145
  945TIP3    H2 2842   2.421   4.193   0.046
  946TIP3   OH2 2843   4.228   4.319   3.061
  946TIP3    H1 2844   4.138   4.309   3.030
  946TIP3    H2 2845   4.282   4.292   2.987
  947TIP3   OH2 2846   0.471   3.350   3.562
  947TIP3    H1 2847   0.452   3.426   3.506
  947TIP3    H2 2848   0.519   3.290   3.505
  948TIP3   OH2 2849   4.685   2.684   3.856
  948TIP3    H1 2850   4.631   2.659   3.781
  948TIP3    H2 2851   4.741   2.754   3.824
  949TIP3   OH2 2852   5.539   0.523   4.262
  949TIP3    H1 2853   5.553   0.568   4.345
  949TIP3    H2 2854   5.445   0.505   4.260
  950TIP3   OH2 2855   1.097   0.461   4.151
  950TIP3    H1 2856   1.123   0.392   4.212
  950TIP3    H2 2857   1.127   0.542   4.192
  951TIP3   OH2 2858   4.473   3.961   5.169
  951TIP3    H1 2859   4.421   3.884   5.149
  951TIP3    H2 2860   4.563   3.936   5.145
  952TIP3   OH2 2861   2.665   1.573   0.013
  952TIP3    H1 2862   2.753   1.545  -0.012
  952TIP3    H2 2863   2.678   1.626   0.092
  953TIP3   OH2 2864   0.495   2.623   3.055
  953TIP3    H1 2865   0.421   2.617   2.995
  953TIP3    H2 2866   0.570   2.595   3.003
  954TIP3   OH2 2867   6.188   4.535   3.362
  954TIP3    H1 2868   6.107   4.484   3.370
  954TIP3    H2 2869   6.172   4.613   3.415
  955TIP3   OH2 2870   5.693   2.019   3.037
  955TIP3    H1 2871   5.769   1.962   3.030
  955TIP3    H2 2872   5.623   1.961   3.066
  956TIP3   OH2 2873   1.076   1.050   0.569
  956TIP3    H1 2874   1.109   0.968   0.607
  956TIP3    H2 2875   1.152   1.087   0.524
  957TIP3   OH2 2876   2.716   0.707   0.053
  957TIP3    H1 2877   2.714   0.762   0.131
  957TIP3    H2 2878   2.781   0.639   0.072
  958TIP3   OH2 2879   3.506   1.553   3.765
  958TIP3    H1 2880   3.458   1.590   3.839
  958TIP3    H2 2881   3.580   1.612   3.752
  959TIP3   OH2 2882   4.308   3.867   2.956
  959TIP3    H1 2883   4.337   3.796   2.899
  959TIP3    H2 2884   4.389   3.905   2.989
  960TIP3   OH2 2885   5.598   1.388   2.500
  960TIP3    H1 2886   5.626   1.437   2.423
  960TIP3    H2 2887   5.526   1.333   2.468
  961TIP3   OH2 2888   4.377   0.978   4.509
  961TIP3    H1 2889   4.412   1.059   4.473
  961TIP3    H2 2890   4.387   0.914   4.438
  962TIP3   OH2 2891   0.862   1.852   1.583
  962TIP3    H1 2892   0.941   1.826   1.535
  962TIP3    H2 2893   0.896   1.902   1.658
  963TIP3   OH2 2894   4.139   4.566   4.493
  963TIP3    H1 2895   4.182   4.541   4.575
  963TIP3    H2 2896   4.171   4.501   4.429
  964TIP3   OH2 2897   0.272   0.438   1.144
  964TIP3    H1 2898   0.203   0.387   1.103
  964TIP3    H2 2899   0.353   0.408   1.102
  965TIP3   OH2 2900   1.688   1.449   4.754
  965TIP3    H1 2901   1.778   1.437   4.727
  965TIP3    H2 2902   1.660   1.530   4.710
  966TIP3   OH2 2903   0.464   4.503   1.725
  966TIP3    H1 2904   0.422   4.545   1.800
  966TIP3    H2 2905   0.483   4.576   1.665
  967TIP3   OH2 2906   5.337   0.925   3.169
  967TIP3    H1 2907   5.251   0.935   3.127
  967TIP3    H2 2908   5.320   0.865   3.242
  968TIP3   OH2 2909   2.500   3.022   4.003
  968TIP3    H1 2910   2.464   2.968   3.933
  968TIP3    H2 2911   2.595   3.012   3.995
  969TIP3   OH2 2912   4.914   3.407   4.178
  969TIP3    H1 2913   4.843   3.471   4.175
  969TIP3    H2 2914   4.905   3.356   4.098
  970TIP3   OH2 2915   5.497   3.051   4.467
  970TIP3    H1 2916   5.581   3.091   4.447
  970TIP3    H2 2917   5.440   3.125   4.490
  971TIP3   OH2 2918   4.668   1.296   0.583
  971TIP3    H1 2919   4.620   1.365   0.629
  971TIP3    H2 2920   4.695   1.338   0.501
  972TIP3   OH2 2921   5.720   1.324   1.840
  972TIP3    H1 2922   5.782   1.286   1.902
  972TIP3    H2 2923   5.765   1.401   1.806
  973TIP3   OH2 2924   1.273   3.072   1.435
  973TIP3    H1 2925   1.317   3.105   1.513
  973TIP3    H2 2926   1.219   3.145   1.404
  974TIP3   OH2 2927   3.262   4.832   1.602
  974TIP3    H1 2928   3.350   4.803   1.629
  974TIP3    H2 2929   3.221   4.753   1.567
  975TIP3   OH2 2930   4.166   1.087   0.077
  975TIP3    H1 2931   4.230   1.059   0.142
  975TIP3    H2 2932   4.119   1.159   0.118
  976TIP3   OH2 2933   3.499   2.038   4.403
  976TIP3    H1 2934   3.495   1.965   4.466
  976TIP3    H2 2935   3.446   2.008   4.329
  977TIP3   OH2 2936   2.735   0.643   1.556
  977TIP3    H1 2937   2.662   0.664   1.615
  977TIP3    H2 2938   2.809   0.627   1.615
  978TIP3   OH2 2939   4.762   3.837   1.504
  978TIP3    H1 2940   4.754   3.926   1.540
  978TIP3    H2 2941   4.856   3.826   1.489
  979TIP3   OH2 2942   6.097   4.704   3.557
  979TIP3    H1 2943   6.108   4.795   3.584
  979TIP3    H2 2944   6.139   4.652   3.627
  980TIP3   OH2 2945   5.852   1.082   2.294
  980TIP3    H1 2946   5.874   0.997   2.332
  980TIP3    H2 2947   5.860   1.144   2.367
  981TIP3   OH2 2948   2.974   4.825   1.098
  981TIP3    H1 2949   2.988   4.822   1.192
  981TIP3    H2 2950   3.059   4.849   1.062
  982TIP3   OH2 2951   3.171   5.095   1.377
  982TIP3    H1 2952   3.217   5.135   1.303
  982TIP3    H2 2953   3.236   5.092   1.447
  983TIP3   OH2 2954   6.234   2.498   2.004
  983TIP3    H1 2955   6.296   2.518   1.934
  983TIP3    H2 2956   6.248   2.567   2.069
  984TIP3   OH2 2957   3.927   0.709   3.144
  984TIP3    H1 2958   3.832   0.704   3.134
  984TIP3    H2 2959   3.956   0.766   3.072
  985TIP3   OH2 2960   3.823   0.594   4.809
  985TIP3    H1 2961   3.874   0.515   4.792
  985TIP3    H2 2962   3.884   0.652   4.856
  986TIP3   OH2 2963   4.802   1.474   4.891
  986TIP3    H1 2964   4.711   1.493   4.868
  986TIP3    H2 2965   4.810   1.502   4.982
  987TIP3   OH2 2966   4.766   2.922   4.869
  987TIP3    H1 2967   4.687   2.953   4.825
  987TIP3    H2 2968   4.797   2.849   4.814
  988TIP3   OH2 2969   3.062   3.942   1.012
  988TIP3    H1 2970   3.131   3.887   1.051
  988TIP3    H2 2971   3.070   3.927   0.918
  989TIP3   OH2 2972   1.113   5.418   0.469
  989TIP3    H1 2973   1.100   5.339   0.417
  989TIP3    H2 2974   1.027   5.438   0.505
  990TIP3   OH2 2975   4.280   4.819   1.022
  990TIP3    H1 2976   4.248   4.908   1.035
  990TIP3    H2 2977   4.288   4.811   0.927
  991TIP3   OH2 2978   4.976   4.640   2.502
  991TIP3    H1 2979   4.944   4.560   2.460
  991TIP3    H2 2980   5.046   4.611   2.559
  992TIP3   OH2 2981   2.455   2.367   1.128
  992TIP3    H1 2982   2.376   2.401   1.171
  992TIP3    H2 2983   2.527   2.403   1.180
  993TIP3   OH2 2984   2.565   1.301   2.699
  993TIP3    H1 2985   2.608   1.385   2.683
  993TIP3    H2 2986   2.618   1.237   2.651
  994TIP3   OH2 2987   0.750   2.388   2.541
  994TIP3    H1 2988   0.798   2.453   2.592
  994TIP3    H2 2989   0.772   2.407   2.450
  995TIP3   OH2 2990   4.150   1.680   2.937
  995TIP3    H1 2991   4.159   1.682   3.032
  995TIP3    H2 2992   4.097   1.602   2.919
  996TIP3   OH2 2993   0.035   5.564   3.698
  996TIP3    H1 2994  -0.056   5.533   3.693
  996TIP3    H2 2995   0.078   5.523   3.623
  997TIP3   OH2 2996   5.895   5.853   0.889
  997TIP3    H1 2997   5.901   5.791   0.962
  997TIP3    H2 2998   5.806   5.843   0.856
  998TIP3   OH2 2999   5.427   2.203   0.647
  998TIP3    H1 3000   5.444   2.125   0.593
  998TIP3    H2 3001   5.472   2.274   0.601
  999TIP3   OH2 3002   4.241   1.788   4.956
  999TIP3    H1 3003   4.196   1.778   4.872
  999TIP3    H2 3004   4.195   1.727   5.015
 1000TIP3   OH2 3005   2.369   3.194   3.061
 1000TIP3    H1 3006   2.338   3.251   3.131
 1000TIP3    H2 3007   2.344   3.106   3.088
 1001TIP3   OH2 3008   3.106   4.216   0.656
 1001TIP3    H1 3009   3.095   4.240   0.564
 1001TIP3    H2 3010   3.034   4.260   0.701
 1002TIP3   OH2 3011   1.060   3.970   0.884
 1002TIP3    H1 3012   0.994   3.905   0.906
 1002TIP3    H2 3013   1.065   3.968   0.789
 1003TIP3   OH2 3014   0.502   4.957   4.630
 1003TIP3    H1 3015   0.517   5.036   4.578
 1003TIP3    H2 3016   0.418   4.923   4.599
 1004TIP3   OH2 3017   3.683   5.321   2.434
 1004TIP3    H1 3018   3.642   5.266   2.368
 1004TIP3    H2 3019   3.618   5.389   2.453
 1005TIP3   OH2 3020   2.021   3.769   2.845
 1005TIP3    H1 3021   2.016   3.767   2.749
 1005TIP3    H2 3022   2.095   3.713   2.867
 1006TIP3   OH2 3023   4.963   4.873   1.452
 1006TIP3    H1 3024   5.009   4.791   1.432
 1006TIP3    H2 3025   4.917   4.895   1.372
 1007TIP3   OH2 3026   3.094   4.578   2.777
 1007TIP3    H1 3027   3.066   4.599   2.688
 1007TIP3    H2 3028   3.118   4.663   2.814
 1008TIP3   OH2 3029   2.177   5.335   0.349
 1008TIP3    H1 3030   2.200   5.358   0.259
 1008TIP3    H2 3031   2.083   5.318   0.346
 1009TIP3   OH2 3032   1.043   1.162   2.798
 1009TIP3    H1 3033   1.017   1.164   2.706
 1009TIP3    H2 3034   1.115   1.099   2.802
 1010TIP3   OH2 3035   2.567   2.139   1.555
 1010TIP3    H1 3036   2.594   2.230   1.566
 1010TIP3    H2 3037   2.497   2.143   1.490
 1011TIP3   OH2 3038   5.155   1.089   0.466
 1011TIP3    H1 3039   5.110   1.008   0.490
 1011TIP3    H2 3040   5.179   1.078   0.374
 1012TIP3   OH2 3041   2.443   3.439   0.927
 1012TIP3    H1 3042   2.357   3.422   0.963
 1012TIP3    H2 3043   2.429   3.444   0.832
 1013TIP3   OH2 3044   3.628   2.576   2.806
 1013TIP3    H1 3045   3.558   2.616   2.755
 1013TIP3    H2 3046   3.691   2.545   2.741
 1014TIP3   OH2 3047   2.790   3.664   1.976
 1014TIP3    H1 3048   2.856   3.596   1.963
 1014TIP3    H2 3049   2.732   3.629   2.044
 1015TIP3   OH2 3050   5.412   1.944   4.621
 1015TIP3    H1 3051   5.440   2.000   4.549
 1015TIP3    H2 3052   5.464   1.974   4.696
 1016TIP3   OH2 3053   2.686   3.645   1.178
 1016TIP3    H1 3054   2.615   3.696   1.218
 1016TIP3    H2 3055   2.762   3.703   1.182
 1017TIP3   OH2 3056   4.840   0.234   4.511
 1017TIP3    H1 3057   4.873   0.323   4.510
 1017TIP3    H2 3058   4.837   0.208   4.419
 1018TIP3   OH2 3059   0.576   1.267   3.335
 1018TIP3    H1 3060   0.646   1.257   3.270
 1018TIP3    H2 3061   0.504   1.214   3.301
 1019TIP3   OH2 3062   2.680   3.760   4.785
 1019TIP3    H1 3063   2.665   3.811   4.864
 1019TIP3    H2 3064   2.717   3.677   4.816
 1020TIP3   OH2 3065   2.181   4.582   3.818
 1020TIP3    H1 3066   2.116   4.653   3.815
 1020TIP3    H2 3067   2.231   4.599   3.897
 1021TIP3   OH2 3068   5.249   1.041   0.202
 1021TIP3    H1 3069   5.299   1.017   0.124
 1021TIP3    H2 3070   5.165   0.998   0.191
 1022TIP3   OH2 3071   4.916   5.317   4.762
 1022TIP3    H1 3072   5.002   5.309   4.722
 1022TIP3    H2 3073   4.927   5.382   4.832
 1023TIP3   OH2 3074   1.549   1.417   4.988
 1023TIP3    H1 3075   1.598   1.440   4.908
 1023TIP3    H2 3076   1.467   1.467   4.980
 1024TIP3   OH2 3077   3.376   4.301   4.334
 1024TIP3    H1 3078   3.310   4.256   4.386
 1024TIP3    H2 3079   3.328   4.334   4.258
 1025TIP3   OH2 3080   5.663   2.535   3.842
 1025TIP3    H1 3081   5.609   2.457   3.855
 1025TIP3    H2 3082   5.752   2.505   3.857
 1026TIP3   OH2 3083   1.500   2.583   2.079
 1026TIP3    H1 3084   1.575   2.605   2.134
 1026TIP3    H2 3085   1.454   2.514   2.128
 1027TIP3   OH2 3086   4.202   2.806   4.443
 1027TIP3    H1 3087   4.217   2.714   4.420
 1027TIP3    H2 3088   4.256   2.855   4.381
 1028TIP3   OH2 3089   3.198   2.655   0.415
 1028TIP3    H1 3090   3.212   2.562   0.398
 1028TIP3    H2 3091   3.281   2.685   0.453
 1029TIP3   OH2 3092   5.647   0.177   3.354
 1029TIP3    H1 3093   5.657   0.269   3.377
 1029TIP3    H2 3094   5.554   0.167   3.333
 1030TIP3   OH2 3095   6.188   3.717   1.355
 1030TIP3    H1 3096   6.158   3.715   1.265
 1030TIP3    H2 3097   6.197   3.624   1.379
 1031TIP3   OH2 3098   3.705   5.550   4.212
 1031TIP3    H1 3099   3.660   5.468   4.231
 1031TIP3    H2 3100   3.751   5.533   4.129
 1032TIP3   OH2 3101   2.554   5.577   4.956
 1032TIP3    H1 3102   2.503   5.584   4.875
 1032TIP3    H2 3103   2.595   5.663   4.966
 1033TIP3   OH2 3104   1.995   5.726   1.924
 1033TIP3    H1 3105   2.065   5.736   1.988
 1033TIP3    H2 3106   1.921   5.692   1.974
 1034TIP3   OH2 3107   0.579   4.579   0.887
 1034TIP3    H1 3108   0.555   4.538   0.804
 1034TIP3    H2 3109   0.495   4.599   0.929
 1035TIP3   OH2 3110   1.089   2.691   3.768
 1035TIP3    H1 3111   1.044   2.634   3.705
 1035TIP3    H2 3112   1.068   2.653   3.854
 1036TIP3   OH2 3113   1.772   5.570   3.215
 1036TIP3    H1 3114   1.741   5.649   3.171
 1036TIP3    H2 3115   1.866   5.584   3.227
 1037TIP3   OH2 3116   1.689   4.779   3.648
 1037TIP3    H1 3117   1.757   4.828   3.602
 1037TIP3    H2 3118   1.737   4.724   3.710
 1038TIP3   OH2 3119   0.778   3.306   0.190
 1038TIP3    H1 3120   0.799   3.371   0.257
 1038TIP3    H2 3121   0.861   3.288   0.147
 1039TIP3   OH2 3122   6.175   4.022   1.780
 1039TIP3    H1 3123   6.169   4.036   1.686
 1039TIP3    H2 3124   6.084   4.029   1.811
 1040TIP3   OH2 3125   0.661   5.723   0.884
 1040TIP3    H1 3126   0.720   5.787   0.924
 1040TIP3    H2 3127   0.705   5.639   0.896
 1041TIP3   OH2 3128   5.979   5.292   4.896
 1041TIP3    H1 3129   5.907   5.355   4.895
 1041TIP3    H2 3130   5.939   5.210   4.924
 1042TIP3   OH2 3131   4.370   3.512   2.607
 1042TIP3    H1 3132   4.443   3.537   2.551
 1042TIP3    H2 3133   4.380   3.565   2.686
 1043TIP3   OH2 3134   2.080   2.711   2.721
 1043TIP3    H1 3135   2.167   2.705   2.760
 1043TIP3    H2 3136   2.046   2.622   2.722
 1044TIP3   OH2 3137   2.456   2.090   2.547
 1044TIP3    H1 3138   2.437   1.998   2.528
 1044TIP3    H2 3139   2.466   2.094   2.642
 1045TIP3   OH2 3140   6.318   1.474   3.569
 1045TIP3    H1 3141   6.223   1.481   3.579
 1045TIP3    H2 3142   6.352   1.554   3.609
 1046TIP3   OH2 3143   0.008   2.344   3.846
 1046TIP3    H1 3144  -0.037   2.427   3.829
 1046TIP3    H2 3145   0.092   2.370   3.883
 1047TIP3   OH2 3146   2.010   3.552   1.094
 1047TIP3    H1 3147   1.981   3.492   1.026
 1047TIP3    H2 3148   2.049   3.625   1.046
 1048TIP3   OH2 3149   5.348   5.999   3.319
 1048TIP3    H1 3150   5.323   5.907   3.312
 1048TIP3    H2 3151   5.346   6.017   3.413
 1049TIP3   OH2 3152   4.940   2.164   2.510
 1049TIP3    H1 3153   4.853   2.167   2.469
 1049TIP3    H2 3154   4.966   2.073   2.503
 1050TIP3   OH2 3155   1.304   4.406   0.870
 1050TIP3    H1 3156   1.320   4.483   0.815
 1050TIP3    H2 3157   1.312   4.331   0.810
 1051TIP3   OH2 3158   3.479   0.976   3.053
 1051TIP3    H1 3159   3.491   0.896   3.103
 1051TIP3    H2 3160   3.407   1.022   3.099
 1052TIP3   OH2 3161   5.468   5.121   2.425
 1052TIP3    H1 3162   5.386   5.167   2.442
 1052TIP3    H2 3163   5.440   5.041   2.379
 1053TIP3   OH2 3164   1.599   5.314   2.877
 1053TIP3    H1 3165   1.558   5.290   2.960
 1053TIP3    H2 3166   1.527   5.315   2.814
 1054TIP3   OH2 3167   3.089   5.527   4.733
 1054TIP3    H1 3168   3.039   5.484   4.802
 1054TIP3    H2 3169   3.107   5.614   4.768
 1055TIP3   OH2 3170   5.113   2.957   1.535
 1055TIP3    H1 3171   5.100   2.880   1.590
 1055TIP3    H2 3172   5.206   2.977   1.543
 1056TIP3   OH2 3173   4.270   5.599   1.917
 1056TIP3    H1 3174   4.276   5.551   1.834
 1056TIP3    H2 3175   4.294   5.689   1.894
 1057TIP3   OH2 3176   1.581   0.445   3.665
 1057TIP3    H1 3177   1.549   0.448   3.755
 1057TIP3    H2 3178   1.507   0.410   3.615
 1058TIP3   OH2 3179   3.143   3.624   2.026
 1058TIP3    H1 3180   3.168   3.587   2.111
 1058TIP3    H2 3181   3.077   3.564   1.993
 1059TIP3   OH2 3182   4.425   1.105   2.025
 1059TIP3    H1 3183   4.482   1.131   2.099
 1059TIP3    H2 3184   4.339   1.092   2.065
 1060TIP3   OH2 3185   6.113   2.703   2.459
 1060TIP3    H1 3186   6.136   2.611   2.472
 1060TIP3    H2 3187   6.112   2.740   2.547
 1061TIP3   OH2 3188   4.282   4.629   3.653
 1061TIP3    H1 3189   4.275   4.537   3.629
 1061TIP3    H2 3190   4.271   4.676   3.571
 1062TIP3   OH2 3191   3.989   3.010   2.920
 1062TIP3    H1 3192   3.954   2.985   2.835
 1062TIP3    H2 3193   4.029   2.929   2.954
 1063TIP3   OH2 3194   0.993   5.069   0.943
 1063TIP3    H1 3195   1.023   5.087   0.855
 1063TIP3    H2 3196   0.988   5.155   0.985
 1064TIP3   OH2 3197   1.510   5.374   3.717
 1064TIP3    H1 3198   1.576   5.375   3.787
 1064TIP3    H2 3199   1.537   5.302   3.660
 1065TIP3   OH2 3200   4.602   4.048   1.647
 1065TIP3    H1 3201   4.644   4.133   1.659
 1065TIP3    H2 3202   4.511   4.070   1.624
 1066TIP3   OH2 3203   4.474   3.220   3.195
 1066TIP3    H1 3204   4.521   3.303   3.207
 1066TIP3    H2 3205   4.541   3.153   3.209
 1067TIP3   OH2 3206   4.943   5.763   0.724
 1067TIP3    H1 3207   4.879   5.774   0.653
 1067TIP3    H2 3208   5.019   5.722   0.682
 1068TIP3   OH2 3209   2.111   1.540   0.503
 1068TIP3    H1 3210   2.116   1.600   0.429
 1068TIP3    H2 3211   2.201   1.510   0.516
 1069TIP3   OH2 3212   5.766   2.261   3.629
 1069TIP3    H1 3213   5.712   2.202   3.682
 1069TIP3    H2 3214   5.844   2.276   3.682
 1070TIP3   OH2 3215   4.825   3.118   3.261
 1070TIP3    H1 3216   4.795   3.201   3.223
 1070TIP3    H2 3217   4.911   3.139   3.298
 1071TIP3   OH2 3218   1.367   0.340   2.814
 1071TIP3    H1 3219   1.384   0.400   2.741
 1071TIP3    H2 3220   1.445   0.347   2.869
 1072TIP3   OH2 3221   4.912   0.076   3.079
 1072TIP3    H1 3222   4.821   0.099   3.062
 1072TIP3    H2 3223   4.962   0.149   3.045
 1073TIP3   OH2 3224   1.907   0.846   3.789
 1073TIP3    H1 3225   2.002   0.833   3.796
 1073TIP3    H2 3226   1.877   0.850   3.880
 1074TIP3   OH2 3227   1.113   4.411   3.851
 1074TIP3    H1 3228   1.038   4.354   3.837
 1074TIP3    H2 3229   1.184   4.353   3.879
 1075TIP3   OH2 3230   2.894   4.930   1.434
 1075TIP3    H1 3231   2.989   4.927   1.425
 1075TIP3    H2 3232   2.877   5.007   1.488
 1076TIP3   OH2 3233   3.165   4.529   3.591
 1076TIP3    H1 3234   3.167   4.587   3.515
 1076TIP3    H2 3235   3.154   4.441   3.554
 1077TIP3   OH2 3236   1.378   1.251   0.867
 1077TIP3    H1 3237   1.428   1.179   0.906
 1077TIP3    H2 3238   1.432   1.281   0.794
 1078TIP3   OH2 3239   5.163   1.539   1.352
 1078TIP3    H1 3240   5.158   1.458   1.404
 1078TIP3    H2 3241   5.255   1.565   1.357
 1079TIP3   OH2 3242   2.200   0.802   1.996
 1079TIP3    H1 3243   2.125   0.860   2.011
 1079TIP3    H2 3244   2.199   0.742   2.070
 1080TIP3   OH2 3245   5.654   5.865   0.758
 1080TIP3    H1 3246   5.649   5.927   0.686
 1080TIP3    H2 3247   5.671   5.780   0.716
 1081TIP3   OH2 3248   3.550   3.283   3.723
 1081TIP3    H1 3249   3.576   3.326   3.805
 1081TIP3    H2 3250   3.530   3.193   3.749
 1082TIP3   OH2 3251   3.846   2.337   2.389
 1082TIP3    H1 3252   3.861   2.273   2.460
 1082TIP3    H2 3253   3.808   2.285   2.318
 1083TIP3   OH2 3254   1.684   5.558   2.491
 1083TIP3    H1 3255   1.755   5.570   2.554
 1083TIP3    H2 3256   1.625   5.495   2.532
 1084TIP3   OH2 3257   1.098   0.605   5.157
 1084TIP3    H1 3258   1.180   0.578   5.116
 1084TIP3    H2 3259   1.030   0.570   5.100
 1085TIP3   OH2 3260   4.467   4.096   2.568
 1085TIP3    H1 3261   4.393   4.045   2.602
 1085TIP3    H2 3262   4.535   4.088   2.634
 1086TIP3   OH2 3263   0.184   3.999   2.403
 1086TIP3    H1 3264   0.234   3.921   2.426
 1086TIP3    H2 3265   0.119   4.008   2.473
 1087TIP3   OH2 3266   4.507   5.307   0.782
 1087TIP3    H1 3267   4.563   5.295   0.705
 1087TIP3    H2 3268   4.569   5.317   0.855
 1088TIP3   OH2 3269   1.058   1.510   3.030
 1088TIP3    H1 3270   1.093   1.588   2.986
 1088TIP3    H2 3271   1.089   1.520   3.121
 1089TIP3   OH2 3272   4.348   0.444   4.930
 1089TIP3    H1 3273   4.326   0.457   5.022
 1089TIP3    H2 3274   4.442   0.423   4.931
 1090TIP3   OH2 3275   2.375   2.064   4.307
 1090TIP3    H1 3276   2.436   2.131   4.337
 1090TIP3    H2 3277   2.314   2.110   4.250
 1091TIP3   OH2 3278   2.229   2.189   3.514
 1091TIP3    H1 3279   2.143   2.229   3.506
 1091TIP3    H2 3280   2.216   2.098   3.485
 1092TIP3   OH2 3281   0.638   2.773   4.059
 1092TIP3    H1 3282   0.564   2.821   4.095
 1092TIP3    H2 3283   0.662   2.711   4.127
 1093TIP3   OH2 3284   2.814   0.567   4.392
 1093TIP3    H1 3285   2.725   0.545   4.362
 1093TIP3    H2 3286   2.811   0.662   4.406
 1094TIP3   OH2 3287   3.586   1.267   0.017
 1094TIP3    H1 3288   3.637   1.300   0.092
 1094TIP3    H2 3289   3.640   1.288  -0.059
 1095TIP3   OH2 3290   0.673   3.867   3.675
 1095TIP3    H1 3291   0.638   3.901   3.758
 1095TIP3    H2 3292   0.639   3.777   3.670
 1096TIP3   OH2 3293   3.828   0.281   4.890
 1096TIP3    H1 3294   3.834   0.341   4.964
 1096TIP3    H2 3295   3.798   0.198   4.928
 1097TIP3   OH2 3296   6.277   1.959   1.034
 1097TIP3    H1 3297   6.327   1.996   1.107
 1097TIP3    H2 3298   6.282   1.864   1.048
 1098TIP3   OH2 3299   3.523   0.164   1.542
 1098TIP3    H1 3300   3.565   0.143   1.625
 1098TIP3    H2 3301   3.570   0.112   1.477
 1099TIP3   OH2 3302   1.964   2.832   0.145
 1099TIP3    H1 3303   1.869   2.832   0.154
 1099TIP3    H2 3304   1.996   2.799   0.229
 1100TIP3   OH2 3305   4.672   1.852   4.787
 1100TIP3    H1 3306   4.625   1.770   4.769
 1100TIP3    H2 3307   4.602   1.917   4.800
 1101TIP3   OH2 3308   0.115   2.396   3.162
 1101TIP3    H1 3309   0.139   2.327   3.224
 1101TIP3    H2 3310   0.135   2.358   3.076
 1102TIP3   OH2 3311   2.184   5.606   1.081
 1102TIP3    H1 3312   2.223   5.693   1.078
 1102TIP3    H2 3313   2.242   5.556   1.138
 1103TIP3   OH2 3314   1.174   2.912   4.875
 1103TIP3    H1 3315   1.216   2.966   4.808
 1103TIP3    H2 3316   1.191   2.959   4.957
 1104TIP3   OH2 3317   6.184   2.226   2.184
 1104TIP3    H1 3318   6.261   2.246   2.239
 1104TIP3    H2 3319   6.165   2.308   2.139
 1105TIP3   OH2 3320   5.438   5.851   0.913
 1105TIP3    H1 3321   5.473   5.837   1.001
 1105TIP3    H2 3322   5.514   5.875   0.860
 1106TIP3   OH2 3323   2.135   3.084   2.336
 1106TIP3    H1 3324   2.123   3.015   2.401
 1106TIP3    H2 3325   2.109   3.043   2.253
 1107TIP3   OH2 3326   1.566   5.971   0.120
 1107TIP3    H1 3327   1.619   5.891   0.124
 1107TIP3    H2 3328   1.490   5.952   0.175
 1108TIP3   OH2 3329   5.935   5.686   3.986
 1108TIP3    H1 3330   5.992   5.659   4.057
 1108TIP3    H2 3331   5.888   5.763   4.019
 1109TIP3   OH2 3332   5.745   3.955   2.522
 1109TIP3    H1 3333   5.740   3.995   2.609
 1109TIP3    H2 3334   5.815   4.003   2.477
 1110TIP3   OH2 3335   3.500   0.221   0.346
 1110TIP3    H1 3336   3.528   0.196   0.258
 1110TIP3    H2 3337   3.497   0.138   0.394
 1111TIP3   OH2 3338   1.532   2.637   3.488
 1111TIP3    H1 3339   1.483   2.643   3.570
 1111TIP3    H2 3340   1.616   2.679   3.507
 1112TIP3   OH2 3341   3.827   2.702   3.400
 1112TIP3    H1 3342   3.798   2.736   3.316
 1112TIP3    H2 3343   3.746   2.694   3.452
 1113TIP3   OH2 3344   5.484   2.354   2.710
 1113TIP3    H1 3345   5.496   2.422   2.644
 1113TIP3    H2 3346   5.461   2.401   2.790
 1114TIP3   OH2 3347   2.319   0.488   1.971
 1114TIP3    H1 3348   2.262   0.463   1.898
 1114TIP3    H2 3349   2.333   0.407   2.019
 1115TIP3   OH2 3350   6.100   0.321   3.090
 1115TIP3    H1 3351   6.028   0.333   3.152
 1115TIP3    H2 3352   6.062   0.268   3.019
 1116TIP3   OH2 3353   4.262   1.104   3.650
 1116TIP3    H1 3354   4.219   1.026   3.687
 1116TIP3    H2 3355   4.190   1.158   3.619
 1117TIP3   OH2 3356   1.490   4.757   3.465
 1117TIP3    H1 3357   1.518   4.760   3.374
 1117TIP3    H2 3358   1.568   4.784   3.515
 1118TIP3   OH2 3359   4.796   0.685   0.100
 1118TIP3    H1 3360   4.753   0.600   0.091
 1118TIP3    H2 3361   4.879   0.664   0.144
 1119TIP3   OH2 3362   5.728   1.599   2.375
 1119TIP3    H1 3363   5.772   1.644   2.303
 1119TIP3    H2 3364   5.729   1.663   2.447
 1120TIP3   OH2 3365   5.830   5.032   1.221
 1120TIP3    H1 3366   5.792   4.976   1.153
 1120TIP3    H2 3367   5.775   5.017   1.298
 1121TIP3   OH2 3368   2.131   1.096   3.697
 1121TIP3    H1 3369   2.163   1.020   3.746
 1121TIP3    H2 3370   2.056   1.063   3.648
 1122TIP3   OH2 3371   1.614   0.126   3.874
 1122TIP3    H1 3372   1.544   0.179   3.836
 1122TIP3    H2 3373   1.569   0.058   3.924
 1123TIP3   OH2 3374   1.822   2.962   3.998
 1123TIP3    H1 3375   1.781   2.974   4.084
 1123TIP3    H2 3376   1.906   3.007   4.005
 1124TIP3   OH2 3377   0.225   3.186   1.099
 1124TIP3    H1 3378   0.266   3.224   1.021
 1124TIP3    H2 3379   0.132   3.204   1.089
 1125TIP3   OH2 3380   2.776   4.679   3.902
 1125TIP3    H1 3381   2.845   4.618   3.878
 1125TIP3    H2 3382   2.823   4.755   3.937
 1126TIP3   OH2 3383   5.623   2.162   1.233
 1126TIP3    H1 3384   5.607   2.069   1.253
 1126TIP3    H2 3385   5.653   2.199   1.316
 1127TIP3   OH2 3386   6.079   1.855   3.713
 1127TIP3    H1 3387   6.091   1.796   3.787
 1127TIP3    H2 3388   6.145   1.923   3.725
 1128TIP3   OH2 3389   3.217   4.534   0.052
 1128TIP3    H1 3390   3.239   4.521  -0.040
 1128TIP3    H2 3391   3.130   4.573   0.050
 1129TIP3   OH2 3392   5.738   0.649   2.548
 1129TIP3    H1 3393   5.670   0.583   2.530
 1129TIP3    H2 3394   5.767   0.631   2.637
 1130TIP3   OH2 3395   0.852   5.007   3.615
 1130TIP3    H1 3396   0.893   4.949   3.678
 1130TIP3    H2 3397   0.758   4.999   3.632
 1131TIP3   OH2 3398   0.543   3.344   3.845
 1131TIP3    H1 3399   0.484   3.398   3.898
 1131TIP3    H2 3400   0.504   3.344   3.758
 1132TIP3   OH2 3401   5.500   2.828   2.674
 1132TIP3    H1 3402   5.556   2.751   2.667
 1132TIP3    H2 3403   5.423   2.806   2.620
 1133TIP3   OH2 3404   2.831   1.188   2.018
 1133TIP3    H1 3405   2.858   1.238   1.941
 1133TIP3    H2 3406   2.837   1.250   2.091
 1134TIP3   OH2 3407   4.835   2.451   0.097
 1134TIP3    H1 3408   4.817   2.471   0.189
 1134TIP3    H2 3409   4.764   2.392   0.071
 1135TIP3   OH2 3410   0.960   3.836   4.694
 1135TIP3    H1 3411   1.003   3.878   4.769
 1135TIP3    H2 3412   1.031   3.803   4.640
 1136TIP3   OH2 3413   5.363   0.350   4.504
 1136TIP3    H1 3414   5.341   0.426   4.450
 1136TIP3    H2 3415   5.289   0.290   4.493
 1137TIP3   OH2 3416   5.009   3.580   1.475
 1137TIP3    H1 3417   5.077   3.519   1.502
 1137TIP3    H2 3418   5.057   3.652   1.435
 1138TIP3   OH2 3419   4.225   3.646   2.038
 1138TIP3    H1 3420   4.272   3.565   2.021
 1138TIP3    H2 3421   4.188   3.634   2.126
 1139TIP3   OH2 3422   3.298   2.496   2.218
 1139TIP3    H1 3423   3.295   2.541   2.302
 1139TIP3    H2 3424   3.237   2.422   2.228
 1140TIP3   OH2 3425   3.797   2.175   3.700
 1140TIP3    H1 3426   3.882   2.220   3.708
 1140TIP3    H2 3427   3.733   2.246   3.697
 1141TIP3   OH2 3428   1.438   0.273   1.983
 1141TIP3    H1 3429   1.365   0.334   1.973
 1141TIP3    H2 3430   1.513   0.319   1.944
 1142TIP3   OH2 3431   3.733   5.530   1.441
 1142TIP3    H1 3432   3.753   5.623   1.431
 1142TIP3    H2 3433   3.819   5.489   1.453
 1143TIP3   OH2 3434   4.919   5.601   4.135
 1143TIP3    H1 3435   4.835   5.646   4.141
 1143TIP3    H2 3436   4.905   5.517   4.178
 1144TIP3   OH2 3437   3.312   3.478   3.778
 1144TIP3    H1 3438   3.390   3.525   3.807
 1144TIP3    H2 3439   3.340   3.428   3.702
 1145TIP3   OH2 3440   1.656   0.224   3.499
 1145TIP3    H1 3441   1.734   0.169   3.501
 1145TIP3    H2 3442   1.671   0.289   3.568
 1146TIP3   OH2 3443   5.485   0.081   4.154
 1146TIP3    H1 3444   5.563   0.093   4.207
 1146TIP3    H2 3445   5.519   0.059   4.067
 1147TIP3   OH2 3446   2.337   5.804   4.598
 1147TIP3    H1 3447   2.359   5.874   4.658
 1147TIP3    H2 3448   2.318   5.729   4.654
 1148TIP3   OH2 3449   1.657   2.718   2.578
 1148TIP3    H1 3450   1.716   2.716   2.653
 1148TIP3    H2 3451   1.617   2.631   2.575
 1149TIP3   OH2 3452   4.402   1.234   3.428
 1149TIP3    H1 3453   4.366   1.189   3.505
 1149TIP3    H2 3454   4.332   1.291   3.398
 1150TIP3   OH2 3455   5.992   4.346   4.471
 1150TIP3    H1 3456   5.906   4.386   4.455
 1150TIP3    H2 3457   6.007   4.358   4.565
 1151TIP3   OH2 3458   2.643   3.969   2.923
 1151TIP3    H1 3459   2.689   4.005   2.999
 1151TIP3    H2 3460   2.569   3.921   2.960
 1152TIP3   OH2 3461   3.046   5.770   5.078
 1152TIP3    H1 3462   3.126   5.718   5.089
 1152TIP3    H2 3463   2.975   5.707   5.087
 1153TIP3   OH2 3464   5.638   4.967   1.398
 1153TIP3    H1 3465   5.626   5.036   1.463
 1153TIP3    H2 3466   5.650   4.888   1.450
 1154TIP3   OH2 3467   0.561   4.823   5.139
 1154TIP3    H1 3468   0.561   4.884   5.065
 1154TIP3    H2 3469   0.554   4.737   5.098
 1155TIP3   OH2 3470   0.643   3.221   3.306
 1155TIP3    H1 3471   0.718   3.281   3.313
 1155TIP3    H2 3472   0.576   3.272   3.259
 1156TIP3   OH2 3473   3.787   3.364   4.761
 1156TIP3    H1 3474   3.825   3.310   4.830
 1156TIP3    H2 3475   3.806   3.317   4.680
 1157TIP3   OH2 3476   0.265   2.546   4.926
 1157TIP3    H1 3477   0.217   2.606   4.983
 1157TIP3    H2 3478   0.231   2.564   4.838
 1158TIP3   OH2 3479   3.939   5.325   0.430
 1158TIP3    H1 3480   3.942   5.311   0.336
 1158TIP3    H2 3481   3.870   5.266   0.461
 1159TIP3   OH2 3482   6.178   1.088   1.100
 1159TIP3    H1 3483   6.272   1.072   1.109
 1159TIP3    H2 3484   6.138   1.038   1.170
 1160TIP3   OH2 3485   2.237   5.956   0.564
 1160TIP3    H1 3486   2.295   5.889   0.600
 1160TIP3    H2 3487   2.222   5.929   0.473
 1161TIP3   OH2 3488   2.153   1.602   3.649
 1161TIP3    H1 3489   2.197   1.628   3.567
 1161TIP3    H2 3490   2.140   1.684   3.696
 1162TIP3   OH2 3491   1.373   3.199   1.673
 1162TIP3    H1 3492   1.351   3.201   1.766
 1162TIP3    H2 3493   1.380   3.291   1.647
 1163TIP3   OH2 3494   2.320   0.300   2.697
 1163TIP3    H1 3495   2.373   0.379   2.710
 1163TIP3    H2 3496   2.269   0.291   2.777
 1164TIP3   OH2 3497   0.582   2.309   3.382
 1164TIP3    H1 3498   0.488   2.290   3.380
 1164TIP3    H2 3499   0.605   2.326   3.291
 1165TIP3   OH2 3500   6.138   3.889   0.403
 1165TIP3    H1 3501   6.130   3.910   0.496
 1165TIP3    H2 3502   6.129   3.794   0.398
 1166TIP3   OH2 3503   1.715   2.673   1.282
 1166TIP3    H1 3504   1.713   2.746   1.342
 1166TIP3    H2 3505   1.634   2.681   1.231
 1167TIP3   OH2 3506   2.399   0.372   3.996
 1167TIP3    H1 3507   2.385   0.278   3.983
 1167TIP3    H2 3508   2.458   0.377   4.071
 1168TIP3   OH2 3509   1.692   2.373   0.656
 1168TIP3    H1 3510   1.695   2.288   0.700
 1168TIP3    H2 3511   1.599   2.393   0.647
 1169TIP3   OH2 3512   4.928   4.623   0.204
 1169TIP3    H1 3513   4.865   4.691   0.228
 1169TIP3    H2 3514   4.919   4.613   0.110
 1170TIP3   OH2 3515   0.034   1.497   1.587
 1170TIP3    H1 3516  -0.021   1.498   1.666
 1170TIP3    H2 3517   0.016   1.412   1.547
 1171TIP3   OH2 3518   4.964   3.427   4.625
 1171TIP3    H1 3519   4.912   3.407   4.548
 1171TIP3    H2 3520   4.916   3.388   4.698
 1172TIP3   OH2 3521   6.016   2.420   3.620
 1172TIP3    H1 3522   5.977   2.507   3.629
 1172TIP3    H2 3523   6.037   2.413   3.527
 1173TIP3   OH2 3524   4.665   3.703   4.807
 1173TIP3    H1 3525   4.698   3.652   4.881
 1173TIP3    H2 3526   4.600   3.761   4.846
 1174TIP3   OH2 3527   0.008   5.126   2.455
 1174TIP3    H1 3528   0.091   5.099   2.417
 1174TIP3    H2 3529  -0.011   5.210   2.413
 1175TIP3   OH2 3530   4.668   1.616   1.676
 1175TIP3    H1 3531   4.616   1.535   1.680
 1175TIP3    H2 3532   4.608   1.684   1.705
 1176TIP3   OH2 3533   2.742   2.019   2.689
 1176TIP3    H1 3534   2.836   2.007   2.702
 1176TIP3    H2 3535   2.727   1.993   2.598
 1177TIP3   OH2 3536   3.358   3.343   3.525
 1177TIP3    H1 3537   3.433   3.303   3.570
 1177TIP3    H2 3538   3.330   3.277   3.462
 1178TIP3   OH2 3539   0.525   2.482   3.616
 1178TIP3    H1 3540   0.533   2.412   3.552
 1178TIP3    H2 3541   0.572   2.556   3.578
 1179TIP3   OH2 3542   0.799   3.570   4.316
 1179TIP3    H1 3543   0.771   3.482   4.291
 1179TIP3    H2 3544   0.863   3.594   4.250
 1180TIP3   OH2 3545   1.829   5.588  -0.004
 1180TIP3    H1 3546   1.899   5.589   0.062
 1180TIP3    H2 3547   1.753   5.624   0.042
 1181TIP3   OH2 3548   3.462   5.376   4.224
 1181TIP3    H1 3549   3.404   5.415   4.159
 1181TIP3    H2 3550   3.429   5.406   4.308
 1182TIP3   OH2 3551   5.346   0.193   3.478
 1182TIP3    H1 3552   5.423   0.209   3.532
 1182TIP3    H2 3553   5.275   0.235   3.525
 1183TIP3   OH2 3554   1.124   5.780   2.373
 1183TIP3    H1 3555   1.163   5.773   2.460
 1183TIP3    H2 3556   1.104   5.873   2.363
 1184TIP3   OH2 3557   1.741   4.717   0.190
 1184TIP3    H1 3558   1.689   4.695   0.268
 1184TIP3    H2 3559   1.780   4.802   0.210
 1185TIP3   OH2 3560   2.353   3.497   1.871
 1185TIP3    H1 3561   2.331   3.589   1.855
 1185TIP3    H2 3562   2.270   3.451   1.859
 1186TIP3   OH2 3563   0.989   2.725   3.418
 1186TIP3    H1 3564   0.964   2.767   3.500
 1186TIP3    H2 3565   0.918   2.662   3.401
 1187TIP3   OH2 3566   3.565   5.928   2.845
 1187TIP3    H1 3567   3.506   5.927   2.920
 1187TIP3    H2 3568   3.645   5.968   2.878
 1188TIP3   OH2 3569   2.503   4.799   1.159
 1188TIP3    H1 3570   2.511   4.741   1.235
 1188TIP3    H2 3571   2.587   4.845   1.155
 1189TIP3   OH2 3572   4.848   1.549   1.492
 1189TIP3    H1 3573   4.790   1.549   1.568
 1189TIP3    H2 3574   4.913   1.616   1.512
 1190TIP3   OH2 3575   3.707   4.962   2.555
 1190TIP3    H1 3576   3.703   4.999   2.467
 1190TIP3    H2 3577   3.801   4.948   2.571
 1191TIP3   OH2 3578   4.361   1.543   1.116
 1191TIP3    H1 3579   4.397   1.481   1.180
 1191TIP3    H2 3580   4.433   1.603   1.098
 1192TIP3   OH2 3581   1.197   4.682   2.966
 1192TIP3    H1 3582   1.240   4.639   2.892
 1192TIP3    H2 3583   1.237   4.643   3.044
 1193TIP3   OH2 3584   0.510   4.200   2.266
 1193TIP3    H1 3585   0.524   4.284   2.308
 1193TIP3    H2 3586   0.571   4.141   2.309
 1194TIP3   OH2 3587   5.190   5.259   3.405
 1194TIP3    H1 3588   5.264   5.261   3.466
 1194TIP3    H2 3589   5.230   5.249   3.319
 1195TIP3   OH2 3590   5.666   4.368   3.453
 1195TIP3    H1 3591   5.632   4.394   3.539
 1195TIP3    H2 3592   5.699   4.279   3.467
 1196TIP3   OH2 3593   6.284   1.130   3.499
 1196TIP3    H1 3594   6.292   1.129   3.403
 1196TIP3    H2 3595   6.192   1.149   3.515
 1197TIP3   OH2 3596   4.636   2.191   3.321
 1197TIP3    H1 3597   4.645   2.262   3.384
 1197TIP3    H2 3598   4.723   2.184   3.282
 1198TIP3   OH2 3599   6.117   5.858   2.369
 1198TIP3    H1 3600   6.119   5.897   2.457
 1198TIP3    H2 3601   6.101   5.931   2.310
 1199TIP3   OH2 3602   0.332   0.476   3.208
 1199TIP3    H1 3603   0.399   0.536   3.177
 1199TIP3    H2 3604   0.362   0.389   3.180
 1200TIP3   OH2 3605   2.472   2.072   0.691
 1200TIP3    H1 3606   2.499   2.085   0.782
 1200TIP3    H2 3607   2.388   2.025   0.697
 1201TIP3   OH2 3608   0.840   5.774   2.042
 1201TIP3    H1 3609   0.929   5.799   2.016
 1201TIP3    H2 3610   0.807   5.850   2.090
 1202TIP3   OH2 3611   5.049   0.641   2.391
 1202TIP3    H1 3612   5.121   0.672   2.336
 1202TIP3    H2 3613   5.056   0.693   2.471
 1203TIP3   OH2 3614   6.175   2.433   3.274
 1203TIP3    H1 3615   6.159   2.339   3.268
 1203TIP3    H2 3616   6.268   2.443   3.255
 1204TIP3   OH2 3617   3.512   3.236   1.419
 1204TIP3    H1 3618   3.604   3.214   1.402
 1204TIP3    H2 3619   3.506   3.329   1.401
 1205TIP3   OH2 3620   3.371   1.591   1.009
 1205TIP3    H1 3621   3.436   1.637   0.955
 1205TIP3    H2 3622   3.287   1.619   0.975
 1206TIP3   OH2 3623   2.215   1.817   2.076
 1206TIP3    H1 3624   2.185   1.902   2.108
 1206TIP3    H2 3625   2.295   1.800   2.125
 1207TIP3   OH2 3626   4.683   2.999   3.557
 1207TIP3    H1 3627   4.706   3.087   3.529
 1207TIP3    H2 3628   4.642   3.011   3.644
 1208TIP3   OH2 3629   5.157   5.260   0.883
 1208TIP3    H1 3630   5.083   5.215   0.923
 1208TIP3    H2 3631   5.200   5.193   0.829
 1209TIP3   OH2 3632   2.171   0.617   2.987
 1209TIP3    H1 3633   2.102   0.558   3.015
 1209TIP3    H2 3634   2.236   0.615   3.058
 1210TIP3   OH2 3635   3.854   3.910   2.609
 1210TIP3    H1 3636   3.767   3.870   2.619
 1210TIP3    H2 3637   3.840   3.980   2.546
 1211TIP3   OH2 3638   4.174   5.222   3.542
 1211TIP3    H1 3639   4.226   5.302   3.549
 1211TIP3    H2 3640   4.086   5.252   3.518
 1212TIP3   OH2 3641   2.808   1.894   1.312
 1212TIP3    H1 3642   2.856   1.927   1.236
 1212TIP3    H2 3643   2.744   1.962   1.331
 1213TIP3   OH2 3644   1.499   5.388   0.406
 1213TIP3    H1 3645   1.580   5.396   0.355
 1213TIP3    H2 3646   1.488   5.474   0.447
 1214TIP3   OH2 3647   0.403   1.528   3.330
 1214TIP3    H1 3648   0.498   1.515   3.334
 1214TIP3    H2 3649   0.371   1.450   3.284
 1215TIP3   OH2 3650   3.654   2.875   0.151
 1215TIP3    H1 3651   3.737   2.843   0.116
 1215TIP3    H2 3652   3.679   2.929   0.225
 1216TIP3   OH2 3653   3.048   0.686   1.930
 1216TIP3    H1 3654   3.110   0.751   1.898
 1216TIP3    H2 3655   2.962   0.721   1.904
 1217TIP3   OH2 3656   0.465   4.016   2.860
 1217TIP3    H1 3657   0.442   4.038   2.950
 1217TIP3    H2 3658   0.474   4.100   2.816
 1218TIP3   OH2 3659   5.826   1.266   4.703
 1218TIP3    H1 3660   5.735   1.296   4.705
 1218TIP3    H2 3661   5.877   1.345   4.687
 1219TIP3   OH2 3662   1.446   2.007   2.469
 1219TIP3    H1 3663   1.520   1.982   2.524
 1219TIP3    H2 3664   1.381   1.939   2.484
 1220TIP3   OH2 3665   5.655   1.349   1.198
 1220TIP3    H1 3666   5.740   1.386   1.176
 1220TIP3    H2 3667   5.662   1.257   1.175
 1221TIP3   OH2 3668   5.715   4.471   3.075
 1221TIP3    H1 3669   5.756   4.390   3.105
 1221TIP3    H2 3670   5.774   4.504   3.007
 1222TIP3   OH2 3671   1.416   3.866   2.850
 1222TIP3    H1 3672   1.379   3.944   2.890
 1222TIP3    H2 3673   1.357   3.795   2.876
 1223TIP3   OH2 3674   1.187   1.117   3.931
 1223TIP3    H1 3675   1.211   1.036   3.886
 1223TIP3    H2 3676   1.129   1.090   4.002
 1224TIP3   OH2 3677   3.019   0.883   3.183
 1224TIP3    H1 3678   3.105   0.843   3.174
 1224TIP3    H2 3679   3.036   0.967   3.227
 1225TIP3   OH2 3680   0.618   0.430   2.698
 1225TIP3    H1 3681   0.559   0.441   2.774
 1225TIP3    H2 3682   0.615   0.337   2.679
 1226TIP3   OH2 3683   5.898   3.861   2.982
 1226TIP3    H1 3684   5.956   3.840   3.055
 1226TIP3    H2 3685   5.812   3.831   3.010
 1227TIP3   OH2 3686   4.375   5.129   0.346
 1227TIP3    H1 3687   4.322   5.054   0.318
 1227TIP3    H2 3688   4.379   5.121   0.442
 1228TIP3   OH2 3689   3.665   4.274   1.653
 1228TIP3    H1 3690   3.604   4.234   1.715
 1228TIP3    H2 3691   3.737   4.307   1.707
 1229TIP3   OH2 3692   0.131   1.057   2.178
 1229TIP3    H1 3693   0.128   1.041   2.084
 1229TIP3    H2 3694   0.086   1.141   2.189
 1230TIP3   OH2 3695   1.073   2.372   4.824
 1230TIP3    H1 3696   1.094   2.450   4.773
 1230TIP3    H2 3697   1.116   2.385   4.908
 1231TIP3   OH2 3698   6.248   2.155   4.166
 1231TIP3    H1 3699   6.321   2.107   4.207
 1231TIP3    H2 3700   6.193   2.088   4.127
 1232TIP3   OH2 3701   2.954   5.275   1.851
 1232TIP3    H1 3702   2.971   5.306   1.763
 1232TIP3    H2 3703   2.862   5.295   1.866
 1233TIP3   OH2 3704   4.319   0.954   0.834
 1233TIP3    H1 3705   4.323   0.900   0.754
 1233TIP3    H2 3706   4.409   0.985   0.845
 1234TIP3   OH2 3707   3.825   5.116   5.229
 1234TIP3    H1 3708   3.911   5.128   5.188
 1234TIP3    H2 3709   3.774   5.192   5.201
 1235TIP3   OH2 3710   0.201   3.328   0.169
 1235TIP3    H1 3711   0.205   3.419   0.197
 1235TIP3    H2 3712   0.291   3.307   0.143
 1236TIP3   OH2 3713   3.887   4.487   0.715
 1236TIP3    H1 3714   3.901   4.569   0.668
 1236TIP3    H2 3715   3.974   4.446   0.717
 1237TIP3   OH2 3716   3.226   5.258   2.703
 1237TIP3    H1 3717   3.168   5.274   2.778
 1237TIP3    H2 3718   3.249   5.346   2.672
 1238TIP3   OH2 3719   3.506   5.530   2.376
 1238TIP3    H1 3720   3.481   5.620   2.353
 1238TIP3    H2 3721   3.493   5.480   2.295
 1239TIP3   OH2 3722   2.096   1.326   4.182
 1239TIP3    H1 3723   2.152   1.249   4.172
 1239TIP3    H2 3724   2.138   1.379   4.249
 1240TIP3   OH2 3725   0.751   0.465   3.028
 1240TIP3    H1 3726   0.743   0.372   3.004
 1240TIP3    H2 3727   0.845   0.484   3.019
 1241TIP3   OH2 3728   1.415   1.370   1.912
 1241TIP3    H1 3729   1.373   1.294   1.871
 1241TIP3    H2 3730   1.446   1.423   1.838
 1242TIP3   OH2 3731   2.861   0.411   1.722
 1242TIP3    H1 3732   2.850   0.390   1.630
 1242TIP3    H2 3733   2.778   0.385   1.763
 1243TIP3   OH2 3734   2.536   0.291   5.029
 1243TIP3    H1 3735   2.497   0.361   4.976
 1243TIP3    H2 3736   2.630   0.298   5.012
 1244TIP3   OH2 3737   2.170   3.555   3.697
 1244TIP3    H1 3738   2.201   3.626   3.754
 1244TIP3    H2 3739   2.193   3.475   3.745
 1245TIP3   OH2 3740   5.135  -0.007   1.201
 1245TIP3    H1 3741   5.206   0.057   1.195
 1245TIP3    H2 3742   5.097   0.006   1.288
 1246TIP3   OH2 3743   5.555   1.838   3.233
 1246TIP3    H1 3744   5.461   1.856   3.229
 1246TIP3    H2 3745   5.583   1.869   3.319
 1247TIP3   OH2 3746   2.704   1.632   2.360
 1247TIP3    H1 3747   2.778   1.575   2.338
 1247TIP3    H2 3748   2.656   1.641   2.278
 1248TIP3   OH2 3749   2.816   3.761   2.849
 1248TIP3    H1 3750   2.849   3.770   2.939
 1248TIP3    H2 3751   2.766   3.841   2.834
 1249TIP3   OH2 3752   4.642   0.846   4.054
 1249TIP3    H1 3753   4.704   0.859   3.983
 1249TIP3    H2 3754   4.594   0.766   4.030
 1250TIP3   OH2 3755   2.313   6.006   4.141
 1250TIP3    H1 3756   2.325   5.977   4.231
 1250TIP3    H2 3757   2.353   5.937   4.088
 1251TIP3   OH2 3758   5.803   0.251   1.104
 1251TIP3    H1 3759   5.849   0.335   1.102
 1251TIP3    H2 3760   5.778   0.241   1.196
 1252TIP3   OH2 3761   4.902   1.111   2.721
 1252TIP3    H1 3762   4.814   1.086   2.752
 1252TIP3    H2 3763   4.896   1.205   2.704
 1253TIP3   OH2 3764   2.751   0.023   1.496
 1253TIP3    H1 3765   2.706   0.063   1.570
 1253TIP3    H2 3766   2.780  -0.062   1.529
 1254TIP3   OH2 3767   0.547   1.280   1.112
 1254TIP3    H1 3768   0.488   1.290   1.187
 1254TIP3    H2 3769   0.489   1.258   1.039
 1255TIP3   OH2 3770   0.029   3.140   5.212
 1255TIP3    H1 3771   0.003   3.227   5.180
 1255TIP3    H2 3772   0.122   3.134   5.191
 1256TIP3   OH2 3773   6.122   5.748   1.903
 1256TIP3    H1 3774   6.032   5.742   1.932
 1256TIP3    H2 3775   6.172   5.766   1.983
 1257TIP3   OH2 3776   0.927   1.259   3.018
 1257TIP3    H1 3777   0.974   1.339   3.043
 1257TIP3    H2 3778   0.941   1.251   2.924
 1258TIP3   OH2 3779   2.166   4.146   4.163
 1258TIP3    H1 3780   2.174   4.061   4.207
 1258TIP3    H2 3781   2.205   4.208   4.225
 1259TIP3   OH2 3782   3.743   0.936   4.842
 1259TIP3    H1 3783   3.678   0.868   4.826
 1259TIP3    H2 3784   3.775   0.919   4.930
 1260TIP3   OH2 3785   6.207   1.779   0.769
 1260TIP3    H1 3786   6.257   1.841   0.822
 1260TIP3    H2 3787   6.255   1.696   0.777
 1261TIP3   OH2 3788   5.086   3.960   0.044
 1261TIP3    H1 3789   5.024   3.887   0.046
 1261TIP3    H2 3790   5.031   4.037   0.028
 1262TIP3   OH2 3791   3.418   0.787   1.114
 1262TIP3    H1 3792   3.361   0.831   1.178
 1262TIP3    H2 3793   3.416   0.695   1.140
 1263TIP3   OH2 3794   0.493   0.579   4.616
 1263TIP3    H1 3795   0.425   0.578   4.549
 1263TIP3    H2 3796   0.566   0.626   4.576
 1264TIP3   OH2 3797   3.825   2.918   1.146
 1264TIP3    H1 3798   3.806   2.987   1.082
 1264TIP3    H2 3799   3.918   2.900   1.135
 1265TIP3   OH2 3800   2.367   2.414   1.896
 1265TIP3    H1 3801   2.347   2.331   1.854
 1265TIP3    H2 3802   2.289   2.435   1.948
 1266TIP3   OH2 3803   1.152   5.677   0.464
 1266TIP3    H1 3804   1.083   5.681   0.398
 1266TIP3    H2 3805   1.173   5.584   0.472
 1267TIP3   OH2 3806   4.388   0.534   0.673
 1267TIP3    H1 3807   4.371   0.542   0.767
 1267TIP3    H2 3808   4.340   0.455   0.647
 1268TIP3   OH2 3809   6.064   1.266   3.830
 1268TIP3    H1 3810   6.036   1.268   3.739
 1268TIP3    H2 3811   5.987   1.239   3.879
 1269TIP3   OH2 3812   4.958   1.277   0.485
 1269TIP3    H1 3813   5.031   1.215   0.490
 1269TIP3    H2 3814   4.937   1.295   0.577
 1270TIP3   OH2 3815   1.237   4.937   3.984
 1270TIP3    H1 3816   1.207   5.025   3.963
 1270TIP3    H2 3817   1.265   4.900   3.900
 1271TIP3   OH2 3818   3.523   1.727   3.000
 1271TIP3    H1 3819   3.545   1.677   2.922
 1271TIP3    H2 3820   3.473   1.666   3.054
 1272TIP3   OH2 3821   0.524   3.326   2.644
 1272TIP3    H1 3822   0.495   3.262   2.579
 1272TIP3    H2 3823   0.604   3.364   2.607
 1273TIP3   OH2 3824   0.505   4.994   1.927
 1273TIP3    H1 3825   0.600   4.982   1.926
 1273TIP3    H2 3826   0.484   5.026   1.839
 1274TIP3   OH2 3827  -0.024   0.615   3.810
 1274TIP3    H1 3828  -0.019   0.597   3.716
 1274TIP3    H2 3829   0.062   0.652   3.831
 1275TIP3   OH2 3830   2.348   1.293   0.604
 1275TIP3    H1 3831   2.368   1.382   0.631
 1275TIP3    H2 3832   2.322   1.248   0.685
 1276TIP3   OH2 3833   4.202   2.724   0.039
 1276TIP3    H1 3834   4.119   2.689   0.072
 1276TIP3    H2 3835   4.209   2.810   0.080
 1277TIP3   OH2 3836   0.151   3.190   1.885
 1277TIP3    H1 3837   0.174   3.128   1.815
 1277TIP3    H2 3838   0.232   3.200   1.935
 1278TIP3   OH2 3839   4.418   1.789   0.321
 1278TIP3    H1 3840   4.500   1.751   0.351
 1278TIP3    H2 3841   4.443   1.873   0.282
 1279TIP3   OH2 3842   2.778   0.245   3.985
 1279TIP3    H1 3843   2.841   0.198   4.040
 1279TIP3    H2 3844   2.717   0.285   4.048
 1280TIP3   OH2 3845   0.587   1.860   0.999
 1280TIP3    H1 3846   0.571   1.917   1.074
 1280TIP3    H2 3847   0.530   1.784   1.015
 1281TIP3   OH2 3848   4.985   0.478   4.585
 1281TIP3    H1 3849   4.917   0.465   4.651
 1281TIP3    H2 3850   5.067   0.482   4.635
 1282TIP3   OH2 3851   5.338   2.752   1.253
 1282TIP3    H1 3852   5.353   2.749   1.348
 1282TIP3    H2 3853   5.293   2.670   1.233
 1283TIP3   OH2 3854   5.248   0.707   2.981
 1283TIP3    H1 3855   5.208   0.696   3.067
 1283TIP3    H2 3856   5.174   0.703   2.920
 1284TIP3   OH2 3857   1.481   2.347   1.283
 1284TIP3    H1 3858   1.391   2.335   1.253
 1284TIP3    H2 3859   1.474   2.362   1.377
 1285TIP3   OH2 3860   3.464   1.074   2.764
 1285TIP3    H1 3861   3.455   1.005   2.830
 1285TIP3    H2 3862   3.478   1.027   2.682
 1286TIP3   OH2 3863   5.986   2.211   3.791
 1286TIP3    H1 3864   6.055   2.150   3.817
 1286TIP3    H2 3865   6.028   2.266   3.725
 1287TIP3   OH2 3866   3.447   0.750   4.404
 1287TIP3    H1 3867   3.438   0.655   4.405
 1287TIP3    H2 3868   3.357   0.783   4.406
 1288TIP3   OH2 3869   5.474   1.830   3.876
 1288TIP3    H1 3870   5.566   1.812   3.892
 1288TIP3    H2 3871   5.431   1.745   3.885
 1289TIP3   OH2 3872   4.946   0.958   0.630
 1289TIP3    H1 3873   4.915   0.875   0.592
 1289TIP3    H2 3874   4.866   1.005   0.652
 1290TIP3   OH2 3875   2.823   2.546   0.816
 1290TIP3    H1 3876   2.823   2.622   0.874
 1290TIP3    H2 3877   2.840   2.582   0.729
 1291TIP3   OH2 3878   5.962   5.609   2.343
 1291TIP3    H1 3879   5.898   5.679   2.331
 1291TIP3    H2 3880   5.909   5.532   2.365
 1292TIP3   OH2 3881   0.210   2.620   2.969
 1292TIP3    H1 3882   0.171   2.549   3.020
 1292TIP3    H2 3883   0.142   2.688   2.967
 1293TIP3   OH2 3884   4.679   3.100   2.662
 1293TIP3    H1 3885   4.611   3.051   2.709
 1293TIP3    H2 3886   4.736   3.033   2.626
 1294TIP3   OH2 3887   4.470   0.703   2.978
 1294TIP3    H1 3888   4.424   0.639   3.032
 1294TIP3    H2 3889   4.410   0.778   2.973
 1295TIP3   OH2 3890   2.208   6.029   3.819
 1295TIP3    H1 3891   2.300   6.029   3.847
 1295TIP3    H2 3892   2.165   5.966   3.876
 1296TIP3   OH2 3893   0.392   2.329   2.943
 1296TIP3    H1 3894   0.391   2.235   2.925
 1296TIP3    H2 3895   0.461   2.339   3.009
 1297TIP3   OH2 3896   5.809   2.034   2.635
 1297TIP3    H1 3897   5.873   2.009   2.568
 1297TIP3    H2 3898   5.813   2.130   2.638
 1298TIP3   OH2 3899   4.784   0.511   2.259
 1298TIP3    H1 3900   4.725   0.568   2.309
 1298TIP3    H2 3901   4.868   0.516   2.305
 1299TIP3   OH2 3902   3.542   0.110   4.897
 1299TIP3    H1 3903   3.603   0.090   4.968
 1299TIP3    H2 3904   3.466   0.148   4.940
 1300TIP3   OH2 3905   5.826   5.522   1.800
 1300TIP3    H1 3906   5.876   5.506   1.879
 1300TIP3    H2 3907   5.892   5.538   1.732
 1301TIP3   OH2 3908   1.543   3.278   1.098
 1301TIP3    H1 3909   1.485   3.331   1.153
 1301TIP3    H2 3910   1.631   3.310   1.118
 1302TIP3   OH2 3911   4.376   2.114   0.253
 1302TIP3    H1 3912   4.444   2.172   0.220
 1302TIP3    H2 3913   4.407   2.088   0.340
 1303TIP3   OH2 3914   5.962   0.040   1.087
 1303TIP3    H1 3915   5.902   0.110   1.060
 1303TIP3    H2 3916   5.937  -0.035   1.034
 1304TIP3   OH2 3917   1.883   5.828   2.412
 1304TIP3    H1 3918   1.935   5.749   2.426
 1304TIP3    H2 3919   1.813   5.823   2.476
 1305TIP3   OH2 3920   0.728   1.083   1.286
 1305TIP3    H1 3921   0.796   1.057   1.348
 1305TIP3    H2 3922   0.701   1.170   1.315
 1306TIP3   OH2 3923   3.162   5.733   1.810
 1306TIP3    H1 3924   3.111   5.712   1.888
 1306TIP3    H2 3925   3.113   5.805   1.769
 1307TIP3   OH2 3926   0.607   3.635   3.312
 1307TIP3    H1 3927   0.645   3.715   3.275
 1307TIP3    H2 3928   0.654   3.623   3.395
 1308TIP3   OH2 3929   2.511   3.322   4.947
 1308TIP3    H1 3930   2.480   3.409   4.972
 1308TIP3    H2 3931   2.590   3.309   5.000
 1309TIP3   OH2 3932   4.295   5.366   0.001
 1309TIP3    H1 3933   4.260   5.278   0.010
 1309TIP3    H2 3934   4.218   5.422  -0.009
 1310TIP3   OH2 3935   4.498   0.826   1.033
 1310TIP3    H1 3936   4.413   0.794   1.002
 1310TIP3    H2 3937   4.521   0.766   1.104
 1311TIP3   OH2 3938   2.327   5.041   2.019
 1311TIP3    H1 3939   2.316   4.990   1.939
 1311TIP3    H2 3940   2.338   4.974   2.088
 1312TIP3   OH2 3941   3.394   2.470   4.153
 1312TIP3    H1 3942   3.489   2.472   4.169
 1312TIP3    H2 3943   3.357   2.522   4.225
 1313TIP3   OH2 3944   4.082   0.368   1.049
 1313TIP3    H1 3945   4.119   0.378   1.137
 1313TIP3    H2 3946   4.152   0.326   0.999
 1314TIP3   OH2 3947   4.233   1.936   3.531
 1314TIP3    H1 3948   4.288   1.866   3.565
 1314TIP3    H2 3949   4.288   2.014   3.534
 1315TIP3   OH2 3950   5.922   2.752   2.721
 1315TIP3    H1 3951   5.862   2.731   2.650
 1315TIP3    H2 3952   5.877   2.723   2.801
 1316TIP3   OH2 3953   0.725   1.612   0.918
 1316TIP3    H1 3954   0.688   1.699   0.932
 1316TIP3    H2 3955   0.678   1.579   0.841
 1317TIP3   OH2 3956   0.073   2.730   0.811
 1317TIP3    H1 3957   0.085   2.760   0.901
 1317TIP3    H2 3958   0.022   2.800   0.769
 1318TIP3   OH2 3959   0.214   1.077   3.032
 1318TIP3    H1 3960   0.153   1.080   2.958
 1318TIP3    H2 3961   0.158   1.085   3.109
 1319TIP3   OH2 3962   0.626   3.248   2.381
 1319TIP3    H1 3963   0.636   3.303   2.303
 1319TIP3    H2 3964   0.533   3.228   2.385
 1320TIP3   OH2 3965   6.250   0.494   4.464
 1320TIP3    H1 3966   6.218   0.583   4.448
 1320TIP3    H2 3967   6.343   0.497   4.441
 1321TIP3   OH2 3968   0.380   2.252   1.211
 1321TIP3    H1 3969   0.360   2.189   1.280
 1321TIP3    H2 3970   0.352   2.210   1.130
 1322TIP3   OH2 3971   5.991   4.078   2.863
 1322TIP3    H1 3972   5.973   4.149   2.925
 1322TIP3    H2 3973   5.957   4.000   2.906
 1323TIP3   OH2 3974   5.925   1.668   1.258
 1323TIP3    H1 3975   5.893   1.600   1.199
 1323TIP3    H2 3976   6.007   1.632   1.292
 1324TIP3   OH2 3977   0.895   5.257   4.318
 1324TIP3    H1 3978   0.904   5.306   4.400
 1324TIP3    H2 3979   0.982   5.221   4.301
 1325TIP3   OH2 3980   0.927   1.968   4.276
 1325TIP3    H1 3981   0.996   1.994   4.338
 1325TIP3    H2 3982   0.849   1.959   4.330
 1326TIP3   OH2 3983   1.240   4.681   3.404
 1326TIP3    H1 3984   1.319   4.724   3.436
 1326TIP3    H2 3985   1.201   4.641   3.482
 1327TIP3   OH2 3986   6.256   2.631   4.623
 1327TIP3    H1 3987   6.169   2.637   4.663
 1327TIP3    H2 3988   6.286   2.722   4.618
 1328TIP3   OH2 3989   4.018   1.238   3.753
 1328TIP3    H1 3990   4.046   1.266   3.840
 1328TIP3    H2 3991   3.961   1.164   3.768
 1329TIP3   OH2 3992   4.240   4.815   3.085
 1329TIP3    H1 3993   4.309   4.855   3.032
 1329TIP3    H2 3994   4.282   4.739   3.125
 1330TIP3   OH2 3995   3.632   4.726   4.338
 1330TIP3    H1 3996   3.538   4.737   4.352
 1330TIP3    H2 3997   3.673   4.776   4.409
 1331TIP3   OH2 3998   1.657   4.396   0.703
 1331TIP3    H1 3999   1.738   4.345   0.706
 1331TIP3    H2 4000   1.616   4.371   0.621
 1332TIP3   OH2 4001   5.049   5.783   3.319
 1332TIP3    H1 4002   5.024   5.824   3.402
 1332TIP3    H2 4003   5.057   5.689   3.340
 1333TIP3   OH2 4004   4.945   0.713   2.851
 1333TIP3    H1 4005   4.955   0.807   2.867
 1333TIP3    H2 4006   4.851   0.698   2.857
 1334TIP3   OH2 4007   5.427   4.467   3.212
 1334TIP3    H1 4008   5.515   4.493   3.186
 1334TIP3    H2 4009   5.432   4.372   3.222
 1335TIP3   OH2 4010   0.080   4.071   1.251
 1335TIP3    H1 4011   0.028   4.102   1.177
 1335TIP3    H2 4012   0.038   4.111   1.328
 1336TIP3   OH2 4013   1.298   5.175   0.471
 1336TIP3    H1 4014   1.379   5.126   0.458
 1336TIP3    H2 4015   1.310   5.256   0.422
 1337TIP3   OH2 4016   0.797   5.632   1.689
 1337TIP3    H1 4017   0.777   5.725   1.702
 1337TIP3    H2 4018   0.891   5.625   1.704
 1338TIP3   OH2 4019   6.016   1.769   1.708
 1338TIP3    H1 4020   5.926   1.736   1.708
 1338TIP3    H2 4021   6.008   1.861   1.735
 1339TIP3   OH2 4022   0.552   1.290   5.166
 1339TIP3    H1 4023   0.590   1.296   5.079
 1339TIP3    H2 4024   0.612   1.340   5.222
 1340TIP3   OH2 4025   3.788   1.398   3.677
 1340TIP3    H1 4026   3.723   1.433   3.738
 1340TIP3    H2 4027   3.837   1.334   3.729
 1341TIP3   OH2 4028   3.135   0.878   0.984
 1341TIP3    H1 4029   3.081   0.931   0.926
 1341TIP3    H2 4030   3.209   0.934   1.007
 1342TIP3   OH2 4031   2.043   2.822   2.462
 1342TIP3    H1 4032   2.042   2.786   2.551
 1342TIP3    H2 4033   2.122   2.785   2.423
 1343TIP3   OH2 4034   0.880   0.500   4.014
 1343TIP3    H1 4035   0.962   0.486   4.061
 1343TIP3    H2 4036   0.826   0.425   4.036
 1344TIP3   OH2 4037   5.941   0.488   1.077
 1344TIP3    H1 4038   5.987   0.549   1.020
 1344TIP3    H2 4039   5.955   0.522   1.165
 1345TIP3   OH2 4040   0.086   0.528   0.106
 1345TIP3    H1 4041   0.119   0.486   0.026
 1345TIP3    H2 4042  -0.002   0.492   0.117
 1346TIP3   OH2 4043   1.530   1.363   2.365
 1346TIP3    H1 4044   1.437   1.378   2.382
 1346TIP3    H2 4045   1.541   1.268   2.375
 1347TIP3   OH2 4046   1.025   4.494   0.962
 1347TIP3    H1 4047   1.010   4.488   1.056
 1347TIP3    H2 4048   1.109   4.450   0.949
 1348TIP3   OH2 4049   5.207   0.720   5.095
 1348TIP3    H1 4050   5.156   0.781   5.148
 1348TIP3    H2 4051   5.145   0.652   5.070
 1349TIP3   OH2 4052   4.013   0.736   4.913
 1349TIP3    H1 4053   4.082   0.703   4.855
 1349TIP3    H2 4054   4.005   0.828   4.890
 1350TIP3   OH2 4055   5.088   3.819   3.575
 1350TIP3    H1 4056   5.153   3.875   3.534
 1350TIP3    H2 4057   5.136   3.773   3.644
 1351TIP3   OH2 4058   0.964   0.495   2.114
 1351TIP3    H1 4059   0.985   0.571   2.169
 1351TIP3    H2 4060   0.967   0.529   2.025
 1352TIP3   OH2 4061   1.414   0.835   1.590
 1352TIP3    H1 4062   1.331   0.868   1.623
 1352TIP3    H2 4063   1.405   0.835   1.495
 1353TIP3   OH2 4064   1.340   4.615   0.293
 1353TIP3    H1 4065   1.284   4.691   0.279
 1353TIP3    H2 4066   1.280   4.540   0.294
 1354TIP3   OH2 4067   3.709   3.225   0.525
 1354TIP3    H1 4068   3.730   3.154   0.465
 1354TIP3    H2 4069   3.667   3.183   0.600
 1355TIP3   OH2 4070   2.259   0.273   2.984
 1355TIP3    H1 4071   2.275   0.179   2.974
 1355TIP3    H2 4072   2.281   0.291   3.075
 1356TIP3   OH2 4073   0.918   4.641   3.420
 1356TIP3    H1 4074   0.921   4.706   3.349
 1356TIP3    H2 4075   0.830   4.604   3.415
 1357TIP3   OH2 4076   4.400   2.243   4.116
 1357TIP3    H1 4077   4.382   2.191   4.038
 1357TIP3    H2 4078   4.436   2.325   4.083
 1358TIP3   OH2 4079   0.511   0.738   0.363
 1358TIP3    H1 4080   0.591   0.752   0.413
 1358TIP3    H2 4081   0.540   0.710   0.276
 1359TIP3   OH2 4082   3.137   5.802   4.094
 1359TIP3    H1 4083   3.074   5.735   4.121
 1359TIP3    H2 4084   3.148   5.857   4.172
 1360TIP3   OH2 4085   3.310   5.802   3.209
 1360TIP3    H1 4086   3.305   5.718   3.254
 1360TIP3    H2 4087   3.312   5.867   3.279
 1361TIP3   OH2 4088   1.910   5.551   2.671
 1361TIP3    H1 4089   2.002   5.565   2.649
 1361TIP3    H2 4090   1.912   5.517   2.761
 1362TIP3   OH2 4091   0.113   4.337   5.064
 1362TIP3    H1 4092   0.126   4.242   5.063
 1362TIP3    H2 4093   0.051   4.352   5.135
 1363TIP3   OH2 4094   4.895   4.178   5.018
 1363TIP3    H1 4095   4.887   4.163   5.112
 1363TIP3    H2 4096   4.936   4.098   4.985
 1364TIP3   OH2 4097   3.387   2.777   1.411
 1364TIP3    H1 4098   3.381   2.860   1.458
 1364TIP3    H2 4099   3.418   2.800   1.324
 1365TIP3   OH2 4100   4.759   2.417   4.033
 1365TIP3    H1 4101   4.767   2.340   4.088
 1365TIP3    H2 4102   4.664   2.433   4.029
 1366TIP3   OH2 4103   1.817   0.851   2.360
 1366TIP3    H1 4104   1.835   0.850   2.266
 1366TIP3    H2 4105   1.904   0.851   2.401
 1367TIP3   OH2 4106   5.230   3.985   1.956
 1367TIP3    H1 4107   5.167   4.057   1.965
 1367TIP3    H2 4108   5.315   4.028   1.946
 1368TIP3   OH2 4109   3.735   3.473   0.826
 1368TIP3    H1 4110   3.805   3.502   0.885
 1368TIP3    H2 4111   3.690   3.553   0.801
 1369TIP3   OH2 4112   5.432   5.358   3.035
 1369TIP3    H1 4113   5.512   5.315   3.064
 1369TIP3    H2 4114   5.461   5.425   2.974
 1370TIP3   OH2 4115   4.417   3.370   0.362
 1370TIP3    H1 4116   4.356   3.442   0.350
 1370TIP3    H2 4117   4.361   3.294   0.381
 1371TIP3   OH2 4118   0.639   3.939   5.090
 1371TIP3    H1 4119   0.562   3.883   5.102
 1371TIP3    H2 4120   0.609   4.008   5.031
 1372TIP3   OH2 4121   5.391   1.051   3.594
 1372TIP3    H1 4122   5.420   1.124   3.539
 1372TIP3    H2 4123   5.432   1.066   3.679
 1373TIP3   OH2 4124   5.252   5.468   1.401
 1373TIP3    H1 4125   5.320   5.422   1.352
 1373TIP3    H2 4126   5.251   5.425   1.486
 1374TIP3   OH2 4127   2.232   1.866   0.703
 1374TIP3    H1 4128   2.284   1.871   0.783
 1374TIP3    H2 4129   2.156   1.813   0.726
 1375TIP3   OH2 4130   1.429   3.322   3.636
 1375TIP3    H1 4131   1.439   3.417   3.629
 1375TIP3    H2 4132   1.518   3.289   3.642
 1376TIP3   OH2 4133   0.340   4.567   3.229
 1376TIP3    H1 4134   0.378   4.554   3.143
 1376TIP3    H2 4135   0.251   4.531   3.222
 1377TIP3   OH2 4136   5.787   4.900   4.927
 1377TIP3    H1 4137   5.865   4.950   4.904
 1377TIP3    H2 4138   5.737   4.957   4.985
 1378TIP3   OH2 4139   1.911   0.760   0.776
 1378TIP3    H1 4140   1.936   0.670   0.798
 1378TIP3    H2 4141   1.909   0.761   0.680
 1379TIP3   OH2 4142   5.798   4.557   4.462
 1379TIP3    H1 4143   5.772   4.612   4.535
 1379TIP3    H2 4144   5.809   4.619   4.389
 1380TIP3   OH2 4145   0.468   4.663   2.608
 1380TIP3    H1 4146   0.429   4.734   2.556
 1380TIP3    H2 4147   0.405   4.592   2.603
 1381TIP3   OH2 4148   5.073   2.710   4.974
 1381TIP3    H1 4149   5.096   2.741   4.887
 1381TIP3    H2 4150   5.072   2.615   4.967
 1382TIP3   OH2 4151   3.071   3.092   3.033
 1382TIP3    H1 4152   3.018   3.029   3.082
 1382TIP3    H2 4153   3.047   3.077   2.942
 1383TIP3   OH2 4154   4.402   2.950   4.897
 1383TIP3    H1 4155   4.397   3.044   4.879
 1383TIP3    H2 4156   4.369   2.908   4.817
 1384TIP3   OH2 4157   5.484   1.582   2.147
 1384TIP3    H1 4158   5.489   1.635   2.227
 1384TIP3    H2 4159   5.395   1.546   2.148
 1385TIP3   OH2 4160   1.239   4.793   1.502
 1385TIP3    H1 4161   1.331   4.821   1.508
 1385TIP3    H2 4162   1.196   4.834   1.576
 1386TIP3   OH2 4163   5.531   3.977   2.874
 1386TIP3    H1 4164   5.445   4.018   2.879
 1386TIP3    H2 4165   5.588   4.045   2.838
 1387TIP3   OH2 4166   2.127   3.004   2.690
 1387TIP3    H1 4167   2.049   3.047   2.726
 1387TIP3    H2 4168   2.106   2.911   2.694
 1388TIP3   OH2 4169   4.470   5.492   3.234
 1388TIP3    H1 4170   4.522   5.421   3.269
 1388TIP3    H2 4171   4.520   5.524   3.158
 1389TIP3   OH2 4172   3.550   5.220   1.976
 1389TIP3    H1 4173   3.531   5.269   1.896
 1389TIP3    H2 4174   3.491   5.256   2.042
 1390TIP3   OH2 4175   0.212   3.228   4.964
 1390TIP3    H1 4176   0.304   3.255   4.973
 1390TIP3    H2 4177   0.164   3.310   4.958
 1391TIP3   OH2 4178   6.200   2.555   1.033
 1391TIP3    H1 4179   6.227   2.627   1.091
 1391TIP3    H2 4180   6.239   2.477   1.073
 1392TIP3   OH2 4181   5.205   4.553   4.233
 1392TIP3    H1 4182   5.288   4.593   4.210
 1392TIP3    H2 4183   5.226   4.461   4.251
 1393TIP3   OH2 4184   4.724   0.496   4.778
 1393TIP3    H1 4185   4.661   0.429   4.753
 1393TIP3    H2 4186   4.696   0.524   4.865
 1394TIP3   OH2 4187   2.038   4.767   3.562
 1394TIP3    H1 4188   2.109   4.825   3.537
 1394TIP3    H2 4189   1.966   4.789   3.503
 1395TIP3   OH2 4190   3.624   2.764   4.554
 1395TIP3    H1 4191   3.632   2.676   4.590
 1395TIP3    H2 4192   3.537   2.794   4.583
 1396TIP3   OH2 4193   1.554   4.288   3.340
 1396TIP3    H1 4194   1.630   4.315   3.392
 1396TIP3    H2 4195   1.479   4.318   3.391
 1397TIP3   OH2 4196   3.810   1.308   0.212
 1397TIP3    H1 4197   3.844   1.237   0.267
 1397TIP3    H2 4198   3.796   1.381   0.272
 1398TIP3   OH2 4199   4.802   3.891   3.778
 1398TIP3    H1 4200   4.748   3.948   3.832
 1398TIP3    H2 4201   4.881   3.941   3.760
 1399TIP3   OH2 4202   5.190   3.424   2.834
 1399TIP3    H1 4203   5.268   3.479   2.821
 1399TIP3    H2 4204   5.127   3.456   2.770
 1400TIP3   OH2 4205   4.645   1.129   4.688
 1400TIP3    H1 4206   4.620   1.190   4.619
 1400TIP3    H2 4207   4.724   1.167   4.726
 1401TIP3   OH2 4208   4.931   2.780   1.030
 1401TIP3    H1 4209   4.846   2.750   1.061
 1401TIP3    H2 4210   4.975   2.813   1.109
 1402TIP3   OH2 4211   3.907   2.962   1.418
 1402TIP3    H1 4212   3.849   2.921   1.354
 1402TIP3    H2 4213   3.943   2.888   1.468
 1403TIP3   OH2 4214   4.701   0.259   2.251
 1403TIP3    H1 4215   4.686   0.257   2.345
 1403TIP3    H2 4216   4.750   0.340   2.236
 1404TIP3   OH2 4217   0.190   3.569   3.778
 1404TIP3    H1 4218   0.191   3.659   3.744
 1404TIP3    H2 4219   0.264   3.566   3.838
 1405TIP3   OH2 4220   1.897   4.301   0.102
 1405TIP3    H1 4221   1.983   4.262   0.121
 1405TIP3    H2 4222   1.903   4.389   0.139
 1406TIP3   OH2 4223   4.704   5.586   0.506
 1406TIP3    H1 4224   4.763   5.656   0.478
 1406TIP3    H2 4225   4.708   5.521   0.435
 1407TIP3   OH2 4226   1.355   5.837   4.332
 1407TIP3    H1 4227   1.285   5.891   4.296
 1407TIP3    H2 4228   1.394   5.891   4.400
 1408TIP3   OH2 4229   3.293   1.117   2.144
 1408TIP3    H1 4230   3.384   1.093   2.125
 1408TIP3    H2 4231   3.247   1.101   2.062
 1409TIP3   OH2 4232   2.062   5.080   1.116
 1409TIP3    H1 4233   2.059   5.168   1.079
 1409TIP3    H2 4234   2.147   5.046   1.088
 1410TIP3   OH2 4235   4.768   1.342   4.013
 1410TIP3    H1 4236   4.742   1.337   3.921
 1410TIP3    H2 4237   4.846   1.287   4.018
 1411TIP3   OH2 4238   6.301   5.513   1.451
 1411TIP3    H1 4239   6.322   5.544   1.363
 1411TIP3    H2 4240   6.240   5.579   1.485
 1412TIP3   OH2 4241   1.234   1.354   4.831
 1412TIP3    H1 4242   1.284   1.277   4.802
 1412TIP3    H2 4243   1.175   1.373   4.758
 1413TIP3   OH2 4244   0.762   1.114   4.095
 1413TIP3    H1 4245   0.671   1.141   4.096
 1413TIP3    H2 4246   0.781   1.096   4.003
 1414TIP3   OH2 4247   0.154   0.668   3.247
 1414TIP3    H1 4248   0.203   0.731   3.196
 1414TIP3    H2 4249   0.186   0.583   3.217
 1415TIP3   OH2 4250   2.969   5.063   2.339
 1415TIP3    H1 4251   3.061   5.087   2.329
 1415TIP3    H2 4252   2.929   5.140   2.379
 1416TIP3   OH2 4253   0.533   2.110   4.508
 1416TIP3    H1 4254   0.542   2.019   4.538
 1416TIP3    H2 4255   0.507   2.158   4.587
 1417TIP3   OH2 4256   4.618   5.955   3.087
 1417TIP3    H1 4257   4.536   5.949   3.136
 1417TIP3    H2 4258   4.685   5.965   3.155
 1418TIP3   OH2 4259   5.561   3.494   4.853
 1418TIP3    H1 4260   5.602   3.557   4.793
 1418TIP3    H2 4261   5.543   3.417   4.799
 1419TIP3   OH2 4262   4.738   0.629   0.761
 1419TIP3    H1 4263   4.770   0.694   0.823
 1419TIP3    H2 4264   4.804   0.560   0.761
 1420TIP3   OH2 4265   3.357   4.177   3.471
 1420TIP3    H1 4266   3.338   4.161   3.379
 1420TIP3    H2 4267   3.276   4.211   3.507
 1421TIP3   OH2 4268   3.646   2.468   1.981
 1421TIP3    H1 4269   3.572   2.408   1.969
 1421TIP3    H2 4270   3.610   2.540   2.034
 1422TIP3   OH2 4271   1.479   2.449   2.590
 1422TIP3    H1 4272   1.484   2.420   2.680
 1422TIP3    H2 4273   1.538   2.390   2.542
 1423TIP3   OH2 4274   3.508   0.062   4.540
 1423TIP3    H1 4275   3.570   0.131   4.562
 1423TIP3    H2 4276   3.509   0.003   4.615
 1424TIP3   OH2 4277   5.753   0.751   3.550
 1424TIP3    H1 4278   5.728   0.700   3.626
 1424TIP3    H2 4279   5.770   0.839   3.583
 1425TIP3   OH2 4280   4.519  -0.020   2.713
 1425TIP3    H1 4281   4.608  -0.003   2.743
 1425TIP3    H2 4282   4.521   0.002   2.619
 1426TIP3   OH2 4283   4.381   2.212   2.118
 1426TIP3    H1 4284   4.356   2.295   2.158
 1426TIP3    H2 4285   4.311   2.152   2.143
 1427TIP3   OH2 4286   4.847   2.806   1.517
 1427TIP3    H1 4287   4.933   2.805   1.475
 1427TIP3    H2 4288   4.865   2.805   1.611
 1428TIP3   OH2 4289   0.539   0.609   3.073
 1428TIP3    H1 4290   0.564   0.697   3.047
 1428TIP3    H2 4291   0.614   0.555   3.049
 1429TIP3   OH2 4292   3.022   1.328   4.064
 1429TIP3    H1 4293   3.007   1.254   4.005
 1429TIP3    H2 4294   3.027   1.404   4.006
 1430TIP3   OH2 4295   4.634   2.098   3.846
 1430TIP3    H1 4296   4.669   2.063   3.764
 1430TIP3    H2 4297   4.705   2.153   3.881
 1431TIP3   OH2 4298   0.598   0.187   4.292
 1431TIP3    H1 4299   0.526   0.248   4.279
 1431TIP3    H2 4300   0.565   0.125   4.356
 1432TIP3   OH2 4301   0.749   0.977   4.966
 1432TIP3    H1 4302   0.662   0.975   4.926
 1432TIP3    H2 4303   0.736   1.021   5.050
 1433TIP3   OH2 4304   4.948   4.045   1.607
 1433TIP3    H1 4305   5.033   4.070   1.645
 1433TIP3    H2 4306   4.889   4.040   1.682
 1434TIP3   OH2 4307   4.186   3.934   0.887
 1434TIP3    H1 4308   4.112   3.909   0.943
 1434TIP3    H2 4309   4.165   3.895   0.802
 1435TIP3   OH2 4310   1.488   4.725   2.411
 1435TIP3    H1 4311   1.415   4.726   2.349
 1435TIP3    H2 4312   1.566   4.715   2.357
 1436TIP3   OH2 4313   0.426   1.014   0.455
 1436TIP3    H1 4314   0.505   1.062   0.479
 1436TIP3    H2 4315   0.457   0.942   0.401
 1437TIP3   OH2 4316   2.759   0.309   0.207
 1437TIP3    H1 4317   2.802   0.238   0.255
 1437TIP3    H2 4318   2.822   0.381   0.210
 1438TIP3   OH2 4319   5.908   4.141   0.670
 1438TIP3    H1 4320   5.833   4.083   0.657
 1438TIP3    H2 4321   5.885   4.193   0.747
 1439TIP3   OH2 4322   4.800   4.325   2.906
 1439TIP3    H1 4323   4.868   4.270   2.947
 1439TIP3    H2 4324   4.848   4.397   2.867
 1440TIP3   OH2 4325   1.029   0.967   3.283
 1440TIP3    H1 4326   0.990   1.055   3.276
 1440TIP3    H2 4327   1.095   0.976   3.352
 1441TIP3   OH2 4328   3.230   4.206   4.950
 1441TIP3    H1 4329   3.192   4.125   4.915
 1441TIP3    H2 4330   3.318   4.181   4.977
 1442TIP3   OH2 4331   2.527   4.454   4.305
 1442TIP3    H1 4332   2.571   4.443   4.220
 1442TIP3    H2 4333   2.577   4.523   4.349
 1443TIP3   OH2 4334   1.423   0.459   2.562
 1443TIP3    H1 4335   1.374   0.531   2.523
 1443TIP3    H2 4336   1.514   0.477   2.538
 1444TIP3   OH2 4337   2.230   3.786   4.466
 1444TIP3    H1 4338   2.139   3.771   4.493
 1444TIP3    H2 4339   2.252   3.711   4.411
 1445TIP3   OH2 4340   4.924   5.085   0.954
 1445TIP3    H1 4341   4.837   5.055   0.976
 1445TIP3    H2 4342   4.946   5.149   1.022
 1446TIP3   OH2 4343   2.678   4.955   2.091
 1446TIP3    H1 4344   2.769   4.968   2.065
 1446TIP3    H2 4345   2.636   4.918   2.013
 1447TIP3   OH2 4346   5.682   5.098   0.845
 1447TIP3    H1 4347   5.689   5.035   0.917
 1447TIP3    H2 4348   5.755   5.076   0.787
 1448TIP3   OH2 4349   5.673   5.574   3.890
 1448TIP3    H1 4350   5.754   5.588   3.938
 1448TIP3    H2 4351   5.701   5.554   3.800
 1449TIP3   OH2 4352   1.104   5.565   3.043
 1449TIP3    H1 4353   1.198   5.577   3.049
 1449TIP3    H2 4354   1.073   5.569   3.133
 1450TIP3   OH2 4355   3.310   3.993   4.255
 1450TIP3    H1 4356   3.300   4.049   4.332
 1450TIP3    H2 4357   3.400   3.961   4.261
 1451TIP3   OH2 4358   0.227   1.878   3.053
 1451TIP3    H1 4359   0.252   1.786   3.043
 1451TIP3    H2 4360   0.139   1.875   3.090
 1452TIP3   OH2 4361   2.394   1.601   5.067
 1452TIP3    H1 4362   2.385   1.556   5.151
 1452TIP3    H2 4363   2.321   1.569   5.015
 1453TIP3   OH2 4364   4.191   2.896   3.182
 1453TIP3    H1 4365   4.133   2.915   3.256
 1453TIP3    H2 4366   4.153   2.818   3.142
 1454TIP3   OH2 4367   0.434   2.211   2.605
 1454TIP3    H1 4368   0.480   2.145   2.553
 1454TIP3    H2 4369   0.444   2.181   2.696
 1455TIP3   OH2 4370   0.979   2.117   3.580
 1455TIP3    H1 4371   0.959   2.025   3.560
 1455TIP3    H2 4372   1.052   2.138   3.522
 1456TIP3   OH2 4373   5.894   5.672   2.722
 1456TIP3    H1 4374   5.832   5.639   2.657
 1456TIP3    H2 4375   5.873   5.765   2.729
 1457TIP3   OH2 4376   5.084   5.218   3.045
 1457TIP3    H1 4377   5.062   5.207   2.952
 1457TIP3    H2 4378   5.175   5.188   3.052
 1458TIP3   OH2 4379   4.157   4.650   0.509
 1458TIP3    H1 4380   4.235   4.595   0.516
 1458TIP3    H2 4381   4.132   4.644   0.417
 1459TIP3   OH2 4382   4.486   1.598   0.050
 1459TIP3    H1 4383   4.424   1.603  -0.022
 1459TIP3    H2 4384   4.492   1.687   0.083
 1460TIP3   OH2 4385   4.838   5.364   3.611
 1460TIP3    H1 4386   4.826   5.299   3.681
 1460TIP3    H2 4387   4.894   5.431   3.650
 1461TIP3   OH2 4388   4.735   3.887   5.038
 1461TIP3    H1 4389   4.814   3.906   4.986
 1461TIP3    H2 4390   4.763   3.819   5.099
 1462TIP3   OH2 4391   3.828   3.271   2.571
 1462TIP3    H1 4392   3.815   3.259   2.665
 1462TIP3    H2 4393   3.746   3.241   2.532
 1463TIP3   OH2 4394   0.087   3.421   1.550
 1463TIP3    H1 4395   0.033   3.390   1.623
 1463TIP3    H2 4396   0.148   3.349   1.533
 1464TIP3   OH2 4397   4.014   4.086   2.903
 1464TIP3    H1 4398   3.990   4.177   2.887
 1464TIP3    H2 4399   3.981   4.068   2.991
 1465TIP3   OH2 4400   4.574   5.899   2.554
 1465TIP3    H1 4401   4.551   5.965   2.489
 1465TIP3    H2 4402   4.530   5.820   2.524
 1466TIP3   OH2 4403   4.137   3.581   3.013
 1466TIP3    H1 4404   4.135   3.618   2.924
 1466TIP3    H2 4405   4.195   3.506   3.007
 1467TIP3   OH2 4406   3.252   3.045   2.136
 1467TIP3    H1 4407   3.190   2.992   2.088
 1467TIP3    H2 4408   3.278   2.991   2.211
 1468TIP3   OH2 4409   0.780   4.708   4.318
 1468TIP3    H1 4410   0.814   4.620   4.303
 1468TIP3    H2 4411   0.716   4.698   4.388
 1469TIP3   OH2 4412   0.590   3.960   2.409
 1469TIP3    H1 4413   0.627   3.922   2.489
 1469TIP3    H2 4414   0.513   3.906   2.391
 1470TIP3   OH2 4415   1.928   4.004   4.691
 1470TIP3    H1 4416   2.013   4.024   4.730
 1470TIP3    H2 4417   1.923   3.909   4.690
 1471TIP3   OH2 4418   4.365   0.565   1.194
 1471TIP3    H1 4419   4.383   0.642   1.248
 1471TIP3    H2 4420   4.327   0.501   1.254
 1472TIP3   OH2 4421   3.298   2.739   4.649
 1472TIP3    H1 4422   3.250   2.801   4.595
 1472TIP3    H2 4423   3.254   2.656   4.637
 1473TIP3   OH2 4424   1.110   5.903   2.077
 1473TIP3    H1 4425   1.195   5.943   2.094
 1473TIP3    H2 4426   1.051   5.945   2.140
 1474TIP3   OH2 4427   0.433   1.249   2.390
 1474TIP3    H1 4428   0.402   1.160   2.406
 1474TIP3    H2 4429   0.360   1.292   2.346
 1475TIP3   OH2 4430   0.771   5.669   2.743
 1475TIP3    H1 4431   0.862   5.642   2.735
 1475TIP3    H2 4432   0.758   5.682   2.837
 1476TIP3   OH2 4433   3.542   5.581   4.826
 1476TIP3    H1 4434   3.633   5.552   4.818
 1476TIP3    H2 4435   3.500   5.513   4.879
 1477TIP3   OH2 4436   1.280   1.193   1.689
 1477TIP3    H1 4437   1.203   1.150   1.726
 1477TIP3    H2 4438   1.268   1.187   1.594
 1478TIP3   OH2 4439   3.261   2.736   3.042
 1478TIP3    H1 4440   3.199   2.791   2.994
 1478TIP3    H2 4441   3.226   2.732   3.131
 1479TIP3   OH2 4442   5.735   1.273   3.372
 1479TIP3    H1 4443   5.795   1.234   3.436
 1479TIP3    H2 4444   5.649   1.262   3.411
 1480TIP3   OH2 4445   2.431   1.889   3.315
 1480TIP3    H1 4446   2.462   1.978   3.333
 1480TIP3    H2 4447   2.494   1.854   3.252
 1481TIP3   OH2 4448   1.441   5.571   4.434
 1481TIP3    H1 4449   1.442   5.590   4.527
 1481TIP3    H2 4450   1.411   5.652   4.393
 1482TIP3   OH2 4451   0.939   1.466   4.725
 1482TIP3    H1 4452   0.881   1.457   4.800
 1482TIP3    H2 4453   0.984   1.382   4.718
 1483TIP3   OH2 4454   0.631   4.813   0.199
 1483TIP3    H1 4455   0.546   4.851   0.219
 1483TIP3    H2 4456   0.625   4.788   0.107
 1484TIP3   OH2 4457   3.311   3.854   3.208
 1484TIP3    H1 4458   3.267   3.818   3.286
 1484TIP3    H2 4459   3.365   3.783   3.176
 1485TIP3   OH2 4460   1.198   0.659   1.285
 1485TIP3    H1 4461   1.273   0.708   1.318
 1485TIP3    H2 4462   1.221   0.639   1.194
 1486TIP3   OH2 4463   3.135   3.784   4.256
 1486TIP3    H1 4464   3.218   3.833   4.257
 1486TIP3    H2 4465   3.105   3.788   4.347
 1487TIP3   OH2 4466   5.919   3.396   0.552
 1487TIP3    H1 4467   5.874   3.441   0.481
 1487TIP3    H2 4468   6.010   3.427   0.547
 1488TIP3   OH2 4469   2.819   4.724   2.827
 1488TIP3    H1 4470   2.810   4.651   2.887
 1488TIP3    H2 4471   2.795   4.689   2.741
 1489TIP3   OH2 4472   1.390   0.289   1.143
 1489TIP3    H1 4473   1.352   0.354   1.084
 1489TIP3    H2 4474   1.473   0.264   1.102
 1490TIP3   OH2 4475   0.661   5.615   4.733
 1490TIP3    H1 4476   0.673   5.703   4.698
 1490TIP3    H2 4477   0.688   5.621   4.824
 1491TIP3   OH2 4478   4.700   4.425   3.596
 1491TIP3    H1 4479   4.644   4.418   3.519
 1491TIP3    H2 4480   4.752   4.344   3.595
 1492TIP3   OH2 4481   4.394   4.841   5.130
 1492TIP3    H1 4482   4.351   4.788   5.063
 1492TIP3    H2 4483   4.419   4.778   5.198
 1493TIP3   OH2 4484   0.789   3.573   3.510
 1493TIP3    H1 4485   0.834   3.489   3.523
 1493TIP3    H2 4486   0.859   3.636   3.498
 1494TIP3   OH2 4487   0.988   1.488   4.434
 1494TIP3    H1 4488   1.065   1.432   4.442
 1494TIP3    H2 4489   0.972   1.519   4.524
 1495TIP3   OH2 4490   5.833   5.933   0.303
 1495TIP3    H1 4491   5.884   5.942   0.223
 1495TIP3    H2 4492   5.745   5.962   0.280
 1496TIP3   OH2 4493   0.469   0.987   5.030
 1496TIP3    H1 4494   0.460   1.081   5.019
 1496TIP3    H2 4495   0.381   0.955   5.046
 1497TIP3   OH2 4496   6.015   3.620   4.870
 1497TIP3    H1 4497   5.952   3.551   4.894
 1497TIP3    H2 4498   6.078   3.576   4.814
 1498TIP3   OH2 4499   0.349   0.753   2.642
 1498TIP3    H1 4500   0.336   0.702   2.563
 1498TIP3    H2 4501   0.342   0.690   2.713
 1499TIP3   OH2 4502   4.788   3.309   2.839
 1499TIP3    H1 4503   4.697   3.294   2.866
 1499TIP3    H2 4504   4.828   3.222   2.844
 1500TIP3   OH2 4505   1.947   2.473   4.669
 1500TIP3    H1 4506   1.865   2.479   4.717
 1500TIP3    H2 4507   1.927   2.416   4.594
 1501TIP3   OH2 4508   6.159   0.782   1.435
 1501TIP3    H1 4509   6.188   0.698   1.398
 1501TIP3    H2 4510   6.241   0.826   1.459
 1502TIP3   OH2 4511   4.857   5.426   3.329
 1502TIP3    H1 4512   4.817   5.408   3.414
 1502TIP3    H2 4513   4.808   5.373   3.266
 1503TIP3   OH2 4514   4.211   3.165   3.679
 1503TIP3    H1 4515   4.200   3.229   3.608
 1503TIP3    H2 4516   4.160   3.089   3.650
 1504TIP3   OH2 4517   1.913   1.921   3.365
 1504TIP3    H1 4518   1.872   1.949   3.283
 1504TIP3    H2 4519   2.002   1.954   3.360
 1505TIP3   OH2 4520   6.306   1.161   3.790
 1505TIP3    H1 4521   6.233   1.215   3.818
 1505TIP3    H2 4522   6.293   1.150   3.695
 1506TIP3   OH2 4523   4.907   2.229   3.349
 1506TIP3    H1 4524   4.905   2.267   3.261
 1506TIP3    H2 4525   4.926   2.303   3.407
 1507TIP3   OH2 4526   3.876   5.535   3.807
 1507TIP3    H1 4527   3.893   5.496   3.893
 1507TIP3    H2 4528   3.919   5.621   3.811
 1508TIP3   OH2 4529   3.980   2.400   3.727
 1508TIP3    H1 4530   4.046   2.455   3.770
 1508TIP3    H2 4531   3.896   2.438   3.754
 1509TIP3   OH2 4532   5.075   5.195   2.282
 1509TIP3    H1 4533   5.036   5.140   2.215
 1509TIP3    H2 4534   5.033   5.280   2.272
 1510TIP3   OH2 4535   1.560   5.003   4.894
 1510TIP3    H1 4536   1.625   4.999   4.965
 1510TIP3    H2 4537   1.612   5.007   4.814
 1511TIP3   OH2 4538   5.000   3.669   2.951
 1511TIP3    H1 4539   5.026   3.697   3.039
 1511TIP3    H2 4540   5.081   3.669   2.901
 1512TIP3   OH2 4541   0.612   5.023   0.498
 1512TIP3    H1 4542   0.680   5.031   0.432
 1512TIP3    H2 4543   0.658   4.991   0.576
 1513TIP3   OH2 4544   0.544   4.247   2.658
 1513TIP3    H1 4545   0.566   4.316   2.595
 1513TIP3    H2 4546   0.453   4.261   2.680
 1514TIP3   OH2 4547   0.540   4.962   3.636
 1514TIP3    H1 4548   0.575   4.932   3.552
 1514TIP3    H2 4549   0.539   4.884   3.691
 1515TIP3   OH2 4550   6.264   3.589   3.481
 1515TIP3    H1 4551   6.301   3.501   3.470
 1515TIP3    H2 4552   6.188   3.575   3.538
 1516TIP3   OH2 4553   5.173   5.663   4.177
 1516TIP3    H1 4554   5.084   5.626   4.171
 1516TIP3    H2 4555   5.160   5.757   4.165
 1517TIP3   OH2 4556   1.129   4.495   4.240
 1517TIP3    H1 4557   1.218   4.459   4.239
 1517TIP3    H2 4558   1.126   4.548   4.320
 1518TIP3   OH2 4559   4.453   5.637   2.433
 1518TIP3    H1 4560   4.490   5.560   2.475
 1518TIP3    H2 4561   4.431   5.608   2.345
 1519TIP3   OH2 4562   1.394   5.033   3.059
 1519TIP3    H1 4563   1.304   5.025   3.025
 1519TIP3    H2 4564   1.450   5.012   2.984
 1520TIP3   OH2 4565   2.895   4.552   4.484
 1520TIP3    H1 4566   2.876   4.534   4.392
 1520TIP3    H2 4567   2.870   4.643   4.497
 1521TIP3   OH2 4568   1.347   0.513   5.036
 1521TIP3    H1 4569   1.371   0.530   4.945
 1521TIP3    H2 4570   1.387   0.428   5.056
 1522TIP3   OH2 4571   1.010   0.311   0.704
 1522TIP3    H1 4572   0.986   0.218   0.711
 1522TIP3    H2 4573   0.928   0.357   0.721
 1523TIP3   OH2 4574   2.250   5.419   0.116
 1523TIP3    H1 4575   2.341   5.397   0.095
 1523TIP3    H2 4576   2.199   5.380   0.046
 1524TIP3   OH2 4577   5.191   1.370   1.859
 1524TIP3    H1 4578   5.175   1.456   1.820
 1524TIP3    H2 4579   5.286   1.366   1.868
 1525TIP3   OH2 4580   0.515   4.919   0.922
 1525TIP3    H1 4581   0.437   4.955   0.880
 1525TIP3    H2 4582   0.553   4.861   0.857
 1526TIP3   OH2 4583   5.412   1.429   1.442
 1526TIP3    H1 4584   5.339   1.401   1.499
 1526TIP3    H2 4585   5.476   1.358   1.449
 1527TIP3   OH2 4586   2.109   0.181   0.915
 1527TIP3    H1 4587   2.031   0.126   0.904
 1527TIP3    H2 4588   2.114   0.198   1.009
 1528TIP3   OH2 4589   5.769   0.169   0.812
 1528TIP3    H1 4590   5.807   0.174   0.899
 1528TIP3    H2 4591   5.752   0.075   0.798
 1529TIP3   OH2 4592   0.582   4.591   4.994
 1529TIP3    H1 4593   0.561   4.535   4.919
 1529TIP3    H2 4594   0.566   4.536   5.070
 1530TIP3   OH2 4595   3.302   4.413   2.807
 1530TIP3    H1 4596   3.223   4.465   2.821
 1530TIP3    H2 4597   3.325   4.380   2.893
 1531TIP3   OH2 4598   5.960   2.157   4.320
 1531TIP3    H1 4599   5.874   2.163   4.278
 1531TIP3    H2 4600   5.981   2.063   4.318
 1532TIP3   OH2 4601   2.176   4.002   1.138
 1532TIP3    H1 4602   2.089   3.964   1.137
 1532TIP3    H2 4603   2.196   4.015   1.231
 1533TIP3   OH2 4604   5.933   0.603   1.348
 1533TIP3    H1 4605   5.890   0.577   1.429
 1533TIP3    H2 4606   6.022   0.568   1.356
 1534TIP3   OH2 4607   5.221   5.736   3.592
 1534TIP3    H1 4608   5.141   5.696   3.559
 1534TIP3    H2 4609   5.284   5.728   3.520
 1535TIP3   OH2 4610   5.418   0.729   0.246
 1535TIP3    H1 4611   5.402   0.773   0.162
 1535TIP3    H2 4612   5.480   0.659   0.225
 1536TIP3   OH2 4613   1.555   0.123   4.867
 1536TIP3    H1 4614   1.640   0.162   4.852
 1536TIP3    H2 4615   1.506   0.140   4.787
 1537TIP3   OH2 4616   0.861   4.007   4.451
 1537TIP3    H1 4617   0.776   3.965   4.462
 1537TIP3    H2 4618   0.920   3.956   4.505
 1538TIP3   OH2 4619   0.215   0.248   4.472
 1538TIP3    H1 4620   0.258   0.187   4.412
 1538TIP3    H2 4621   0.218   0.332   4.426
 1539TIP3   OH2 4622   3.408   0.988   4.036
 1539TIP3    H1 4623   3.407   1.001   4.131
 1539TIP3    H2 4624   3.328   0.939   4.018
 1540TIP3   OH2 4625   6.312   5.738   3.496
 1540TIP3    H1 4626   6.377   5.679   3.457
 1540TIP3    H2 4627   6.296   5.804   3.428
 1541TIP3   OH2 4628   2.350   5.188   0.492
 1541TIP3    H1 4629   2.276   5.226   0.443
 1541TIP3    H2 4630   2.416   5.258   0.494
 1542TIP3   OH2 4631   0.808   5.272   1.996
 1542TIP3    H1 4632   0.779   5.359   2.022
 1542TIP3    H2 4633   0.902   5.271   2.014
 1543TIP3   OH2 4634   6.075   5.611   0.777
 1543TIP3    H1 4635   6.043   5.588   0.689
 1543TIP3    H2 4636   5.995   5.627   0.827
 1544TIP3   OH2 4637   0.211   2.389   0.334
 1544TIP3    H1 4638   0.269   2.403   0.409
 1544TIP3    H2 4639   0.255   2.432   0.261
 1545TIP3   OH2 4640   4.171   3.218   5.084
 1545TIP3    H1 4641   4.261   3.219   5.116
 1545TIP3    H2 4642   4.130   3.146   5.133
 1546TIP3   OH2 4643   3.221   1.705   4.689
 1546TIP3    H1 4644   3.276   1.685   4.765
 1546TIP3    H2 4645   3.281   1.702   4.615
 1547TIP3   OH2 4646   6.015   2.096   1.516
 1547TIP3    H1 4647   6.006   2.035   1.442
 1547TIP3    H2 4648   5.964   2.056   1.586
 1548TIP3   OH2 4649   1.561   2.719   3.228
 1548TIP3    H1 4650   1.563   2.649   3.162
 1548TIP3    H2 4651   1.539   2.674   3.310
 1549TIP3   OH2 4652   5.069   1.914   2.507
 1549TIP3    H1 4653   5.049   1.841   2.448
 1549TIP3    H2 4654   5.077   1.873   2.593
 1550TIP3   OH2 4655   4.391   0.600   3.445
 1550TIP3    H1 4656   4.345   0.591   3.361
 1550TIP3    H2 4657   4.434   0.685   3.440
 1551TIP3   OH2 4658   1.271   5.008   1.707
 1551TIP3    H1 4659   1.330   5.076   1.675
 1551TIP3    H2 4660   1.189   5.053   1.724
 1552TIP3   OH2 4661   2.731   2.623   3.161
 1552TIP3    H1 4662   2.677   2.548   3.184
 1552TIP3    H2 4663   2.759   2.659   3.245
 1553TIP3   OH2 4664   1.858   5.715   3.884
 1553TIP3    H1 4665   1.855   5.789   3.824
 1553TIP3    H2 4666   1.942   5.723   3.929
 1554TIP3   OH2 4667   3.211   0.169   2.619
 1554TIP3    H1 4668   3.295   0.146   2.578
 1554TIP3    H2 4669   3.227   0.255   2.659
 1555TIP3   OH2 4670   4.139   2.518   2.769
 1555TIP3    H1 4671   4.171   2.483   2.852
 1555TIP3    H2 4672   4.044   2.503   2.773
 1556TIP3   OH2 4673   4.646   5.150   2.788
 1556TIP3    H1 4674   4.630   5.160   2.694
 1556TIP3    H2 4675   4.695   5.068   2.795
 1557TIP3   OH2 4676   2.373   4.768   3.536
 1557TIP3    H1 4677   2.389   4.680   3.567
 1557TIP3    H2 4678   2.393   4.825   3.610
 1558TIP3   OH2 4679   1.956   1.046   3.478
 1558TIP3    H1 4680   1.906   0.964   3.475
 1558TIP3    H2 4681   1.891   1.115   3.467
 1559TIP3   OH2 4682   2.041   0.357   2.794
 1559TIP3    H1 4683   2.103   0.325   2.859
 1559TIP3    H2 4684   1.977   0.286   2.785
 1560TIP3   OH2 4685   1.496   5.827   3.923
 1560TIP3    H1 4686   1.502   5.776   3.842
 1560TIP3    H2 4687   1.540   5.909   3.902
 1561TIP3   OH2 4688   1.078   2.625   1.206
 1561TIP3    H1 4689   1.013   2.685   1.242
 1561TIP3    H2 4690   1.114   2.670   1.130
 1562TIP3   OH2 4691   5.118   1.816   2.195
 1562TIP3    H1 4692   5.032   1.838   2.231
 1562TIP3    H2 4693   5.131   1.724   2.217
 1563TIP3   OH2 4694   6.308   3.170   3.829
 1563TIP3    H1 4695   6.374   3.186   3.761
 1563TIP3    H2 4696   6.335   3.088   3.870
 1564TIP3   OH2 4697   3.467   3.704   2.149
 1564TIP3    H1 4698   3.396   3.768   2.140
 1564TIP3    H2 4699   3.547   3.757   2.144
 1565TIP3   OH2 4700   0.076   1.703   0.961
 1565TIP3    H1 4701   0.088   1.691   1.055
 1565TIP3    H2 4702   0.033   1.622   0.932
 1566TIP3   OH2 4703   5.464   1.852   3.522
 1566TIP3    H1 4704   5.397   1.835   3.455
 1566TIP3    H2 4705   5.458   1.777   3.581
 1567TIP3   OH2 4706   5.304   0.630   4.433
 1567TIP3    H1 4707   5.255   0.652   4.354
 1567TIP3    H2 4708   5.283   0.701   4.494
 1568TIP3   OH2 4709   4.996   5.921   4.072
 1568TIP3    H1 4710   5.066   5.982   4.095
 1568TIP3    H2 4711   4.948   5.908   4.154
 1569TIP3   OH2 4712   2.356   3.596   2.324
 1569TIP3    H1 4713   2.308   3.514   2.334
 1569TIP3    H2 4714   2.409   3.585   2.245
 1570TIP3   OH2 4715   2.710   0.974   4.653
 1570TIP3    H1 4716   2.792   1.024   4.655
 1570TIP3    H2 4717   2.726   0.905   4.588
 1571TIP3   OH2 4718   5.708   0.200   2.663
 1571TIP3    H1 4719   5.689   0.201   2.757
 1571TIP3    H2 4720   5.624   0.221   2.622
 1572TIP3   OH2 4721   3.240   4.303   4.034
 1572TIP3    H1 4722   3.285   4.219   4.029
 1572TIP3    H2 4723   3.297   4.363   3.985
 1573TIP3   OH2 4724   1.059   3.087   0.755
 1573TIP3    H1 4725   1.027   3.156   0.814
 1573TIP3    H2 4726   1.141   3.059   0.795
 1574TIP3   OH2 4727   1.122   3.557   5.059
 1574TIP3    H1 4728   1.090   3.640   5.024
 1574TIP3    H2 4729   1.158   3.511   4.983
 1575TIP3   OH2 4730   4.249   5.407   4.923
 1575TIP3    H1 4731   4.163   5.377   4.892
 1575TIP3    H2 4732   4.228   5.481   4.980
 1576TIP3   OH2 4733   4.776   0.611   1.137
 1576TIP3    H1 4734   4.796   0.685   1.079
 1576TIP3    H2 4735   4.736   0.546   1.080
 1577TIP3   OH2 4736   0.589   3.887   1.761
 1577TIP3    H1 4737   0.566   3.971   1.721
 1577TIP3    H2 4738   0.665   3.857   1.711
 1578TIP3   OH2 4739   2.872   2.238   3.205
 1578TIP3    H1 4740   2.779   2.257   3.193
 1578TIP3    H2 4741   2.888   2.255   3.298
 1579TIP3   OH2 4742   1.850   0.231   2.484
 1579TIP3    H1 4743   1.806   0.266   2.561
 1579TIP3    H2 4744   1.787   0.240   2.413
 1580TIP3   OH2 4745   0.784   5.250   0.289
 1580TIP3    H1 4746   0.828   5.334   0.274
 1580TIP3    H2 4747   0.808   5.226   0.379
 1581TIP3   OH2 4748   6.073   0.932   3.862
 1581TIP3    H1 4749   6.088   0.948   3.955
 1581TIP3    H2 4750   6.066   1.019   3.823
 1582TIP3   OH2 4751   1.199   1.198   5.096
 1582TIP3    H1 4752   1.240   1.253   5.028
 1582TIP3    H2 4753   1.109   1.186   5.066
 1583TIP3   OH2 4754   2.015   2.645   0.341
 1583TIP3    H1 4755   1.957   2.620   0.413
 1583TIP3    H2 4756   1.981   2.597   0.265
 1584TIP3   OH2 4757   1.621   4.159   1.915
 1584TIP3    H1 4758   1.688   4.099   1.949
 1584TIP3    H2 4759   1.575   4.108   1.849
 1585TIP3   OH2 4760   5.625   1.641   1.897
 1585TIP3    H1 4761   5.623   1.626   1.991
 1585TIP3    H2 4762   5.718   1.637   1.873
 1586TIP3   OH2 4763   5.583   3.637   1.923
 1586TIP3    H1 4764   5.673   3.658   1.897
 1586TIP3    H2 4765   5.533   3.644   1.843
 1587TIP3   OH2 4766   4.384   1.740   3.623
 1587TIP3    H1 4767   4.434   1.782   3.693
 1587TIP3    H2 4768   4.406   1.647   3.630
 1588TIP3   OH2 4769   0.931   2.379   1.367
 1588TIP3    H1 4770   0.950   2.408   1.278
 1588TIP3    H2 4771   0.860   2.316   1.358
 1589TIP3   OH2 4772   1.305   5.860   0.217
 1589TIP3    H1 4773   1.294   5.792   0.150
 1589TIP3    H2 4774   1.230   5.918   0.204
 1590TIP3   OH2 4775   5.665   2.096   3.403
 1590TIP3    H1 4776   5.735   2.030   3.400
 1590TIP3    H2 4777   5.677   2.139   3.488
 1591TIP3   OH2 4778   2.234   4.188   3.081
 1591TIP3    H1 4779   2.276   4.175   3.166
 1591TIP3    H2 4780   2.185   4.107   3.066
 1592TIP3   OH2 4781   5.094   4.928   3.713
 1592TIP3    H1 4782   5.026   4.982   3.672
 1592TIP3    H2 4783   5.175   4.955   3.669
 1593TIP3   OH2 4784   3.199   0.672   3.196
 1593TIP3    H1 4785   3.260   0.733   3.237
 1593TIP3    H2 4786   3.206   0.592   3.248
 1594TIP3   OH2 4787   4.716   2.140   0.904
 1594TIP3    H1 4788   4.774   2.215   0.914
 1594TIP3    H2 4789   4.680   2.149   0.816
 1595TIP3   OH2 4790   5.038   5.876   4.682
 1595TIP3    H1 4791   5.057   5.784   4.697
 1595TIP3    H2 4792   5.097   5.923   4.742
 1596TIP3   OH2 4793   0.171   5.866   3.635
 1596TIP3    H1 4794   0.248   5.858   3.579
 1596TIP3    H2 4795   0.167   5.960   3.656
 1597TIP3   OH2 4796   5.641   0.226   1.552
 1597TIP3    H1 4797   5.714   0.164   1.562
 1597TIP3    H2 4798   5.595   0.222   1.636
 1598TIP3   OH2 4799   1.125   2.284   1.954
 1598TIP3    H1 4800   1.156   2.285   2.045
 1598TIP3    H2 4801   1.175   2.214   1.913
 1599TIP3   OH2 4802   2.957   0.824   4.299
 1599TIP3    H1 4803   2.984   0.733   4.285
 1599TIP3    H2 4804   3.037   0.874   4.288
 1600TIP3   OH2 4805   3.909   1.866   3.927
 1600TIP3    H1 4806   3.965   1.944   3.925
 1600TIP3    H2 4807   3.830   1.892   3.879
 1601TIP3   OH2 4808   4.873   0.301   1.459
 1601TIP3    H1 4809   4.870   0.364   1.531
 1601TIP3    H2 4810   4.782   0.293   1.431
 1602TIP3   OH2 4811   5.648   3.270   0.537
 1602TIP3    H1 4812   5.578   3.318   0.581
 1602TIP3    H2 4813   5.726   3.325   0.547
 1603TIP3   OH2 4814   6.069   2.721   0.852
 1603TIP3    H1 4815   6.145   2.761   0.810
 1603TIP3    H2 4816   6.105   2.648   0.903
 1604TIP3   OH2 4817   4.869   5.181   1.493
 1604TIP3    H1 4818   4.781   5.147   1.505
 1604TIP3    H2 4819   4.877   5.195   1.399
 1605TIP3   OH2 4820   2.808   1.362   2.245
 1605TIP3    H1 4821   2.878   1.424   2.264
 1605TIP3    H2 4822   2.825   1.288   2.302
 1606TIP3   OH2 4823   4.597   0.605   4.359
 1606TIP3    H1 4824   4.680   0.557   4.354
 1606TIP3    H2 4825   4.612   0.669   4.429
 1607TIP3   OH2 4826   0.075   2.034   2.200
 1607TIP3    H1 4827   0.031   2.049   2.284
 1607TIP3    H2 4828   0.108   2.121   2.175
 1608TIP3   OH2 4829   5.939   1.407   2.765
 1608TIP3    H1 4830   5.893   1.326   2.786
 1608TIP3    H2 4831   5.895   1.474   2.818
 1609TIP3   OH2 4832   1.314   0.742   2.961
 1609TIP3    H1 4833   1.319   0.733   2.866
 1609TIP3    H2 4834   1.377   0.811   2.982
 1610TIP3   OH2 4835   4.821   2.690   4.702
 1610TIP3    H1 4836   4.795   2.717   4.614
 1610TIP3    H2 4837   4.878   2.614   4.689
 1611TIP3   OH2 4838   4.089   5.866   4.332
 1611TIP3    H1 4839   4.074   5.903   4.419
 1611TIP3    H2 4840   4.155   5.798   4.346
 1612TIP3   OH2 4841   3.782   3.221   1.399
 1612TIP3    H1 4842   3.812   3.130   1.409
 1612TIP3    H2 4843   3.852   3.274   1.437
 1613TIP3   OH2 4844   6.145   0.453   1.646
 1613TIP3    H1 4845   6.238   0.470   1.628
 1613TIP3    H2 4846   6.121   0.383   1.585
 1614TIP3   OH2 4847   2.689   2.510   3.490
 1614TIP3    H1 4848   2.650   2.567   3.557
 1614TIP3    H2 4849   2.730   2.439   3.540
 1615TIP3   OH2 4850   4.373   1.175   4.777
 1615TIP3    H1 4851   4.313   1.117   4.730
 1615TIP3    H2 4852   4.458   1.132   4.770
 1616TIP3   OH2 4853   5.680   3.730   2.731
 1616TIP3    H1 4854   5.772   3.757   2.730
 1616TIP3    H2 4855   5.640   3.777   2.658
 1617TIP3   OH2 4856   3.600   2.533   4.697
 1617TIP3    H1 4857   3.534   2.467   4.678
 1617TIP3    H2 4858   3.682   2.485   4.704
 1618TIP3   OH2 4859   3.768   5.257   3.030
 1618TIP3    H1 4860   3.812   5.293   2.953
 1618TIP3    H2 4861   3.685   5.304   3.034
 1619TIP3   OH2 4862   3.583   3.436   2.707
 1619TIP3    H1 4863   3.608   3.344   2.701
 1619TIP3    H2 4864   3.664   3.480   2.733
 1620TIP3   OH2 4865   6.099   2.306   1.220
 1620TIP3    H1 4866   6.075   2.249   1.147
 1620TIP3    H2 4867   6.131   2.245   1.287
 1621TIP3   OH2 4868   2.680   5.430   0.239
 1621TIP3    H1 4869   2.629   5.362   0.195
 1621TIP3    H2 4870   2.769   5.396   0.239
 1622TIP3   OH2 4871   1.799   3.065   1.709
 1622TIP3    H1 4872   1.791   3.159   1.726
 1622TIP3    H2 4873   1.890   3.044   1.729
 1623TIP3   OH2 4874   1.749   4.758   4.657
 1623TIP3    H1 4875   1.771   4.850   4.673
 1623TIP3    H2 4876   1.675   4.761   4.596
 1624TIP3   OH2 4877   3.605   0.081   0.681
 1624TIP3    H1 4878   3.569   0.022   0.615
 1624TIP3    H2 4879   3.529   0.126   0.717
 1625TIP3   OH2 4880   1.218   4.541   1.568
 1625TIP3    H1 4881   1.196   4.632   1.549
 1625TIP3    H2 4882   1.245   4.542   1.660
 1626TIP3   OH2 4883   5.944   0.938   4.339
 1626TIP3    H1 4884   5.983   0.998   4.403
 1626TIP3    H2 4885   5.853   0.967   4.331
 1627TIP3   OH2 4886  -0.016   0.298   1.505
 1627TIP3    H1 4887   0.075   0.296   1.474
 1627TIP3    H2 4888  -0.012   0.257   1.592
 1628TIP3   OH2 4889   3.463   5.902   2.582
 1628TIP3    H1 4890   3.494   5.939   2.664
 1628TIP3    H2 4891   3.503   5.815   2.578
 1629TIP3   OH2 4892   4.425   4.773   4.299
 1629TIP3    H1 4893   4.374   4.845   4.261
 1629TIP3    H2 4894   4.388   4.760   4.386
 1630TIP3   OH2 4895   4.807   2.994   2.343
 1630TIP3    H1 4896   4.870   3.066   2.351
 1630TIP3    H2 4897   4.815   2.945   2.425
 1631TIP3   OH2 4898   5.820   5.675   1.155
 1631TIP3    H1 4899   5.859   5.645   1.237
 1631TIP3    H2 4900   5.738   5.716   1.180
 1632TIP3   OH2 4901   1.317   5.526   2.177
 1632TIP3    H1 4902   1.270   5.445   2.156
 1632TIP3    H2 4903   1.250   5.583   2.216
 1633TIP3   OH2 4904   3.634   4.066   3.057
 1633TIP3    H1 4905   3.722   4.089   3.086
 1633TIP3    H2 4906   3.623   3.975   3.083
 1634TIP3   OH2 4907   4.011   2.364   5.073
 1634TIP3    H1 4908   4.034   2.451   5.105
 1634TIP3    H2 4909   3.963   2.381   4.991
 1635TIP3   OH2 4910   6.073   5.604   1.647
 1635TIP3    H1 4911   6.134   5.531   1.650
 1635TIP3    H2 4912   6.096   5.659   1.722
 1636TIP3   OH2 4913   1.738   3.417   0.598
 1636TIP3    H1 4914   1.785   3.335   0.581
 1636TIP3    H2 4915   1.676   3.394   0.667
 1637TIP3   OH2 4916   4.430   4.311   1.757
 1637TIP3    H1 4917   4.524   4.289   1.760
 1637TIP3    H2 4918   4.427   4.399   1.718
 1638TIP3   OH2 4919   1.250   1.524   3.360
 1638TIP3    H1 4920   1.256   1.604   3.307
 1638TIP3    H2 4921   1.322   1.531   3.422
 1639TIP3   OH2 4922   5.412   5.395   1.852
 1639TIP3    H1 4923   5.346   5.445   1.900
 1639TIP3    H2 4924   5.464   5.352   1.920
 1640TIP3   OH2 4925   6.155   3.318   0.068
 1640TIP3    H1 4926   6.153   3.395   0.011
 1640TIP3    H2 4927   6.168   3.353   0.156
 1641TIP3   OH2 4928   5.510   0.289   3.682
 1641TIP3    H1 4929   5.605   0.296   3.682
 1641TIP3    H2 4930   5.482   0.348   3.753
 1642TIP3   OH2 4931   4.424   3.129   0.849
 1642TIP3    H1 4932   4.331   3.151   0.855
 1642TIP3    H2 4933   4.429   3.037   0.875
 1643TIP3   OH2 4934   5.901   3.789   3.276
 1643TIP3    H1 4935   5.838   3.726   3.242
 1643TIP3    H2 4936   5.865   3.817   3.361
 1644TIP3   OH2 4937   2.062   0.883   3.040
 1644TIP3    H1 4938   2.102   0.796   3.035
 1644TIP3    H2 4939   1.977   0.868   3.080
 1645TIP3   OH2 4940   5.630   4.955   2.738
 1645TIP3    H1 4941   5.575   5.032   2.752
 1645TIP3    H2 4942   5.717   4.983   2.764
 1646TIP3   OH2 4943   1.635   0.298   3.237
 1646TIP3    H1 4944   1.546   0.274   3.211
 1646TIP3    H2 4945   1.636   0.287   3.332
 1647TIP3   OH2 4946   1.709   3.004   4.248
 1647TIP3    H1 4947   1.643   3.072   4.265
 1647TIP3    H2 4948   1.738   2.977   4.335
 1648TIP3   OH2 4949   4.731   0.191   1.684
 1648TIP3    H1 4950   4.683   0.125   1.734
 1648TIP3    H2 4951   4.819   0.155   1.674
 1649TIP3   OH2 4952   0.192   4.907   2.677
 1649TIP3    H1 4953   0.172   4.883   2.767
 1649TIP3    H2 4954   0.272   4.959   2.683
 1650TIP3   OH2 4955   4.225   4.806   4.883
 1650TIP3    H1 4956   4.130   4.815   4.874
 1650TIP3    H2 4957   4.257   4.896   4.886
 1651TIP3   OH2 4958   3.513   3.659   3.824
 1651TIP3    H1 4959   3.607   3.649   3.839
 1651TIP3    H2 4960   3.507   3.712   3.744
 1652TIP3   OH2 4961   4.840   3.708   3.553
 1652TIP3    H1 4962   4.779   3.770   3.592
 1652TIP3    H2 4963   4.926   3.749   3.565
 1653TIP3   OH2 4964   3.052   4.482   1.998
 1653TIP3    H1 4965   3.066   4.403   2.050
 1653TIP3    H2 4966   3.086   4.553   2.053
 1654TIP3   OH2 4967   2.051   5.609   3.244
 1654TIP3    H1 4968   2.045   5.693   3.199
 1654TIP3    H2 4969   2.084   5.630   3.331
 1655TIP3   OH2 4970   4.322   2.506   2.529
 1655TIP3    H1 4971   4.270   2.517   2.609
 1655TIP3    H2 4972   4.411   2.489   2.561
 1656TIP3   OH2 4973   0.135   1.631   4.976
 1656TIP3    H1 4974   0.065   1.595   4.922
 1656TIP3    H2 4975   0.206   1.568   4.967
 1657TIP3   OH2 4976   1.543   2.475   3.858
 1657TIP3    H1 4977   1.612   2.469   3.792
 1657TIP3    H2 4978   1.587   2.454   3.941
 1658TIP3   OH2 4979   2.545   3.865   2.283
 1658TIP3    H1 4980   2.606   3.792   2.267
 1658TIP3    H2 4981   2.528   3.902   2.197
 1659TIP3   OH2 4982   2.698   2.496   4.000
 1659TIP3    H1 4983   2.781   2.469   4.037
 1659TIP3    H2 4984   2.635   2.429   4.028
 1660TIP3   OH2 4985   2.953   2.229   2.938
 1660TIP3    H1 4986   2.980   2.320   2.926
 1660TIP3    H2 4987   2.941   2.220   3.033
 1661TIP3   OH2 4988   2.919   0.382   2.531
 1661TIP3    H1 4989   2.964   0.308   2.571
 1661TIP3    H2 4990   2.987   0.447   2.514
 1662TIP3   OH2 4991   3.063   3.234   2.371
 1662TIP3    H1 4992   3.103   3.254   2.456
 1662TIP3    H2 4993   3.126   3.175   2.329
 1663TIP3   OH2 4994   1.397   5.228   4.573
 1663TIP3    H1 4995   1.480   5.263   4.605
 1663TIP3    H2 4996   1.421   5.159   4.511
 1664TIP3   OH2 4997   6.059   1.084   4.568
 1664TIP3    H1 4998   6.130   1.114   4.624
 1664TIP3    H2 4999   6.003   1.033   4.627
 1665TIP3   OH2 5000   1.038   4.471   1.225
 1665TIP3    H1 5001   1.089   4.552   1.229
 1665TIP3    H2 5002   0.983   4.474   1.304
 1666TIP3   OH2 5003   1.689   4.425   1.805
 1666TIP3    H1 5004   1.686   4.341   1.852
 1666TIP3    H2 5005   1.685   4.401   1.712
 1667TIP3   OH2 5006   4.600   2.325   1.120
 1667TIP3    H1 5007   4.602   2.357   1.029
 1667TIP3    H2 5008   4.513   2.287   1.130
 1668TIP3   OH2 5009   1.594   1.383   2.092
 1668TIP3    H1 5010   1.511   1.373   2.045
 1668TIP3    H2 5011   1.570   1.402   2.182
 1669TIP3   OH2 5012   1.869   1.639   2.329
 1669TIP3    H1 5013   1.861   1.555   2.374
 1669TIP3    H2 5014   1.938   1.685   2.378
 1670TIP3   OH2 5015   0.426   0.019   3.440
 1670TIP3    H1 5016   0.332   0.003   3.453
 1670TIP3    H2 5017   0.437   0.113   3.455
 1671TIP3   OH2 5018   1.692   0.191   2.978
 1671TIP3    H1 5019   1.669   0.262   3.038
 1671TIP3    H2 5020   1.643   0.115   3.011
 1672TIP3   OH2 5021   4.994   2.420   3.521
 1672TIP3    H1 5022   5.081   2.437   3.559
 1672TIP3    H2 5023   4.952   2.506   3.520
 1673TIP3   OH2 5024   3.493   2.388   0.782
 1673TIP3    H1 5025   3.542   2.337   0.846
 1673TIP3    H2 5026   3.419   2.424   0.831
 1674TIP3   OH2 5027   3.942   2.113   0.317
 1674TIP3    H1 5028   3.999   2.049   0.274
 1674TIP3    H2 5029   3.997   2.191   0.327
 1675TIP3   OH2 5030   5.695   2.993   0.257
 1675TIP3    H1 5031   5.704   2.934   0.182
 1675TIP3    H2 5032   5.606   3.027   0.251
 1676TIP3   OH2 5033   1.473   4.349   2.204
 1676TIP3    H1 5034   1.560   4.335   2.167
 1676TIP3    H2 5035   1.481   4.320   2.295
 1677TIP3   OH2 5036   1.463   3.669   1.719
 1677TIP3    H1 5037   1.515   3.724   1.659
 1677TIP3    H2 5038   1.412   3.732   1.771
 1678TIP3   OH2 5039   2.130   3.316   1.826
 1678TIP3    H1 5040   2.045   3.287   1.860
 1678TIP3    H2 5041   2.187   3.240   1.835
 1679TIP3   OH2 5042   4.456   1.495   0.673
 1679TIP3    H1 5043   4.396   1.546   0.728
 1679TIP3    H2 5044   4.411   1.411   0.661
 1680TIP3   OH2 5045   3.903   5.556   4.398
 1680TIP3    H1 5046   3.850   5.569   4.319
 1680TIP3    H2 5047   3.857   5.604   4.467
 1681TIP3   OH2 5048   1.096   3.263   1.300
 1681TIP3    H1 5049   1.163   3.242   1.235
 1681TIP3    H2 5050   1.013   3.243   1.257
 1682TIP3   OH2 5051   4.382   2.210   3.731
 1682TIP3    H1 5052   4.314   2.202   3.798
 1682TIP3    H2 5053   4.458   2.165   3.768
 1683TIP3   OH2 5054   5.111   3.634   4.735
 1683TIP3    H1 5055   5.110   3.542   4.709
 1683TIP3    H2 5056   5.204   3.653   4.750
 1684TIP3   OH2 5057   1.822   0.437   5.193
 1684TIP3    H1 5058   1.733   0.408   5.212
 1684TIP3    H2 5059   1.833   0.422   5.099
 1685TIP3   OH2 5060   1.094   2.851   0.255
 1685TIP3    H1 5061   1.100   2.923   0.318
 1685TIP3    H2 5062   1.114   2.772   0.306
 1686TIP3   OH2 5063   3.615   3.724   1.793
 1686TIP3    H1 5064   3.573   3.640   1.811
 1686TIP3    H2 5065   3.582   3.782   1.862
 1687TIP3   OH2 5066   4.950   3.087   5.036
 1687TIP3    H1 5067   4.898   3.168   5.039
 1687TIP3    H2 5068   4.891   3.023   4.997
 1688TIP3   OH2 5069   6.073   2.297   4.529
 1688TIP3    H1 5070   6.005   2.259   4.474
 1688TIP3    H2 5071   6.149   2.241   4.516
 1689TIP3   OH2 5072   5.911   1.998   1.820
 1689TIP3    H1 5073   5.968   1.986   1.896
 1689TIP3    H2 5074   5.899   2.093   1.814
 1690TIP3   OH2 5075   4.215   5.016   3.743
 1690TIP3    H1 5076   4.186   5.087   3.686
 1690TIP3    H2 5077   4.198   5.047   3.831
 1691TIP3   OH2 5078   1.828   4.011   4.243
 1691TIP3    H1 5079   1.834   3.915   4.244
 1691TIP3    H2 5080   1.881   4.040   4.317
 1692TIP3   OH2 5081   0.950   5.245   3.226
 1692TIP3    H1 5082   0.922   5.203   3.145
 1692TIP3    H2 5083   1.012   5.312   3.198
 1693TIP3   OH2 5084   5.033   3.739   0.968
 1693TIP3    H1 5085   4.941   3.714   0.961
 1693TIP3    H2 5086   5.069   3.724   0.881
 1694TIP3   OH2 5087   5.820   3.660   4.401
 1694TIP3    H1 5088   5.838   3.675   4.308
 1694TIP3    H2 5089   5.903   3.625   4.436
 1695TIP3   OH2 5090   3.956   2.664   1.787
 1695TIP3    H1 5091   4.026   2.686   1.849
 1695TIP3    H2 5092   3.999   2.662   1.702
 1696TIP3   OH2 5093   1.485   2.154   2.227
 1696TIP3    H1 5094   1.431   2.109   2.293
 1696TIP3    H2 5095   1.573   2.121   2.243
 1697TIP3   OH2 5096   0.496   2.562   1.210
 1697TIP3    H1 5097   0.463   2.574   1.121
 1697TIP3    H2 5098   0.418   2.543   1.262
 1698TIP3   OH2 5099   0.812   5.098   1.505
 1698TIP3    H1 5100   0.802   5.190   1.529
 1698TIP3    H2 5101   0.748   5.086   1.434
 1699TIP3   OH2 5102   3.196   1.672   4.287
 1699TIP3    H1 5103   3.155   1.736   4.228
 1699TIP3    H2 5104   3.257   1.724   4.339
 1700TIP3   OH2 5105   3.765   0.039   5.033
 1700TIP3    H1 5106   3.767   0.025   5.128
 1700TIP3    H2 5107   3.835  -0.016   4.999
 1701TIP3   OH2 5108   1.682   3.971   5.116
 1701TIP3    H1 5109   1.729   3.975   5.200
 1701TIP3    H2 5110   1.608   4.030   5.129
 1702TIP3   OH2 5111   1.349   2.142   4.382
 1702TIP3    H1 5112   1.271   2.136   4.437
 1702TIP3    H2 5113   1.354   2.057   4.338
 1703TIP3   OH2 5114   2.201   1.250   3.453
 1703TIP3    H1 5115   2.221   1.276   3.363
 1703TIP3    H2 5116   2.113   1.213   3.448
 1704TIP3   OH2 5117   5.340   4.311   5.059
 1704TIP3    H1 5118   5.286   4.368   5.004
 1704TIP3    H2 5119   5.411   4.283   5.001
 1705TIP3   OH2 5120   0.623   5.295   0.847
 1705TIP3    H1 5121   0.601   5.273   0.756
 1705TIP3    H2 5122   0.560   5.246   0.900
 1706TIP3   OH2 5123   0.836   1.928   4.837
 1706TIP3    H1 5124   0.764   1.985   4.861
 1706TIP3    H2 5125   0.874   1.900   4.921
 1707TIP3   OH2 5126   0.466   1.651   1.882
 1707TIP3    H1 5127   0.434   1.632   1.794
 1707TIP3    H2 5128   0.396   1.624   1.941
 1708TIP3   OH2 5129   2.692   1.107   2.544
 1708TIP3    H1 5130   2.698   1.013   2.562
 1708TIP3    H2 5131   2.763   1.124   2.482
 1709TIP3   OH2 5132   2.765   0.284   2.727
 1709TIP3    H1 5133   2.811   0.203   2.704
 1709TIP3    H2 5134   2.814   0.353   2.680
 1710TIP3   OH2 5135   0.746   0.134   0.556
 1710TIP3    H1 5136   0.677   0.149   0.621
 1710TIP3    H2 5137   0.802   0.067   0.596
 1711TIP3   OH2 5138   4.393   5.625   1.071
 1711TIP3    H1 5139   4.322   5.688   1.058
 1711TIP3    H2 5140   4.350   5.547   1.107
 1712TIP3   OH2 5141   2.707   0.303   3.435
 1712TIP3    H1 5142   2.658   0.230   3.398
 1712TIP3    H2 5143   2.791   0.300   3.390
 1713TIP3   OH2 5144   3.516   1.866   0.282
 1713TIP3    H1 5145   3.583   1.909   0.335
 1713TIP3    H2 5146   3.433   1.901   0.315
 1714TIP3   OH2 5147   4.862   1.507   2.140
 1714TIP3    H1 5148   4.870   1.548   2.054
 1714TIP3    H2 5149   4.917   1.429   2.135
 1715TIP3   OH2 5150   1.681   3.367   2.807
 1715TIP3    H1 5151   1.707   3.311   2.734
 1715TIP3    H2 5152   1.698   3.314   2.885
 1716TIP3   OH2 5153   5.786   0.405   0.646
 1716TIP3    H1 5154   5.789   0.314   0.678
 1716TIP3    H2 5155   5.755   0.455   0.721
 1717TIP3   OH2 5156   0.071   3.666   2.309
 1717TIP3    H1 5157   0.091   3.690   2.400
 1717TIP3    H2 5158   0.150   3.622   2.278
 1718TIP3   OH2 5159   4.104   5.016   3.336
 1718TIP3    H1 5160   4.184   4.979   3.296
 1718TIP3    H2 5161   4.136   5.066   3.411
 1719TIP3   OH2 5162   3.713   0.062   3.083
 1719TIP3    H1 5163   3.666   0.145   3.092
 1719TIP3    H2 5164   3.685   0.027   2.999
 1720TIP3   OH2 5165   6.075   4.375   3.006
 1720TIP3    H1 5166   6.103   4.328   3.085
 1720TIP3    H2 5167   6.045   4.460   3.038
 1721TIP3   OH2 5168   0.264   0.375   0.351
 1721TIP3    H1 5169   0.206   0.426   0.295
 1721TIP3    H2 5170   0.207   0.343   0.421
 1722TIP3   OH2 5171   1.766   2.257   4.242
 1722TIP3    H1 5172   1.684   2.268   4.194
 1722TIP3    H2 5173   1.784   2.342   4.280
 1723TIP3   OH2 5174   3.771   1.740   4.193
 1723TIP3    H1 5175   3.821   1.771   4.117
 1723TIP3    H2 5176   3.837   1.704   4.251
 1724TIP3   OH2 5177   6.161   2.915   0.193
 1724TIP3    H1 5178   6.232   2.979   0.187
 1724TIP3    H2 5179   6.175   2.873   0.278
 1725TIP3   OH2 5180   4.929   1.668   2.964
 1725TIP3    H1 5181   4.947   1.579   2.993
 1725TIP3    H2 5182   4.866   1.702   3.027
 1726TIP3   OH2 5183   0.154   0.038   0.224
 1726TIP3    H1 5184   0.116  -0.018   0.292
 1726TIP3    H2 5185   0.082   0.054   0.163
 1727TIP3   OH2 5186   0.225   0.863   3.446
 1727TIP3    H1 5187   0.179   0.805   3.385
 1727TIP3    H2 5188   0.168   0.866   3.523
 1728TIP3   OH2 5189   4.871   1.670   2.689
 1728TIP3    H1 5190   4.871   1.686   2.784
 1728TIP3    H2 5191   4.865   1.574   2.681
 1729TIP3   OH2 5192   2.555   2.197   2.314
 1729TIP3    H1 5193   2.513   2.171   2.396
 1729TIP3    H2 5194   2.549   2.119   2.259
 1730TIP3   OH2 5195   3.603   5.001   4.879
 1730TIP3    H1 5196   3.554   5.018   4.959
 1730TIP3    H2 5197   3.551   4.936   4.832
 1731TIP3   OH2 5198   2.222   2.725   2.128
 1731TIP3    H1 5199   2.235   2.711   2.034
 1731TIP3    H2 5200   2.161   2.656   2.154
 1732TIP3   OH2 5201   4.731   4.018   4.672
 1732TIP3    H1 5202   4.764   3.955   4.736
 1732TIP3    H2 5203   4.776   4.100   4.694
 1733TIP3   OH2 5204  -0.016   3.648   4.528
 1733TIP3    H1 5205   0.033   3.712   4.476
 1733TIP3    H2 5206  -0.022   3.688   4.615
 1734TIP3   OH2 5207   5.636   3.602   4.628
 1734TIP3    H1 5208   5.690   3.631   4.554
 1734TIP3    H2 5209   5.555   3.571   4.587
 1735TIP3   OH2 5210   1.575   2.958   3.730
 1735TIP3    H1 5211   1.529   2.923   3.806
 1735TIP3    H2 5212   1.625   2.884   3.696
 1736TIP3   OH2 5213   5.289   3.221   4.592
 1736TIP3    H1 5214   5.213   3.171   4.622
 1736TIP3    H2 5215   5.252   3.296   4.546
 1737TIP3   OH2 5216   6.240   2.602   3.933
 1737TIP3    H1 5217   6.183   2.672   3.900
 1737TIP3    H2 5218   6.185   2.552   3.992
 1738TIP3   OH2 5219   6.347   2.624   1.752
 1738TIP3    H1 5220   6.326   2.621   1.659
 1738TIP3    H2 5221   6.326   2.714   1.779
 1739TIP3   OH2 5222   2.838   0.816   1.840
 1739TIP3    H1 5223   2.817   0.845   1.751
 1739TIP3    H2 5224   2.776   0.862   1.896
 1740TIP3   OH2 5225   2.750   4.775   4.500
 1740TIP3    H1 5226   2.764   4.854   4.449
 1740TIP3    H2 5227   2.685   4.800   4.566
 1741TIP3   OH2 5228   2.286   2.945   3.119
 1741TIP3    H1 5229   2.342   2.871   3.094
 1741TIP3    H2 5230   2.234   2.912   3.192
 1742TIP3   OH2 5231   6.278   3.017   3.294
 1742TIP3    H1 5232   6.312   3.056   3.213
 1742TIP3    H2 5233   6.356   2.991   3.343
 1743TIP3   OH2 5234   1.433   4.815   1.810
 1743TIP3    H1 5235   1.383   4.894   1.789
 1743TIP3    H2 5236   1.471   4.832   1.896
 1744TIP3   OH2 5237   4.611   0.380   5.004
 1744TIP3    H1 5238   4.605   0.466   5.046
 1744TIP3    H2 5239   4.702   0.353   5.020
 1745TIP3   OH2 5240   2.874   1.721   1.584
 1745TIP3    H1 5241   2.903   1.680   1.665
 1745TIP3    H2 5242   2.940   1.789   1.567
 1746TIP3   OH2 5243   0.777   2.313   0.335
 1746TIP3    H1 5244   0.737   2.226   0.343
 1746TIP3    H2 5245   0.796   2.339   0.425
 1747TIP3   OH2 5246   0.199   4.071   3.290
 1747TIP3    H1 5247   0.288   4.042   3.271
 1747TIP3    H2 5248   0.204   4.107   3.379
 1748TIP3   OH2 5249   6.098   0.634   0.889
 1748TIP3    H1 5250   6.062   0.721   0.871
 1748TIP3    H2 5251   6.175   0.650   0.943
 1749TIP3   OH2 5252   2.854   3.995   3.399
 1749TIP3    H1 5253   2.880   4.062   3.461
 1749TIP3    H2 5254   2.780   3.951   3.440
 1750TIP3   OH2 5255   1.087   5.149   0.300
 1750TIP3    H1 5256   1.139   5.191   0.231
 1750TIP3    H2 5257   1.148   5.141   0.374
 1751TIP3   OH2 5258   1.939   4.930   2.934
 1751TIP3    H1 5259   1.885   4.999   2.896
 1751TIP3    H2 5260   1.988   4.894   2.860
 1752TIP3   OH2 5261   2.534   2.550   2.287
 1752TIP3    H1 5262   2.535   2.613   2.215
 1752TIP3    H2 5263   2.623   2.551   2.322
 1753TIP3   OH2 5264   0.957   5.558   3.309
 1753TIP3    H1 5265   0.867   5.565   3.277
 1753TIP3    H2 5266   0.956   5.481   3.367
 1754TIP3   OH2 5267   2.933   1.661   1.907
 1754TIP3    H1 5268   2.840   1.638   1.909
 1754TIP3    H2 5269   2.933   1.756   1.894
 1755TIP3   OH2 5270   5.160   5.080   1.912
 1755TIP3    H1 5271   5.167   5.083   1.816
 1755TIP3    H2 5272   5.160   5.172   1.939
 1756TIP3   OH2 5273   2.773   3.320   0.352
 1756TIP3    H1 5274   2.846   3.382   0.352
 1756TIP3    H2 5275   2.696   3.374   0.338
 1757TIP3   OH2 5276   2.913   2.008   3.941
 1757TIP3    H1 5277   2.981   2.053   3.892
 1757TIP3    H2 5278   2.833   2.058   3.924
 1758TIP3   OH2 5279   1.760   0.444   1.230
 1758TIP3    H1 5280   1.745   0.413   1.140
 1758TIP3    H2 5281   1.811   0.374   1.270
 1759TIP3   OH2 5282   4.385   4.675   2.161
 1759TIP3    H1 5283   4.435   4.595   2.180
 1759TIP3    H2 5284   4.430   4.714   2.086
 1760TIP3   OH2 5285   1.347   3.469   3.076
 1760TIP3    H1 5286   1.412   3.529   3.113
 1760TIP3    H2 5287   1.286   3.452   3.147
 1761TIP3   OH2 5288   1.210   0.158   4.415
 1761TIP3    H1 5289   1.149   0.232   4.413
 1761TIP3    H2 5290   1.154   0.080   4.412
 1762TIP3   OH2 5291   2.202   5.471   2.832
 1762TIP3    H1 5292   2.189   5.501   2.922
 1762TIP3    H2 5293   2.178   5.378   2.834
 1763TIP3   OH2 5294   1.863   5.905   4.873
 1763TIP3    H1 5295   1.856   5.949   4.788
 1763TIP3    H2 5296   1.867   5.812   4.851
 1764TIP3   OH2 5297   1.365   3.681   4.920
 1764TIP3    H1 5298   1.420   3.724   4.854
 1764TIP3    H2 5299   1.329   3.604   4.875
 1765TIP3   OH2 5300   1.055   1.374   3.701
 1765TIP3    H1 5301   1.099   1.290   3.710
 1765TIP3    H2 5302   0.980   1.369   3.761
 1766TIP3   OH2 5303   4.198   3.487   4.953
 1766TIP3    H1 5304   4.207   3.393   4.969
 1766TIP3    H2 5305   4.165   3.522   5.036
 1767TIP3   OH2 5306   1.655   1.028   4.759
 1767TIP3    H1 5307   1.621   1.098   4.815
 1767TIP3    H2 5308   1.600   0.952   4.779
 1768TIP3   OH2 5309   4.405   4.743   4.574
 1768TIP3    H1 5310   4.365   4.676   4.629
 1768TIP3    H2 5311   4.441   4.806   4.635
 1769TIP3   OH2 5312   4.707   5.508   3.063
 1769TIP3    H1 5313   4.781   5.568   3.073
 1769TIP3    H2 5314   4.742   5.436   3.011
 1770TIP3   OH2 5315   6.308   3.017   0.938
 1770TIP3    H1 5316   6.256   3.025   0.858
 1770TIP3    H2 5317   6.263   3.074   1.001
 1771TIP3   OH2 5318   2.937   0.609   3.019
 1771TIP3    H1 5319   3.012   0.654   3.058
 1771TIP3    H2 5320   2.965   0.518   3.010
 1772TIP3   OH2 5321   5.026   0.935   1.193
 1772TIP3    H1 5322   5.063   1.023   1.192
 1772TIP3    H2 5323   5.016   0.911   1.101
 1773TIP3   OH2 5324   3.624   1.917   4.986
 1773TIP3    H1 5325   3.545   1.971   4.986
 1773TIP3    H2 5326   3.615   1.862   4.908
 1774TIP3   OH2 5327   1.772   0.500   4.306
 1774TIP3    H1 5328   1.813   0.585   4.284
 1774TIP3    H2 5329   1.846   0.440   4.313
 1775TIP3   OH2 5330   2.482   0.536   2.750
 1775TIP3    H1 5331   2.463   0.627   2.771
 1775TIP3    H2 5332   2.542   0.541   2.676
 1776TIP3   OH2 5333   0.791   1.111   4.700
 1776TIP3    H1 5334   0.733   1.035   4.699
 1776TIP3    H2 5335   0.758   1.166   4.770
 1777TIP3   OH2 5336   2.847   2.637   0.555
 1777TIP3    H1 5337   2.761   2.613   0.520
 1777TIP3    H2 5338   2.843   2.733   0.563
 1778TIP3   OH2 5339   2.064   3.087   4.059
 1778TIP3    H1 5340   2.092   2.999   4.036
 1778TIP3    H2 5341   2.093   3.098   4.150
 1779TIP3   OH2 5342   4.495   3.323   0.065
 1779TIP3    H1 5343   4.562   3.325  -0.003
 1779TIP3    H2 5344   4.519   3.250   0.121
 1780TIP3   OH2 5345   5.439   3.296   2.482
 1780TIP3    H1 5346   5.531   3.281   2.506
 1780TIP3    H2 5347   5.412   3.370   2.537
 1781TIP3   OH2 5348   1.585   5.842   3.554
 1781TIP3    H1 5349   1.564   5.779   3.622
 1781TIP3    H2 5350   1.520   5.828   3.486
 1782TIP3   OH2 5351   2.913   1.622   1.288
 1782TIP3    H1 5352   2.828   1.606   1.331
 1782TIP3    H2 5353   2.931   1.714   1.305
 1783TIP3   OH2 5354   4.032   2.818   3.881
 1783TIP3    H1 5355   4.049   2.849   3.970
 1783TIP3    H2 5356   4.117   2.788   3.849
 1784TIP3   OH2 5357   3.659   3.152   1.944
 1784TIP3    H1 5358   3.564   3.159   1.959
 1784TIP3    H2 5359   3.674   3.058   1.932
 1785TIP3   OH2 5360   5.720   3.828   3.471
 1785TIP3    H1 5361   5.658   3.770   3.426
 1785TIP3    H2 5362   5.697   3.820   3.563
 1786TIP3   OH2 5363   2.577   4.613   0.720
 1786TIP3    H1 5364   2.646   4.680   0.717
 1786TIP3    H2 5365   2.552   4.601   0.628
 1787TIP3   OH2 5366   6.074   4.407   0.475
 1787TIP3    H1 5367   6.050   4.428   0.565
 1787TIP3    H2 5368   6.057   4.488   0.427
 1788TIP3   OH2 5369   4.871   0.610   1.404
 1788TIP3    H1 5370   4.839   0.608   1.314
 1788TIP3    H2 5371   4.793   0.629   1.456
 1789TIP3   OH2 5372   3.567   2.872   1.687
 1789TIP3    H1 5373   3.490   2.903   1.640
 1789TIP3    H2 5374   3.570   2.778   1.670
 1790TIP3   OH2 5375   4.772   3.369   3.173
 1790TIP3    H1 5376   4.811   3.384   3.087
 1790TIP3    H2 5377   4.753   3.456   3.207
 1791TIP3   OH2 5378   0.470   5.708   4.965
 1791TIP3    H1 5379   0.408   5.646   5.004
 1791TIP3    H2 5380   0.556   5.668   4.979
 1792TIP3   OH2 5381   0.145   3.908   3.546
 1792TIP3    H1 5382   0.198   3.894   3.625
 1792TIP3    H2 5383   0.140   4.003   3.538
 1793TIP3   OH2 5384   5.094   0.753   3.689
 1793TIP3    H1 5385   5.107   0.847   3.703
 1793TIP3    H2 5386   5.133   0.736   3.603
 1794TIP3   OH2 5387   2.542   4.912   4.961
 1794TIP3    H1 5388   2.566   4.998   4.995
 1794TIP3    H2 5389   2.550   4.853   5.035
 1795TIP3   OH2 5390   0.058   0.197   2.228
 1795TIP3    H1 5391  -0.013   0.135   2.244
 1795TIP3    H2 5392   0.033   0.242   2.147
 1796TIP3   OH2 5393   3.429   3.204   4.030
 1796TIP3    H1 5394   3.477   3.223   4.110
 1796TIP3    H2 5395   3.337   3.197   4.057
 1797TIP3   OH2 5396   6.155   4.057   0.699
 1797TIP3    H1 5397   6.068   4.089   0.678
 1797TIP3    H2 5398   6.154   4.042   0.793
 1798TIP3   OH2 5399   1.633   3.019   0.482
 1798TIP3    H1 5400   1.543   3.051   0.473
 1798TIP3    H2 5401   1.651   3.024   0.576
 1799TIP3   OH2 5402   3.568   1.930   2.803
 1799TIP3    H1 5403   3.562   1.885   2.888
 1799TIP3    H2 5404   3.639   1.884   2.757
 1800TIP3   OH2 5405   1.929   4.235   0.690
 1800TIP3    H1 5406   1.933   4.252   0.596
 1800TIP3    H2 5407   1.971   4.150   0.700
 1801TIP3   OH2 5408   2.579   0.924   0.796
 1801TIP3    H1 5409   2.574   0.921   0.701
 1801TIP3    H2 5410   2.664   0.964   0.815
 1802TIP3   OH2 5411   0.762   5.337   1.659
 1802TIP3    H1 5412   0.673   5.305   1.674
 1802TIP3    H2 5413   0.752   5.433   1.656
 1803TIP3   OH2 5414   6.143   4.374   0.189
 1803TIP3    H1 5415   6.227   4.403   0.153
 1803TIP3    H2 5416   6.165   4.298   0.243
 1804TIP3   OH2 5417   4.029   2.686   1.488
 1804TIP3    H1 5418   4.087   2.673   1.414
 1804TIP3    H2 5419   3.945   2.649   1.459
 1805TIP3   OH2 5420   5.477   4.885   4.904
 1805TIP3    H1 5421   5.565   4.878   4.866
 1805TIP3    H2 5422   5.444   4.969   4.872
 1806TIP3   OH2 5423   3.135   1.371   2.129
 1806TIP3    H1 5424   3.088   1.358   2.047
 1806TIP3    H2 5425   3.194   1.296   2.135
 1807TIP3   OH2 5426   3.983   1.578   0.531
 1807TIP3    H1 5427   4.009   1.512   0.595
 1807TIP3    H2 5428   3.980   1.660   0.580
 1808TIP3   OH2 5429   3.202   4.874   2.244
 1808TIP3    H1 5430   3.195   4.928   2.323
 1808TIP3    H2 5431   3.181   4.933   2.172
 1809TIP3   OH2 5432   3.898   1.284   2.016
 1809TIP3    H1 5433   3.989   1.314   2.017
 1809TIP3    H2 5434   3.899   1.206   1.960
 1810TIP3   OH2 5435   0.833   0.701   4.879
 1810TIP3    H1 5436   0.895   0.723   4.809
 1810TIP3    H2 5437   0.789   0.784   4.899
 1811TIP3   OH2 5438   5.520   0.079   2.346
 1811TIP3    H1 5439   5.452   0.119   2.399
 1811TIP3    H2 5440   5.550   0.004   2.398
 1812TIP3   OH2 5441   4.407   0.576   4.166
 1812TIP3    H1 5442   4.473   0.589   4.235
 1812TIP3    H2 5443   4.437   0.497   4.121
 1813TIP3   OH2 5444   0.316   4.981   5.005
 1813TIP3    H1 5445   0.289   4.911   5.064
 1813TIP3    H2 5446   0.264   4.967   4.926
 1814TIP3   OH2 5447   3.214   0.078   1.724
 1814TIP3    H1 5448   3.122   0.086   1.746
 1814TIP3    H2 5449   3.218   0.006   1.662
 1815TIP3   OH2 5450   5.209   1.313   1.555
 1815TIP3    H1 5451   5.180   1.350   1.638
 1815TIP3    H2 5452   5.143   1.247   1.534
 1816TIP3   OH2 5453   1.884   1.308   1.820
 1816TIP3    H1 5454   1.844   1.262   1.894
 1816TIP3    H2 5455   1.823   1.295   1.747
 1817TIP3   OH2 5456   1.543   3.740   0.945
 1817TIP3    H1 5457   1.586   3.786   1.018
 1817TIP3    H2 5458   1.611   3.735   0.877
 1818TIP3   OH2 5459   0.638   2.575   2.224
 1818TIP3    H1 5460   0.586   2.495   2.213
 1818TIP3    H2 5461   0.582   2.632   2.277
 1819TIP3   OH2 5462   2.468   0.535   3.022
 1819TIP3    H1 5463   2.468   0.533   2.926
 1819TIP3    H2 5464   2.381   0.503   3.046
 1820TIP3   OH2 5465   6.155   2.416   4.114
 1820TIP3    H1 5466   6.217   2.469   4.163
 1820TIP3    H2 5467   6.180   2.325   4.134
 1821TIP3   OH2 5468   0.442   5.168   3.767
 1821TIP3    H1 5469   0.529   5.208   3.766
 1821TIP3    H2 5470   0.452   5.089   3.713
 1822TIP3   OH2 5471   3.953   4.850   2.634
 1822TIP3    H1 5472   3.925   4.804   2.554
 1822TIP3    H2 5473   4.023   4.795   2.670
 1823TIP3   OH2 5474   1.206   5.238   2.796
 1823TIP3    H1 5475   1.214   5.148   2.763
 1823TIP3    H2 5476   1.296   5.266   2.811
 1824TIP3   OH2 5477   1.610   5.759   3.103
 1824TIP3    H1 5478   1.585   5.843   3.141
 1824TIP3    H2 5479   1.545   5.743   3.034
 1825TIP3   OH2 5480   1.358   5.626   3.148
 1825TIP3    H1 5481   1.319   5.649   3.232
 1825TIP3    H2 5482   1.451   5.616   3.166
 1826TIP3   OH2 5483   2.261   2.094   3.999
 1826TIP3    H1 5484   2.347   2.134   4.014
 1826TIP3    H2 5485   2.231   2.131   3.916
 1827TIP3   OH2 5486   2.744   2.916   2.290
 1827TIP3    H1 5487   2.703   2.845   2.241
 1827TIP3    H2 5488   2.803   2.957   2.227
 1828TIP3   OH2 5489   4.528   5.035   3.880
 1828TIP3    H1 5490   4.611   5.025   3.835
 1828TIP3    H2 5491   4.508   4.948   3.914
 1829TIP3   OH2 5492   0.480   3.187   0.805
 1829TIP3    H1 5493   0.552   3.162   0.747
 1829TIP3    H2 5494   0.481   3.121   0.874
 1830TIP3   OH2 5495   3.165   4.427   4.536
 1830TIP3    H1 5496   3.102   4.493   4.507
 1830TIP3    H2 5497   3.170   4.438   4.630
 1831TIP3   OH2 5498   2.452   3.793   3.050
 1831TIP3    H1 5499   2.418   3.756   2.968
 1831TIP3    H2 5500   2.423   3.731   3.118
 1832TIP3   OH2 5501   3.192   0.640   4.228
 1832TIP3    H1 5502   3.232   0.583   4.162
 1832TIP3    H2 5503   3.201   0.591   4.310
 1833TIP3   OH2 5504   0.579   1.403   3.846
 1833TIP3    H1 5505   0.550   1.323   3.890
 1833TIP3    H2 5506   0.578   1.381   3.753
 1834TIP3   OH2 5507   4.851   5.930   2.198
 1834TIP3    H1 5508   4.937   5.887   2.191
 1834TIP3    H2 5509   4.788   5.859   2.183
 1835TIP3   OH2 5510   2.394   5.811   2.006
 1835TIP3    H1 5511   2.331   5.753   2.050
 1835TIP3    H2 5512   2.432   5.864   2.076
 1836TIP3   OH2 5513   3.922   3.376   1.192
 1836TIP3    H1 5514   3.961   3.430   1.261
 1836TIP3    H2 5515   3.845   3.338   1.233
 1837TIP3   OH2 5516   2.812   3.261   2.223
 1837TIP3    H1 5517   2.817   3.202   2.148
 1837TIP3    H2 5518   2.891   3.244   2.273
 1838TIP3   OH2 5519   2.857   5.739   2.852
 1838TIP3    H1 5520   2.854   5.752   2.757
 1838TIP3    H2 5521   2.936   5.687   2.867
 1839TIP3   OH2 5522   4.900   2.396   1.509
 1839TIP3    H1 5523   4.816   2.356   1.485
 1839TIP3    H2 5524   4.918   2.458   1.438
 1840TIP3   OH2 5525   6.231   3.273   0.525
 1840TIP3    H1 5526   6.280   3.192   0.514
 1840TIP3    H2 5527   6.276   3.318   0.597
 1841TIP3   OH2 5528   2.674   2.232   2.825
 1841TIP3    H1 5529   2.675   2.158   2.765
 1841TIP3    H2 5530   2.762   2.271   2.816
 1842TIP3   OH2 5531   2.902   2.402   0.428
 1842TIP3    H1 5532   2.835   2.395   0.360
 1842TIP3    H2 5533   2.877   2.481   0.477
 1843TIP3   OH2 5534   0.678   2.751   3.532
 1843TIP3    H1 5535   0.716   2.775   3.616
 1843TIP3    H2 5536   0.693   2.827   3.476
 1844TIP3   OH2 5537   2.155   3.110   0.118
 1844TIP3    H1 5538   2.182   3.031   0.073
 1844TIP3    H2 5539   2.151   3.177   0.049
 1845TIP3   OH2 5540   5.908   5.683   3.425
 1845TIP3    H1 5541   5.908   5.693   3.520
 1845TIP3    H2 5542   5.937   5.767   3.392
 1846TIP3   OH2 5543   6.067   1.683   3.431
 1846TIP3    H1 5544   6.114   1.743   3.490
 1846TIP3    H2 5545   6.043   1.609   3.486
 1847TIP3   OH2 5546   3.037   0.024   0.680
 1847TIP3    H1 5547   3.094   0.097   0.702
 1847TIP3    H2 5548   3.073  -0.011   0.598
 1848TIP3   OH2 5549   2.300   3.611   1.364
 1848TIP3    H1 5550   2.324   3.582   1.452
 1848TIP3    H2 5551   2.375   3.664   1.334
 1849TIP3   OH2 5552   2.029   5.297   3.569
 1849TIP3    H1 5553   2.109   5.303   3.620
 1849TIP3    H2 5554   1.963   5.340   3.623
 1850TIP3   OH2 5555   5.989   5.250   3.832
 1850TIP3    H1 5556   5.907   5.215   3.866
 1850TIP3    H2 5557   5.989   5.227   3.740
 1851TIP3   OH2 5558   1.968   4.541   1.917
 1851TIP3    H1 5559   1.896   4.597   1.945
 1851TIP3    H2 5560   1.936   4.496   1.839
 1852TIP3   OH2 5561   4.182   2.249   3.891
 1852TIP3    H1 5562   4.157   2.162   3.919
 1852TIP3    H2 5563   4.108   2.280   3.839
 1853TIP3   OH2 5564   5.175   2.130   1.955
 1853TIP3    H1 5565   5.250   2.190   1.959
 1853TIP3    H2 5566   5.164   2.099   2.045
 1854TIP3   OH2 5567   3.797   3.058   4.141
 1854TIP3    H1 5568   3.741   3.095   4.209
 1854TIP3    H2 5569   3.886   3.075   4.172
 1855TIP3   OH2 5570   4.977   2.480   5.210
 1855TIP3    H1 5571   5.054   2.444   5.167
 1855TIP3    H2 5572   5.005   2.497   5.300
 1856TIP3   OH2 5573   5.141   1.682   5.028
 1856TIP3    H1 5574   5.119   1.655   4.938
 1856TIP3    H2 5575   5.234   1.661   5.036
 1857TIP3   OH2 5576   0.176   5.516   3.993
 1857TIP3    H1 5577   0.095   5.560   3.967
 1857TIP3    H2 5578   0.205   5.471   3.914
 1858TIP3   OH2 5579   3.615   4.634   3.018
 1858TIP3    H1 5580   3.643   4.549   2.986
 1858TIP3    H2 5581   3.664   4.697   2.965
 1859TIP3   OH2 5582   1.451   1.709   2.843
 1859TIP3    H1 5583   1.370   1.753   2.870
 1859TIP3    H2 5584   1.431   1.675   2.755
 1860TIP3   OH2 5585   2.586   1.392   4.444
 1860TIP3    H1 5586   2.542   1.478   4.444
 1860TIP3    H2 5587   2.605   1.375   4.536
 1861TIP3   OH2 5588   0.089   4.418   3.424
 1861TIP3    H1 5589   0.014   4.380   3.378
 1861TIP3    H2 5590   0.050   4.484   3.482
 1862TIP3   OH2 5591   6.113   3.999   0.984
 1862TIP3    H1 5592   6.083   4.052   1.059
 1862TIP3    H2 5593   6.156   3.924   1.024
 1863TIP3   OH2 5594   4.410   5.360   4.245
 1863TIP3    H1 5595   4.351   5.397   4.180
 1863TIP3    H2 5596   4.493   5.407   4.233
 1864TIP3   OH2 5597   1.731   5.830   2.640
 1864TIP3    H1 5598   1.702   5.763   2.701
 1864TIP3    H2 5599   1.727   5.912   2.689
 1865TIP3   OH2 5600   4.759   2.713   2.856
 1865TIP3    H1 5601   4.675   2.680   2.888
 1865TIP3    H2 5602   4.774   2.793   2.906
 1866TIP3   OH2 5603   0.333   3.512   0.801
 1866TIP3    H1 5604   0.372   3.591   0.839
 1866TIP3    H2 5605   0.247   3.540   0.771
 1867TIP3   OH2 5606   3.512   3.744   4.739
 1867TIP3    H1 5607   3.597   3.706   4.760
 1867TIP3    H2 5608   3.503   3.734   4.644
 1868TIP3   OH2 5609   0.308   3.493   2.260
 1868TIP3    H1 5610   0.324   3.418   2.204
 1868TIP3    H2 5611   0.386   3.499   2.316
 1869TIP3   OH2 5612   5.097   0.544   1.063
 1869TIP3    H1 5613   5.094   0.578   1.152
 1869TIP3    H2 5614   5.035   0.471   1.063
 1870TIP3   OH2 5615   1.229   1.298   1.418
 1870TIP3    H1 5616   1.153   1.260   1.375
 1870TIP3    H2 5617   1.194   1.368   1.473
 1871TIP3   OH2 5618   1.729   5.652   4.115
 1871TIP3    H1 5619   1.670   5.577   4.107
 1871TIP3    H2 5620   1.762   5.666   4.026
 1872TIP3   OH2 5621   2.506   0.326   0.362
 1872TIP3    H1 5622   2.525   0.256   0.425
 1872TIP3    H2 5623   2.572   0.315   0.294
 1873TIP3   OH2 5624   1.481   4.965   0.765
 1873TIP3    H1 5625   1.434   5.035   0.810
 1873TIP3    H2 5626   1.444   4.965   0.677
 1874TIP3   OH2 5627   0.810   0.967   4.380
 1874TIP3    H1 5628   0.827   1.060   4.393
 1874TIP3    H2 5629   0.784   0.960   4.288
 1875TIP3   OH2 5630   3.653   2.382   4.199
 1875TIP3    H1 5631   3.651   2.296   4.158
 1875TIP3    H2 5632   3.672   2.363   4.291
 1876TIP3   OH2 5633   2.757   0.541   1.072
 1876TIP3    H1 5634   2.843   0.573   1.098
 1876TIP3    H2 5635   2.695   0.596   1.119
 1877TIP3   OH2 5636   5.307   4.134   4.513
 1877TIP3    H1 5637   5.345   4.220   4.530
 1877TIP3    H2 5638   5.363   4.073   4.561
 1878TIP3   OH2 5639   1.226   2.871   0.017
 1878TIP3    H1 5640   1.196   2.797  -0.036
 1878TIP3    H2 5641   1.179   2.862   0.099
 1879TIP3   OH2 5642   4.034   4.239   3.367
 1879TIP3    H1 5643   4.078   4.322   3.383
 1879TIP3    H2 5644   3.951   4.246   3.414
 1880TIP3   OH2 5645   2.276   0.501   4.235
 1880TIP3    H1 5646   2.199   0.558   4.234
 1880TIP3    H2 5647   2.240   0.413   4.240
 1881TIP3   OH2 5648   1.845   0.660   2.972
 1881TIP3    H1 5649   1.829   0.714   3.049
 1881TIP3    H2 5650   1.874   0.576   3.008
 1882TIP3   OH2 5651   6.354   2.188   2.402
 1882TIP3    H1 5652   6.431   2.243   2.411
 1882TIP3    H2 5653   6.337   2.156   2.491
 1883TIP3   OH2 5654   2.823   1.064   0.764
 1883TIP3    H1 5655   2.882   1.013   0.709
 1883TIP3    H2 5656   2.872   1.144   0.783
 1884TIP3   OH2 5657   3.798   2.919   4.727
 1884TIP3    H1 5658   3.767   2.840   4.683
 1884TIP3    H2 5659   3.770   2.990   4.669
 1885TIP3   OH2 5660   5.491   5.518   0.660
 1885TIP3    H1 5661   5.510   5.478   0.745
 1885TIP3    H2 5662   5.439   5.452   0.614
 1886TIP3   OH2 5663   5.156   5.961   2.203
 1886TIP3    H1 5664   5.177   6.053   2.186
 1886TIP3    H2 5665   5.242   5.919   2.213
 1887TIP3   OH2 5666   3.537   3.398   4.654
 1887TIP3    H1 5667   3.611   3.458   4.669
 1887TIP3    H2 5668   3.552   3.326   4.715
 1888TIP3   OH2 5669   2.931   4.712   2.100
 1888TIP3    H1 5670   2.942   4.619   2.078
 1888TIP3    H2 5671   2.839   4.721   2.125
 1889TIP3   OH2 5672   5.016   3.710   4.051
 1889TIP3    H1 5673   4.964   3.677   3.978
 1889TIP3    H2 5674   4.951   3.731   4.119
 1890TIP3   OH2 5675   5.835   1.780   0.286
 1890TIP3    H1 5676   5.842   1.726   0.365
 1890TIP3    H2 5677   5.792   1.860   0.316
 1891TIP3   OH2 5678   6.348   0.071   0.838
 1891TIP3    H1 5679   6.358   0.066   0.743
 1891TIP3    H2 5680   6.279   0.135   0.852
 1892TIP3   OH2 5681   4.636   3.934   0.608
 1892TIP3    H1 5682   4.561   3.936   0.550
 1892TIP3    H2 5683   4.666   4.026   0.613
 1893TIP3   OH2 5684   0.813   1.733   3.922
 1893TIP3    H1 5685   0.906   1.750   3.908
 1893TIP3    H2 5686   0.778   1.816   3.956
 1894TIP3   OH2 5687   3.862   0.678   3.757
 1894TIP3    H1 5688   3.926   0.643   3.695
 1894TIP3    H2 5689   3.880   0.633   3.839
 1895TIP3   OH2 5690   5.522   5.016   1.154
 1895TIP3    H1 5691   5.535   5.111   1.148
 1895TIP3    H2 5692   5.554   4.993   1.241
 1896TIP3   OH2 5693   4.592   2.189   5.133
 1896TIP3    H1 5694   4.560   2.279   5.131
 1896TIP3    H2 5695   4.517   2.136   5.106
 1897TIP3   OH2 5696   4.630   5.742   4.371
 1897TIP3    H1 5697   4.610   5.706   4.285
 1897TIP3    H2 5698   4.590   5.680   4.433
 1898TIP3   OH2 5699   0.109   4.652   1.963
 1898TIP3    H1 5700   0.111   4.565   2.002
 1898TIP3    H2 5701   0.201   4.673   1.946
 1899TIP3   OH2 5702   4.931   3.641   2.248
 1899TIP3    H1 5703   4.876   3.597   2.184
 1899TIP3    H2 5704   5.013   3.658   2.203
 1900TIP3   OH2 5705   2.414   1.214   4.251
 1900TIP3    H1 5706   2.479   1.271   4.293
 1900TIP3    H2 5707   2.450   1.199   4.163
 1901TIP3   OH2 5708   4.720   1.454   0.025
 1901TIP3    H1 5709   4.634   1.485   0.053
 1901TIP3    H2 5710   4.759   1.416   0.104
 1902TIP3   OH2 5711   5.380   4.640   2.099
 1902TIP3    H1 5712   5.365   4.546   2.086
 1902TIP3    H2 5713   5.471   4.654   2.074
 1903TIP3   OH2 5714   1.828   0.667   3.610
 1903TIP3    H1 5715   1.788   0.601   3.667
 1903TIP3    H2 5716   1.837   0.745   3.665
 1904TIP3   OH2 5717   2.447   0.208   0.738
 1904TIP3    H1 5718   2.368   0.260   0.721
 1904TIP3    H2 5719   2.453   0.148   0.664
 1905TIP3   OH2 5720   2.713   2.232   4.239
 1905TIP3    H1 5721   2.629   2.223   4.193
 1905TIP3    H2 5722   2.700   2.184   4.321
 1906TIP3   OH2 5723   0.579   5.428   3.956
 1906TIP3    H1 5724   0.597   5.503   4.014
 1906TIP3    H2 5725   0.560   5.356   4.015
 1907TIP3   OH2 5726   3.280   5.269   4.827
 1907TIP3    H1 5727   3.313   5.326   4.758
 1907TIP3    H2 5728   3.317   5.306   4.908
 1908TIP3   OH2 5729   3.583   5.477   0.324
 1908TIP3    H1 5730   3.491   5.471   0.297
 1908TIP3    H2 5731   3.603   5.391   0.360
 1909TIP3   OH2 5732   3.467   2.776   2.736
 1909TIP3    H1 5733   3.536   2.821   2.687
 1909TIP3    H2 5734   3.388   2.827   2.719
 1910TIP3   OH2 5735   4.270   5.744   4.523
 1910TIP3    H1 5736   4.349   5.693   4.501
 1910TIP3    H2 5737   4.206   5.678   4.551
 1911TIP3   OH2 5738   4.857   4.479   0.415
 1911TIP3    H1 5739   4.891   4.396   0.383
 1911TIP3    H2 5740   4.870   4.541   0.343
 1912TIP3   OH2 5741   5.387   0.875   4.037
 1912TIP3    H1 5742   5.369   0.938   4.107
 1912TIP3    H2 5743   5.482   0.867   4.036
 1913TIP3   OH2 5744   5.025   2.114   1.484
 1913TIP3    H1 5745   5.071   2.134   1.402
 1913TIP3    H2 5746   4.963   2.186   1.494
 1914TIP3   OH2 5747   2.740   5.721   4.757
 1914TIP3    H1 5748   2.662   5.757   4.798
 1914TIP3    H2 5749   2.807   5.725   4.826
 1915TIP3   OH2 5750   5.589   5.419   1.650
 1915TIP3    H1 5751   5.670   5.413   1.700
 1915TIP3    H2 5752   5.519   5.414   1.715
 1916TIP3   OH2 5753   0.185   4.553   2.382
 1916TIP3    H1 5754   0.188   4.469   2.427
 1916TIP3    H2 5755   0.150   4.532   2.295
 1917TIP3   OH2 5756   0.434   4.107   0.615
 1917TIP3    H1 5757   0.382   4.149   0.547
 1917TIP3    H2 5758   0.372   4.092   0.686
 1918TIP3   OH2 5759   5.031   5.844   1.947
 1918TIP3    H1 5760   5.100   5.789   1.985
 1918TIP3    H2 5761   4.951   5.792   1.956
 1919TIP3   OH2 5762   4.771   5.871   1.070
 1919TIP3    H1 5763   4.746   5.800   1.129
 1919TIP3    H2 5764   4.826   5.928   1.124
 1920TIP3   OH2 5765   0.184   2.873   1.303
 1920TIP3    H1 5766   0.116   2.931   1.337
 1920TIP3    H2 5767   0.224   2.836   1.381
 1921TIP3   OH2 5768   1.876   0.773   1.967
 1921TIP3    H1 5769   1.795   0.820   1.947
 1921TIP3    H2 5770   1.920   0.828   2.031
 1922TIP3   OH2 5771   5.077   0.047   5.108
 1922TIP3    H1 5772   5.115   0.089   5.030
 1922TIP3    H2 5773   5.122  -0.037   5.113
 1923TIP3   OH2 5774   5.485   4.741   0.896
 1923TIP3    H1 5775   5.502   4.746   0.990
 1923TIP3    H2 5776   5.444   4.655   0.884
 1924TIP3   OH2 5777   6.163   5.222   1.971
 1924TIP3    H1 5778   6.228   5.228   1.902
 1924TIP3    H2 5779   6.093   5.169   1.934
 1925TIP3   OH2 5780   2.940   4.171   4.333
 1925TIP3    H1 5781   2.877   4.192   4.402
 1925TIP3    H2 5782   3.025   4.175   4.377
 1926TIP3   OH2 5783   4.967   2.478   1.792
 1926TIP3    H1 5784   4.944   2.437   1.708
 1926TIP3    H2 5785   4.920   2.562   1.790
 1927TIP3   OH2 5786   2.843   1.802   4.740
 1927TIP3    H1 5787   2.817   1.893   4.754
 1927TIP3    H2 5788   2.875   1.800   4.650
 1928TIP3   OH2 5789   1.273   1.645   3.948
 1928TIP3    H1 5790   1.194   1.653   4.001
 1928TIP3    H2 5791   1.344   1.634   4.012
 1929TIP3   OH2 5792   0.953   5.437   4.614
 1929TIP3    H1 5793   0.991   5.443   4.702
 1929TIP3    H2 5794   1.027   5.448   4.555
 1930TIP3   OH2 5795   1.279   4.014   2.404
 1930TIP3    H1 5796   1.312   3.944   2.348
 1930TIP3    H2 5797   1.330   4.091   2.379
 1931TIP3   OH2 5798   1.433   5.483   1.843
 1931TIP3    H1 5799   1.506   5.425   1.819
 1931TIP3    H2 5800   1.474   5.559   1.883
 1932TIP3   OH2 5801   5.284   3.320   0.560
 1932TIP3    H1 5802   5.363   3.372   0.578
 1932TIP3    H2 5803   5.290   3.246   0.621
 1933TIP3   OH2 5804   4.661   4.052   2.768
 1933TIP3    H1 5805   4.620   4.100   2.840
 1933TIP3    H2 5806   4.750   4.034   2.800
 1934TIP3   OH2 5807   5.799   2.373   4.157
 1934TIP3    H1 5808   5.731   2.327   4.109
 1934TIP3    H2 5809   5.872   2.380   4.094
 1935TIP3   OH2 5810   0.730   5.070   5.079
 1935TIP3    H1 5811   0.672   5.036   5.010
 1935TIP3    H2 5812   0.748   4.994   5.135
 1936TIP3   OH2 5813   2.979   4.431   4.804
 1936TIP3    H1 5814   2.958   4.470   4.719
 1936TIP3    H2 5815   2.986   4.505   4.863
 1937TIP3   OH2 5816   6.011   0.567   4.710
 1937TIP3    H1 5817   5.998   0.660   4.691
 1937TIP3    H2 5818   5.956   0.522   4.647
 1938TIP3   OH2 5819   3.018   4.573   0.490
 1938TIP3    H1 5820   3.102   4.534   0.464
 1938TIP3    H2 5821   2.994   4.527   0.571
 1939TIP3   OH2 5822   3.693   3.930   1.328
 1939TIP3    H1 5823   3.641   4.010   1.321
 1939TIP3    H2 5824   3.690   3.892   1.240
 1940TIP3   OH2 5825   6.315   3.326   3.474
 1940TIP3    H1 5826   6.401   3.287   3.486
 1940TIP3    H2 5827   6.274   3.276   3.403
 1941TIP3   OH2 5828   1.057   0.305   0.084
 1941TIP3    H1 5829   1.020   0.226   0.122
 1941TIP3    H2 5830   1.119   0.274   0.018
 1942TIP3   OH2 5831   5.686   3.931   2.239
 1942TIP3    H1 5832   5.697   4.025   2.251
 1942TIP3    H2 5833   5.721   3.892   2.319
 1943TIP3   OH2 5834   5.723   2.233   1.743
 1943TIP3    H1 5835   5.681   2.167   1.799
 1943TIP3    H2 5836   5.788   2.275   1.800
 1944TIP3   OH2 5837   4.874   0.973   3.726
 1944TIP3    H1 5838   4.856   0.904   3.790
 1944TIP3    H2 5839   4.969   0.972   3.717
 1945TIP3   OH2 5840   3.170   5.675   2.320
 1945TIP3    H1 5841   3.093   5.695   2.267
 1945TIP3    H2 5842   3.244   5.693   2.263
 1946TIP3   OH2 5843   0.145   5.678   2.007
 1946TIP3    H1 5844   0.086   5.712   2.073
 1946TIP3    H2 5845   0.201   5.617   2.054
 1947TIP3   OH2 5846   3.472   5.835   3.672
 1947TIP3    H1 5847   3.409   5.871   3.609
 1947TIP3    H2 5848   3.465   5.740   3.660
 1948TIP3   OH2 5849   3.437   0.551   2.980
 1948TIP3    H1 5850   3.455   0.459   2.998
 1948TIP3    H2 5851   3.354   0.568   3.024
 1949TIP3   OH2 5852   5.797   3.580   0.384
 1949TIP3    H1 5853   5.735   3.575   0.311
 1949TIP3    H2 5854   5.755   3.638   0.447
 1950TIP3   OH2 5855   1.056   0.256   4.972
 1950TIP3    H1 5856   1.084   0.213   5.053
 1950TIP3    H2 5857   0.985   0.314   4.999
 1951TIP3   OH2 5858   5.186   5.685   0.617
 1951TIP3    H1 5859   5.226   5.610   0.573
 1951TIP3    H2 5860   5.246   5.758   0.600
 1952TIP3   OH2 5861   3.643   0.525   1.329
 1952TIP3    H1 5862   3.691   0.517   1.412
 1952TIP3    H2 5863   3.664   0.445   1.281
 1953TIP3   OH2 5864   1.321   1.146   0.445
 1953TIP3    H1 5865   1.341   1.199   0.369
 1953TIP3    H2 5866   1.364   1.191   0.518
 1954TIP3   OH2 5867   0.416   2.235   3.874
 1954TIP3    H1 5868   0.337   2.203   3.918
 1954TIP3    H2 5869   0.403   2.329   3.867
 1955TIP3   OH2 5870   4.341   0.954   2.943
 1955TIP3    H1 5871   4.340   0.967   3.038
 1955TIP3    H2 5872   4.365   1.040   2.908
 1956TIP3   OH2 5873   5.826   0.809   1.629
 1956TIP3    H1 5874   5.840   0.848   1.715
 1956TIP3    H2 5875   5.858   0.719   1.638
 1957TIP3   OH2 5876   2.505   5.218   1.060
 1957TIP3    H1 5877   2.515   5.308   1.092
 1957TIP3    H2 5878   2.593   5.190   1.038
 1958TIP3   OH2 5879   1.929   1.341   3.387
 1958TIP3    H1 5880   1.843   1.332   3.346
 1958TIP3    H2 5881   1.948   1.434   3.381
 1959TIP3   OH2 5882   2.069   0.724   5.101
 1959TIP3    H1 5883   2.095   0.681   5.182
 1959TIP3    H2 5884   2.108   0.811   5.107
 1960TIP3   OH2 5885   2.864   4.357   1.743
 1960TIP3    H1 5886   2.938   4.303   1.713
 1960TIP3    H2 5887   2.894   4.447   1.733
 1961TIP3   OH2 5888   2.629   5.180   5.067
 1961TIP3    H1 5889   2.536   5.197   5.053
 1961TIP3    H2 5890   2.641   5.185   5.162
 1962TIP3   OH2 5891   2.744   3.219   4.165
 1962TIP3    H1 5892   2.806   3.289   4.185
 1962TIP3    H2 5893   2.795   3.138   4.173
 1963TIP3   OH2 5894   0.826   0.242   3.240
 1963TIP3    H1 5895   0.806   0.181   3.311
 1963TIP3    H2 5896   0.780   0.207   3.164
 1964TIP3   OH2 5897   6.250   2.011   5.087
 1964TIP3    H1 5898   6.279   2.030   5.176
 1964TIP3    H2 5899   6.210   1.924   5.094
 1965TIP3   OH2 5900   3.638   4.480   0.608
 1965TIP3    H1 5901   3.725   4.506   0.638
 1965TIP3    H2 5902   3.644   4.385   0.598
 1966TIP3   OH2 5903   4.946   3.083   2.842
 1966TIP3    H1 5904   5.013   3.023   2.809
 1966TIP3    H2 5905   4.898   3.032   2.906
 1967TIP3   OH2 5906   2.779   5.715   2.207
 1967TIP3    H1 5907   2.741   5.801   2.191
 1967TIP3    H2 5908   2.739   5.658   2.140
 1968TIP3   OH2 5909   3.270   2.798   3.340
 1968TIP3    H1 5910   3.340   2.736   3.321
 1968TIP3    H2 5911   3.315   2.878   3.367
 1969TIP3   OH2 5912   1.350   3.300   2.467
 1969TIP3    H1 5913   1.340   3.209   2.494
 1969TIP3    H2 5914   1.377   3.346   2.547
 1970TIP3   OH2 5915   6.172   4.402   4.981
 1970TIP3    H1 5916   6.206   4.445   5.059
 1970TIP3    H2 5917   6.142   4.317   5.011
 1971TIP3   OH2 5918   4.167   2.736   1.945
 1971TIP3    H1 5919   4.232   2.789   1.899
 1971TIP3    H2 5920   4.218   2.662   1.981
 1972TIP3   OH2 5921   1.058   5.881   1.530
 1972TIP3    H1 5922   1.102   5.852   1.450
 1972TIP3    H2 5923   1.005   5.955   1.503
 1973TIP3   OH2 5924   3.063   5.078   1.665
 1973TIP3    H1 5925   3.053   5.140   1.738
 1973TIP3    H2 5926   3.116   5.007   1.702
 1974TIP3   OH2 5927   2.444   0.740   1.165
 1974TIP3    H1 5928   2.480   0.675   1.226
 1974TIP3    H2 5929   2.368   0.776   1.212
 1975TIP3   OH2 5930   6.234   3.396   5.143
 1975TIP3    H1 5931   6.254   3.489   5.135
 1975TIP3    H2 5932   6.184   3.389   5.224
 1976TIP3   OH2 5933   0.612   3.081   4.622
 1976TIP3    H1 5934   0.542   3.140   4.596
 1976TIP3    H2 5935   0.593   2.999   4.577
 1977TIP3   OH2 5936   0.585   1.394   4.589
 1977TIP3    H1 5937   0.619   1.372   4.675
 1977TIP3    H2 5938   0.539   1.315   4.560
 1978TIP3   OH2 5939   0.294   4.578   0.332
 1978TIP3    H1 5940   0.281   4.668   0.300
 1978TIP3    H2 5941   0.228   4.567   0.400
 1979TIP3   OH2 5942   2.748   4.267   2.517
 1979TIP3    H1 5943   2.676   4.244   2.459
 1979TIP3    H2 5944   2.731   4.217   2.597
 1980TIP3   OH2 5945   5.208   0.599   3.866
 1980TIP3    H1 5946   5.150   0.530   3.834
 1980TIP3    H2 5947   5.181   0.678   3.819
 1981TIP3   OH2 5948   5.990   1.462   3.584
 1981TIP3    H1 5949   5.933   1.462   3.661
 1981TIP3    H2 5950   5.993   1.370   3.556
 1982TIP3   OH2 5951   3.269   3.835   1.255
 1982TIP3    H1 5952   3.327   3.795   1.320
 1982TIP3    H2 5953   3.309   3.920   1.236
 1983TIP3   OH2 5954   0.530   1.861   4.668
 1983TIP3    H1 5955   0.540   1.881   4.761
 1983TIP3    H2 5956   0.615   1.825   4.642
 1984TIP3   OH2 5957   4.649   5.109   2.053
 1984TIP3    H1 5958   4.666   5.104   1.959
 1984TIP3    H2 5959   4.571   5.163   2.061
 1985TIP3   OH2 5960   3.095   3.656   2.434
 1985TIP3    H1 5961   3.007   3.685   2.461
 1985TIP3    H2 5962   3.154   3.700   2.495
 1986TIP3   OH2 5963   5.168   1.314   0.206
 1986TIP3    H1 5964   5.175   1.218   0.205
 1986TIP3    H2 5965   5.187   1.341   0.116
 1987TIP3   OH2 5966   0.891   0.205   2.784
 1987TIP3    H1 5967   0.900   0.118   2.745
 1987TIP3    H2 5968   0.980   0.240   2.787
 1988TIP3   OH2 5969  -0.012   3.796   1.780
 1988TIP3    H1 5970   0.040   3.817   1.857
 1988TIP3    H2 5971  -0.081   3.863   1.779
 1989TIP3   OH2 5972   2.286   3.269   3.802
 1989TIP3    H1 5973   2.195   3.239   3.805
 1989TIP3    H2 5974   2.334   3.197   3.763
 1990TIP3   OH2 5975   4.173   5.158   3.972
 1990TIP3    H1 5976   4.082   5.160   3.944
 1990TIP3    H2 5977   4.194   5.248   3.994
 1991TIP3   OH2 5978   2.283   0.655   3.242
 1991TIP3    H1 5979   2.258   0.747   3.233
 1991TIP3    H2 5980   2.208   0.614   3.285
 1992TIP3   OH2 5981   3.732   2.578   4.062
 1992TIP3    H1 5982   3.787   2.623   4.126
 1992TIP3    H2 5983   3.696   2.504   4.109
 1993TIP3   OH2 5984   5.550   0.156   1.783
 1993TIP3    H1 5985   5.504   0.088   1.735
 1993TIP3    H2 5986   5.518   0.147   1.873
 1994TIP3   OH2 5987   3.665   3.011   2.361
 1994TIP3    H1 5988   3.634   3.100   2.344
 1994TIP3    H2 5989   3.719   2.990   2.285
 1995TIP3   OH2 5990   2.818   4.871   5.139
 1995TIP3    H1 5991   2.740   4.820   5.159
 1995TIP3    H2 5992   2.870   4.867   5.219
 1996TIP3   OH2 5993   0.980   4.064   2.708
 1996TIP3    H1 5994   0.958   4.111   2.628
 1996TIP3    H2 5995   1.040   3.995   2.679
 1997TIP3   OH2 5996   0.640   3.451   0.005
 1997TIP3    H1 5997   0.614   3.523   0.061
 1997TIP3    H2 5998   0.667   3.382   0.065
 1998TIP3   OH2 5999   1.715   5.427   0.250
 1998TIP3    H1 6000   1.714   5.404   0.156
 1998TIP3    H2 6001   1.786   5.490   0.258
 1999TIP3   OH2 6002   3.795   1.810   0.705
 1999TIP3    H1 6003   3.764   1.720   0.719
 1999TIP3    H2 6004   3.777   1.854   0.788
 2000TIP3   OH2 6005   0.089   2.701   4.275
 2000TIP3    H1 6006   0.043   2.636   4.328
 2000TIP3    H2 6007   0.175   2.663   4.258
 2001TIP3   OH2 6008   4.231   4.071   2.712
 2001TIP3    H1 6009   4.285   4.128   2.767
 2001TIP3    H2 6010   4.150   4.059   2.763
 2002TIP3   OH2 6011   2.650   5.978   2.083
 2002TIP3    H1 6012   2.654   6.021   2.168
 2002TIP3    H2 6013   2.592   6.033   2.030
 2003TIP3   OH2 6014   3.328   4.429   3.290
 2003TIP3    H1 6015   3.269   4.447   3.363
 2003TIP3    H2 6016   3.409   4.397   3.331
 2004TIP3   OH2 6017   5.460   2.888   5.059
 2004TIP3    H1 6018   5.386   2.890   5.120
 2004TIP3    H2 6019   5.439   2.956   4.995
 2005TIP3   OH2 6020   1.666   3.117   2.606
 2005TIP3    H1 6021   1.746   3.140   2.559
 2005TIP3    H2 6022   1.616   3.065   2.543
 2006TIP3   OH2 6023   3.512   5.419   1.290
 2006TIP3    H1 6024   3.567   5.472   1.347
 2006TIP3    H2 6025   3.518   5.460   1.204
 2007TIP3   OH2 6026   0.458   0.453   4.363
 2007TIP3    H1 6027   0.466   0.547   4.351
 2007TIP3    H2 6028   0.364   0.436   4.365
 2008TIP3   OH2 6029   5.141   2.033   0.265
 2008TIP3    H1 6030   5.089   1.966   0.222
 2008TIP3    H2 6031   5.113   2.115   0.225
 2009TIP3   OH2 6032   2.804   0.947   0.289
 2009TIP3    H1 6033   2.873   0.881   0.281
 2009TIP3    H2 6034   2.844   1.017   0.341
 2010TIP3   OH2 6035   4.520   2.719   4.994
 2010TIP3    H1 6036   4.511   2.801   4.944
 2010TIP3    H2 6037   4.594   2.736   5.052
 2011TIP3   OH2 6038   6.136   0.939   4.110
 2011TIP3    H1 6039   6.197   0.987   4.165
 2011TIP3    H2 6040   6.054   0.937   4.160
 2012TIP3   OH2 6041   2.664   5.392   4.315
 2012TIP3    H1 6042   2.708   5.347   4.387
 2012TIP3    H2 6043   2.726   5.387   4.242
 2013TIP3   OH2 6044   3.306   5.241   1.208
 2013TIP3    H1 6045   3.323   5.258   1.116
 2013TIP3    H2 6046   3.372   5.293   1.255
 2014TIP3   OH2 6047   4.404   1.791   2.060
 2014TIP3    H1 6048   4.395   1.875   2.015
 2014TIP3    H2 6049   4.499   1.777   2.066
 2015TIP3   OH2 6050   3.161   4.790   1.859
 2015TIP3    H1 6051   3.210   4.837   1.792
 2015TIP3    H2 6052   3.218   4.718   1.885
 2016TIP3   OH2 6053   5.523   2.422   4.784
 2016TIP3    H1 6054   5.502   2.475   4.707
 2016TIP3    H2 6055   5.452   2.359   4.790
 2017TIP3   OH2 6056   0.437   5.408   2.577
 2017TIP3    H1 6057   0.502   5.475   2.559
 2017TIP3    H2 6058   0.458   5.337   2.517
 2018TIP3   OH2 6059   1.515   0.349   0.304
 2018TIP3    H1 6060   1.473   0.301   0.232
 2018TIP3    H2 6061   1.605   0.364   0.274
 2019TIP3   OH2 6062   1.054   1.537   0.802
 2019TIP3    H1 6063   1.066   1.550   0.896
 2019TIP3    H2 6064   1.035   1.443   0.793
 2020TIP3   OH2 6065   2.525   0.966   1.506
 2020TIP3    H1 6066   2.461   0.931   1.444
 2020TIP3    H2 6067   2.474   0.985   1.585
 2021TIP3   OH2 6068   1.340   5.654   4.120
 2021TIP3    H1 6069   1.337   5.728   4.180
 2021TIP3    H2 6070   1.413   5.673   4.061
 2022TIP3   OH2 6071   1.675   3.547   4.390
 2022TIP3    H1 6072   1.738   3.484   4.424
 2022TIP3    H2 6073   1.601   3.494   4.360
 2023TIP3   OH2 6074   0.960   2.363   4.496
 2023TIP3    H1 6075   0.874   2.363   4.455
 2023TIP3    H2 6076   0.950   2.303   4.570
 2024TIP3   OH2 6077   0.770   2.570   4.662
 2024TIP3    H1 6078   0.686   2.616   4.665
 2024TIP3    H2 6079   0.832   2.632   4.699
 2025TIP3   OH2 6080   2.761   5.256   1.001
 2025TIP3    H1 6081   2.841   5.256   1.053
 2025TIP3    H2 6082   2.752   5.346   0.971
 2026TIP3   OH2 6083   0.705   2.633   4.288
 2026TIP3    H1 6084   0.791   2.609   4.324
 2026TIP3    H2 6085   0.647   2.562   4.313
 2027TIP3   OH2 6086   3.460   0.433   1.679
 2027TIP3    H1 6087   3.393   0.396   1.736
 2027TIP3    H2 6088   3.481   0.362   1.618
 2028TIP3   OH2 6089   3.773   2.201   0.092
 2028TIP3    H1 6090   3.827   2.157   0.157
 2028TIP3    H2 6091   3.727   2.130   0.047
 2029TIP3   OH2 6092   3.252   2.727  -0.021
 2029TIP3    H1 6093   3.232   2.794   0.044
 2029TIP3    H2 6094   3.178   2.729  -0.082
 2030TIP3   OH2 6095   3.311   3.454   0.771
 2030TIP3    H1 6096   3.340   3.545   0.770
 2030TIP3    H2 6097   3.246   3.450   0.841
 2031TIP3   OH2 6098   5.740   3.595   3.868
 2031TIP3    H1 6099   5.759   3.540   3.944
 2031TIP3    H2 6100   5.824   3.603   3.822
 2032TIP3   OH2 6101   1.577   4.822   1.575
 2032TIP3    H1 6102   1.606   4.911   1.596
 2032TIP3    H2 6103   1.535   4.791   1.656
 2033TIP3   OH2 6104   3.137   1.632   0.880
 2033TIP3    H1 6105   3.127   1.665   0.791
 2033TIP3    H2 6106   3.052   1.651   0.922
 2034TIP3   OH2 6107   0.405   5.506   4.667
 2034TIP3    H1 6108   0.493   5.530   4.697
 2034TIP3    H2 6109   0.367   5.460   4.742
 2035TIP3   OH2 6110   3.530   0.342   2.112
 2035TIP3    H1 6111   3.491   0.299   2.036
 2035TIP3    H2 6112   3.510   0.435   2.100
 2036TIP3   OH2 6113   2.609   2.528   0.500
 2036TIP3    H1 6114   2.563   2.495   0.423
 2036TIP3    H2 6115   2.540   2.546   0.564
 2037TIP3   OH2 6116   4.139   4.880   1.974
 2037TIP3    H1 6117   4.121   4.804   1.920
 2037TIP3    H2 6118   4.222   4.915   1.940
 2038TIP3   OH2 6119   0.029   2.925   3.934
 2038TIP3    H1 6120   0.079   2.859   3.886
 2038TIP3    H2 6121  -0.009   2.877   4.008
 2039TIP3   OH2 6122   0.629   0.471   2.424
 2039TIP3    H1 6123   0.633   0.457   2.518
 2039TIP3    H2 6124   0.699   0.534   2.406
 2040TIP3   OH2 6125   5.453   1.447   4.207
 2040TIP3    H1 6126   5.442   1.519   4.270
 2040TIP3    H2 6127   5.445   1.489   4.121
 2041TIP3   OH2 6128   3.877   3.245   2.871
 2041TIP3    H1 6129   3.915   3.158   2.885
 2041TIP3    H2 6130   3.887   3.289   2.955
 2042TIP3   OH2 6131   6.124   2.770   0.448
 2042TIP3    H1 6132   6.133   2.676   0.459
 2042TIP3    H2 6133   6.029   2.786   0.445
 2043TIP3   OH2 6134   4.585   3.208   0.637
 2043TIP3    H1 6135   4.561   3.301   0.643
 2043TIP3    H2 6136   4.543   3.168   0.714
 2044TIP3   OH2 6137   4.434   2.792   1.539
 2044TIP3    H1 6138   4.495   2.857   1.505
 2044TIP3    H2 6139   4.490   2.720   1.569
 2045TIP3   OH2 6140   2.799   4.365   3.385
 2045TIP3    H1 6141   2.835   4.307   3.318
 2045TIP3    H2 6142   2.791   4.310   3.463
 2046TIP3   OH2 6143   3.934   3.027   0.918
 2046TIP3    H1 6144   3.926   2.939   0.881
 2046TIP3    H2 6145   4.020   3.027   0.961
 2047TIP3   OH2 6146   0.453   0.345   1.509
 2047TIP3    H1 6147   0.477   0.429   1.548
 2047TIP3    H2 6148   0.527   0.323   1.453
 2048TIP3   OH2 6149   5.204   3.991   0.511
 2048TIP3    H1 6150   5.213   3.985   0.606
 2048TIP3    H2 6151   5.153   4.071   0.497
 2049TIP3   OH2 6152   1.879   0.452   1.675
 2049TIP3    H1 6153   1.922   0.446   1.760
 2049TIP3    H2 6154   1.880   0.546   1.655
 2050TIP3   OH2 6155   4.782   1.969   1.344
 2050TIP3    H1 6156   4.839   2.009   1.279
 2050TIP3    H2 6157   4.816   2.000   1.429
 2051TIP3   OH2 6158   6.021   3.990   3.523
 2051TIP3    H1 6159   6.026   4.078   3.559
 2051TIP3    H2 6160   6.108   3.975   3.485
 2052TIP3   OH2 6161   1.964   2.272   3.485
 2052TIP3    H1 6162   1.907   2.238   3.553
 2052TIP3    H2 6163   1.908   2.277   3.407
 2053TIP3   OH2 6164   1.814   4.596   0.810
 2053TIP3    H1 6165   1.890   4.547   0.841
 2053TIP3    H2 6166   1.754   4.529   0.778
 2054TIP3   OH2 6167   0.144   0.248   1.729
 2054TIP3    H1 6168   0.098   0.273   1.809
 2054TIP3    H2 6169   0.176   0.160   1.747
 2055TIP3   OH2 6170   3.816   1.910   2.413
 2055TIP3    H1 6171   3.855   1.993   2.438
 2055TIP3    H2 6172   3.889   1.859   2.378
 2056TIP3   OH2 6173   5.679   5.146   3.441
 2056TIP3    H1 6174   5.641   5.096   3.513
 2056TIP3    H2 6175   5.772   5.121   3.441
 2057TIP3   OH2 6176   1.605   5.517   4.868
 2057TIP3    H1 6177   1.627   5.424   4.864
 2057TIP3    H2 6178   1.681   5.558   4.911
 2058TIP3   OH2 6179   3.837   2.070   4.736
 2058TIP3    H1 6180   3.917   2.061   4.787
 2058TIP3    H2 6181   3.828   1.987   4.690
 2059TIP3   OH2 6182   0.815   3.159   1.590
 2059TIP3    H1 6183   0.879   3.090   1.604
 2059TIP3    H2 6184   0.866   3.240   1.589
 2060TIP3   OH2 6185   3.868   3.241   3.835
 2060TIP3    H1 6186   3.912   3.315   3.792
 2060TIP3    H2 6187   3.791   3.280   3.877
 2061TIP3   OH2 6188   2.561   2.466   2.797
 2061TIP3    H1 6189   2.569   2.464   2.702
 2061TIP3    H2 6190   2.597   2.381   2.826
 2062TIP3   OH2 6191   3.886   0.621   2.662
 2062TIP3    H1 6192   3.893   0.623   2.567
 2062TIP3    H2 6193   3.976   0.613   2.693
 2063TIP3   OH2 6194   2.519   2.716   3.946
 2063TIP3    H1 6195   2.442   2.703   4.001
 2063TIP3    H2 6196   2.583   2.652   3.978
 2064TIP3   OH2 6197   0.651   2.062   0.337
 2064TIP3    H1 6198   0.608   2.021   0.412
 2064TIP3    H2 6199   0.705   1.992   0.300
 2065TIP3   OH2 6200   3.646   1.323   2.091
 2065TIP3    H1 6201   3.739   1.302   2.082
 2065TIP3    H2 6202   3.616   1.270   2.164
 2066TIP3   OH2 6203   5.609   5.413   4.848
 2066TIP3    H1 6204   5.604   5.386   4.756
 2066TIP3    H2 6205   5.521   5.401   4.881
 2067TIP3   OH2 6206   3.975   1.616   3.827
 2067TIP3    H1 6207   3.910   1.587   3.764
 2067TIP3    H2 6208   3.963   1.711   3.833
 2068TIP3   OH2 6209   5.085   4.569   2.151
 2068TIP3    H1 6210   5.144   4.623   2.204
 2068TIP3    H2 6211   5.059   4.625   2.079
 2069TIP3   OH2 6212   0.900   3.520   0.327
 2069TIP3    H1 6213   0.994   3.522   0.309
 2069TIP3    H2 6214   0.876   3.612   0.336
 2070TIP3   OH2 6215   5.985   4.318   1.652
 2070TIP3    H1 6216   6.045   4.314   1.726
 2070TIP3    H2 6217   5.906   4.359   1.686
 2071TIP3   OH2 6218   5.185   2.646   4.413
 2071TIP3    H1 6219   5.118   2.618   4.351
 2071TIP3    H2 6220   5.226   2.722   4.372
 2072TIP3   OH2 6221   4.052   0.186   3.343
 2072TIP3    H1 6222   4.103   0.113   3.378
 2072TIP3    H2 6223   3.961   0.163   3.362
 2073TIP3   OH2 6224   2.039   2.797   0.793
 2073TIP3    H1 6225   1.976   2.807   0.864
 2073TIP3    H2 6226   1.985   2.786   0.715
 2074TIP3   OH2 6227   3.477   1.010   0.099
 2074TIP3    H1 6228   3.464   1.095   0.058
 2074TIP3    H2 6229   3.572   0.995   0.093
 2075TIP3   OH2 6230   2.399   4.505   3.624
 2075TIP3    H1 6231   2.333   4.509   3.694
 2075TIP3    H2 6232   2.477   4.471   3.667
 2076TIP3   OH2 6233   3.715   0.466   0.884
 2076TIP3    H1 6234   3.659   0.523   0.831
 2076TIP3    H2 6235   3.654   0.417   0.939
 2077TIP3   OH2 6236   0.639   3.446   0.952
 2077TIP3    H1 6237   0.634   3.499   0.873
 2077TIP3    H2 6238   0.559   3.467   1.001
 2078TIP3   OH2 6239   1.849   4.935   3.463
 2078TIP3    H1 6240   1.854   4.888   3.380
 2078TIP3    H2 6241   1.885   5.021   3.444
 2079TIP3   OH2 6242   1.960   0.843   0.509
 2079TIP3    H1 6243   1.938   0.838   0.416
 2079TIP3    H2 6244   2.047   0.803   0.514
 2080TIP3   OH2 6245   2.522   2.497   1.491
 2080TIP3    H1 6246   2.441   2.487   1.440
 2080TIP3    H2 6247   2.590   2.460   1.435
 2081TIP3   OH2 6248   4.409   5.122   4.379
 2081TIP3    H1 6249   4.494   5.086   4.355
 2081TIP3    H2 6250   4.404   5.205   4.332
 2082TIP3   OH2 6251   1.365   5.933   0.468
 2082TIP3    H1 6252   1.271   5.928   0.484
 2082TIP3    H2 6253   1.379   5.878   0.391
 2083TIP3   OH2 6254   1.553   4.763   3.195
 2083TIP3    H1 6255   1.496   4.812   3.135
 2083TIP3    H2 6256   1.640   4.768   3.154
 2084TIP3   OH2 6257   2.876   1.015   1.035
 2084TIP3    H1 6258   2.846   1.029   0.945
 2084TIP3    H2 6259   2.799   0.978   1.080
 2085TIP3   OH2 6260   4.856   0.423   1.710
 2085TIP3    H1 6261   4.827   0.449   1.798
 2085TIP3    H2 6262   4.809   0.342   1.693
 2086TIP3   OH2 6263   2.175   1.959   3.356
 2086TIP3    H1 6264   2.263   1.921   3.348
 2086TIP3    H2 6265   2.155   1.993   3.269
 2087TIP3   OH2 6266   4.418   3.799   1.547
 2087TIP3    H1 6267   4.502   3.820   1.588
 2087TIP3    H2 6268   4.407   3.705   1.561
 2088TIP3   OH2 6269   5.194   0.487   0.098
 2088TIP3    H1 6270   5.257   0.474   0.169
 2088TIP3    H2 6271   5.243   0.532   0.031
 2089TIP3   OH2 6272   1.200   5.540   0.898
 2089TIP3    H1 6273   1.203   5.596   0.976
 2089TIP3    H2 6274   1.292   5.527   0.874
 2090TIP3   OH2 6275   0.553   3.992   4.237
 2090TIP3    H1 6276   0.623   4.030   4.185
 2090TIP3    H2 6277   0.598   3.938   4.302
 2091TIP3   OH2 6278   3.176   3.375   2.892
 2091TIP3    H1 6279   3.117   3.327   2.950
 2091TIP3    H2 6280   3.165   3.467   2.916
 2092TIP3   OH2 6281   3.322   0.303   3.087
 2092TIP3    H1 6282   3.365   0.251   3.155
 2092TIP3    H2 6283   3.242   0.334   3.127
 2093TIP3   OH2 6284   1.383   5.225   1.328
 2093TIP3    H1 6285   1.343   5.150   1.284
 2093TIP3    H2 6286   1.415   5.281   1.257
 2094TIP3   OH2 6287   1.335   5.141   3.569
 2094TIP3    H1 6288   1.248   5.107   3.549
 2094TIP3    H2 6289   1.386   5.063   3.593
 2095TIP3   OH2 6290   4.496   0.117   5.030
 2095TIP3    H1 6291   4.410   0.132   5.070
 2095TIP3    H2 6292   4.533   0.205   5.019
 2096TIP3   OH2 6293   0.237   4.835   1.630
 2096TIP3    H1 6294   0.296   4.760   1.619
 2096TIP3    H2 6295   0.155   4.796   1.662
 2097TIP3   OH2 6296   1.350   5.978   1.808
 2097TIP3    H1 6297   1.273   6.033   1.792
 2097TIP3    H2 6298   1.315   5.888   1.809
 2098TIP3   OH2 6299   5.829   1.895   4.407
 2098TIP3    H1 6300   5.764   1.950   4.363
 2098TIP3    H2 6301   5.830   1.814   4.356
 2099TIP3   OH2 6302   1.611   4.027   3.402
 2099TIP3    H1 6303   1.565   4.105   3.369
 2099TIP3    H2 6304   1.704   4.049   3.397
 2100TIP3   OH2 6305   3.139   3.298   3.976
 2100TIP3    H1 6306   3.184   3.372   3.936
 2100TIP3    H2 6307   3.112   3.330   4.062
 2101TIP3   OH2 6308   4.614   4.506   4.756
 2101TIP3    H1 6309   4.676   4.579   4.750
 2101TIP3    H2 6310   4.668   4.428   4.756
 2102TIP3   OH2 6311   3.142   0.272   0.758
 2102TIP3    H1 6312   3.161   0.355   0.714
 2102TIP3    H2 6313   3.066   0.290   0.813
 2103TIP3   OH2 6314   4.372   5.046   4.883
 2103TIP3    H1 6315   4.423   5.103   4.940
 2103TIP3    H2 6316   4.420   5.045   4.800
 2104TIP3   OH2 6317   1.111   0.666   0.233
 2104TIP3    H1 6318   1.135   0.753   0.264
 2104TIP3    H2 6319   1.072   0.681   0.147
 2105TIP3   OH2 6320   4.538   2.319   1.806
 2105TIP3    H1 6321   4.453   2.306   1.763
 2105TIP3    H2 6322   4.550   2.414   1.806
 2106TIP3   OH2 6323   4.198   0.679   3.225
 2106TIP3    H1 6324   4.244   0.760   3.204
 2106TIP3    H2 6325   4.105   0.704   3.225
 2107TIP3   OH2 6326   4.248   2.743   0.672
 2107TIP3    H1 6327   4.208   2.727   0.757
 2107TIP3    H2 6328   4.175   2.740   0.610
 2108TIP3   OH2 6329   2.406   1.208   2.896
 2108TIP3    H1 6330   2.337   1.273   2.900
 2108TIP3    H2 6331   2.465   1.239   2.828
 2109TIP3   OH2 6332   4.324   2.510   0.195
 2109TIP3    H1 6333   4.307   2.604   0.198
 2109TIP3    H2 6334   4.333   2.490   0.102
 2110TIP3   OH2 6335   2.218   0.692   0.344
 2110TIP3    H1 6336   2.191   0.631   0.413
 2110TIP3    H2 6337   2.311   0.675   0.332
 2111TIP3   OH2 6338   0.177   5.541   0.594
 2111TIP3    H1 6339   0.234   5.612   0.621
 2111TIP3    H2 6340   0.093   5.559   0.637
 2112TIP3   OH2 6341   5.078   3.155   4.015
 2112TIP3    H1 6342   4.997   3.193   3.982
 2112TIP3    H2 6343   5.092   3.077   3.960
 2113TIP3   OH2 6344   2.573   1.685   2.141
 2113TIP3    H1 6345   2.592   1.690   2.047
 2113TIP3    H2 6346   2.536   1.598   2.154
 2114TIP3   OH2 6347   3.503   4.772   0.993
 2114TIP3    H1 6348   3.577   4.787   0.934
 2114TIP3    H2 6349   3.450   4.705   0.950
 2115TIP3   OH2 6350   3.083   5.299   4.325
 2115TIP3    H1 6351   3.001   5.320   4.369
 2115TIP3    H2 6352   3.105   5.211   4.355
 2116TIP3   OH2 6353   0.427   5.274   1.514
 2116TIP3    H1 6354   0.449   5.311   1.429
 2116TIP3    H2 6355   0.336   5.302   1.529
 2117TIP3   OH2 6356   1.520   4.006   1.725
 2117TIP3    H1 6357   1.451   3.958   1.679
 2117TIP3    H2 6358   1.599   3.990   1.674
 2118TIP3   OH2 6359   1.210   4.872   2.708
 2118TIP3    H1 6360   1.119   4.863   2.680
 2118TIP3    H2 6361   1.205   4.921   2.790
 2119TIP3   OH2 6362   5.048   0.627   1.816
 2119TIP3    H1 6363   5.052   0.642   1.722
 2119TIP3    H2 6364   5.112   0.558   1.833
 2120TIP3   OH2 6365   0.031   5.427   3.185
 2120TIP3    H1 6366   0.109   5.386   3.148
 2120TIP3    H2 6367  -0.024   5.448   3.109
 2121TIP3   OH2 6368   1.444   3.953   1.266
 2121TIP3    H1 6369   1.351   3.932   1.256
 2121TIP3    H2 6370   1.448   4.048   1.254
 2122TIP3   OH2 6371   2.824   2.397   2.644
 2122TIP3    H1 6372   2.817   2.324   2.582
 2122TIP3    H2 6373   2.889   2.455   2.605
 2123TIP3   OH2 6374   4.292   5.471   3.645
 2123TIP3    H1 6375   4.251   5.535   3.587
 2123TIP3    H2 6376   4.286   5.509   3.732
 2124TIP3   OH2 6377   4.246   1.962   2.230
 2124TIP3    H1 6378   4.153   1.953   2.209
 2124TIP3    H2 6379   4.290   1.895   2.177
 2125TIP3   OH2 6380   5.520   2.606   5.004
 2125TIP3    H1 6381   5.531   2.561   4.921
 2125TIP3    H2 6382   5.512   2.698   4.981
 2126TIP3   OH2 6383   2.355   3.825   2.716
 2126TIP3    H1 6384   2.317   3.912   2.707
 2126TIP3    H2 6385   2.444   3.834   2.683
 2127TIP3   OH2 6386   3.011   0.762   0.302
 2127TIP3    H1 6387   3.080   0.827   0.313
 2127TIP3    H2 6388   3.002   0.722   0.388
 2128TIP3   OH2 6389   4.700   0.394   1.005
 2128TIP3    H1 6390   4.768   0.374   0.941
 2128TIP3    H2 6391   4.681   0.310   1.047
 2129TIP3   OH2 6392   4.326   4.996   2.531
 2129TIP3    H1 6393   4.268   5.049   2.587
 2129TIP3    H2 6394   4.267   4.957   2.466
 2130TIP3   OH2 6395   2.210   1.605   2.440
 2130TIP3    H1 6396   2.261   1.558   2.374
 2130TIP3    H2 6397   2.192   1.540   2.508
 2131TIP3   OH2 6398   4.592   5.596   4.817
 2131TIP3    H1 6399   4.535   5.616   4.891
 2131TIP3    H2 6400   4.544   5.530   4.767
 2132TIP3   OH2 6401   3.104   3.972   4.874
 2132TIP3    H1 6402   3.169   3.903   4.864
 2132TIP3    H2 6403   3.024   3.927   4.900
 2133TIP3   OH2 6404   5.975   0.108   2.607
 2133TIP3    H1 6405   5.955   0.031   2.555
 2133TIP3    H2 6406   5.899   0.120   2.663
 2134TIP3   OH2 6407   5.272   3.691   4.122
 2134TIP3    H1 6408   5.181   3.685   4.094
 2134TIP3    H2 6409   5.305   3.602   4.114
 2135TIP3   OH2 6410   0.234   5.710   3.179
 2135TIP3    H1 6411   0.285   5.695   3.259
 2135TIP3    H2 6412   0.146   5.731   3.210
 2136TIP3   OH2 6413   5.281   0.231   1.594
 2136TIP3    H1 6414   5.354   0.292   1.585
 2136TIP3    H2 6415   5.223   0.250   1.520
 2137TIP3   OH2 6416   4.293   3.528   4.650
 2137TIP3    H1 6417   4.247   3.450   4.681
 2137TIP3    H2 6418   4.245   3.601   4.689
 2138TIP3   OH2 6419   0.634   4.705   4.584
 2138TIP3    H1 6420   0.571   4.667   4.646
 2138TIP3    H2 6421   0.604   4.795   4.572
 2139TIP3   OH2 6422   3.890   5.267   0.162
 2139TIP3    H1 6423   3.820   5.223   0.209
 2139TIP3    H2 6424   3.848   5.304   0.084
 2140TIP3   OH2 6425   4.055   2.977   0.584
 2140TIP3    H1 6426   4.135   3.028   0.597
 2140TIP3    H2 6427   3.993   3.012   0.647
 2141TIP3   OH2 6428   1.407   3.497   5.112
 2141TIP3    H1 6429   1.426   3.576   5.061
 2141TIP3    H2 6430   1.311   3.491   5.112
 2142TIP3   OH2 6431   2.485   2.553   0.159
 2142TIP3    H1 6432   2.420   2.611   0.198
 2142TIP3    H2 6433   2.435   2.497   0.100
 2143TIP3   OH2 6434   1.727   1.976   1.785
 2143TIP3    H1 6435   1.641   2.015   1.802
 2143TIP3    H2 6436   1.708   1.897   1.734
 2144TIP3   OH2 6437   2.880   4.981   2.916
 2144TIP3    H1 6438   2.850   4.894   2.889
 2144TIP3    H2 6439   2.867   5.036   2.838
 2145TIP3   OH2 6440   0.710   2.970   5.187
 2145TIP3    H1 6441   0.646   3.006   5.125
 2145TIP3    H2 6442   0.746   2.893   5.142
 2146TIP3   OH2 6443   1.261   0.406   3.625
 2146TIP3    H1 6444   1.270   0.447   3.540
 2146TIP3    H2 6445   1.192   0.456   3.669
 2147TIP3   OH2 6446   3.691   3.798   0.349
 2147TIP3    H1 6447   3.764   3.744   0.318
 2147TIP3    H2 6448   3.615   3.740   0.343
 2148TIP3   OH2 6449   4.613   4.556   4.117
 2148TIP3    H1 6450   4.679   4.492   4.141
 2148TIP3    H2 6451   4.532   4.522   4.153
 2149TIP3   OH2 6452   5.466   0.412   5.035
 2149TIP3    H1 6453   5.395   0.398   5.098
 2149TIP3    H2 6454   5.524   0.337   5.047
 2150TIP3   OH2 6455   2.749   3.157   0.825
 2150TIP3    H1 6456   2.736   3.223   0.756
 2150TIP3    H2 6457   2.681   3.176   0.890
 2151TIP3   OH2 6458   3.603   1.778   4.423
 2151TIP3    H1 6459   3.677   1.779   4.483
 2151TIP3    H2 6460   3.641   1.802   4.338
 2152TIP3   OH2 6461   0.147   5.419   4.270
 2152TIP3    H1 6462   0.150   5.471   4.189
 2152TIP3    H2 6463   0.098   5.341   4.245
 2153TIP3   OH2 6464   4.418   3.457   2.044
 2153TIP3    H1 6465   4.465   3.478   1.963
 2153TIP3    H2 6466   4.386   3.368   2.030
 2154TIP3   OH2 6467   2.645   4.186   4.082
 2154TIP3    H1 6468   2.605   4.176   4.168
 2154TIP3    H2 6469   2.724   4.132   4.085
 2155TIP3   OH2 6470   2.317   2.513   4.861
 2155TIP3    H1 6471   2.360   2.595   4.887
 2155TIP3    H2 6472   2.339   2.451   4.930
 2156TIP3   OH2 6473   1.726   3.813   2.550
 2156TIP3    H1 6474   1.788   3.740   2.556
 2156TIP3    H2 6475   1.729   3.852   2.637
 2157TIP3   OH2 6476   1.616   0.219   2.301
 2157TIP3    H1 6477   1.609   0.313   2.287
 2157TIP3    H2 6478   1.546   0.181   2.249
 2158TIP3   OH2 6479   1.734   0.810   4.601
 2158TIP3    H1 6480   1.732   0.739   4.664
 2158TIP3    H2 6481   1.725   0.890   4.653
 2159TIP3   OH2 6482   4.900   4.505   0.814
 2159TIP3    H1 6483   4.815   4.485   0.853
 2159TIP3    H2 6484   4.926   4.424   0.770
 2160TIP3   OH2 6485   3.617   5.853   4.953
 2160TIP3    H1 6486   3.579   5.768   4.929
 2160TIP3    H2 6487   3.555   5.918   4.919
 2161TIP3   OH2 6488   5.200   3.354   3.110
 2161TIP3    H1 6489   5.178   3.366   3.017
 2161TIP3    H2 6490   5.257   3.277   3.112
 2162TIP3   OH2 6491   5.726   5.237   5.018
 2162TIP3    H1 6492   5.673   5.298   4.967
 2162TIP3    H2 6493   5.668   5.209   5.089
 2163TIP3   OH2 6494   0.418   4.565   3.470
 2163TIP3    H1 6495   0.391   4.478   3.500
 2163TIP3    H2 6496   0.379   4.573   3.383
 2164TIP3   OH2 6497   5.728   2.875   5.044
 2164TIP3    H1 6498   5.634   2.873   5.061
 2164TIP3    H2 6499   5.768   2.877   5.131
 2165TIP3   OH2 6500   1.165   5.466   4.439
 2165TIP3    H1 6501   1.256   5.464   4.471
 2165TIP3    H2 6502   1.170   5.431   4.350
 2166TIP3   OH2 6503   4.845   5.633   1.961
 2166TIP3    H1 6504   4.843   5.582   1.880
 2166TIP3    H2 6505   4.840   5.567   2.030
 2167TIP3   OH2 6506   0.284   2.552   1.039
 2167TIP3    H1 6507   0.230   2.611   0.986
 2167TIP3    H2 6508   0.247   2.465   1.023
 2168TIP3   OH2 6509   6.218   5.300   2.235
 2168TIP3    H1 6510   6.185   5.389   2.224
 2168TIP3    H2 6511   6.214   5.262   2.147
 2169TIP3   OH2 6512   2.099   2.214   4.938
 2169TIP3    H1 6513   2.018   2.170   4.964
 2169TIP3    H2 6514   2.093   2.301   4.976
 2170TIP3   OH2 6515   5.578   3.029   3.427
 2170TIP3    H1 6516   5.606   3.001   3.340
 2170TIP3    H2 6517   5.534   3.112   3.412
 2171TIP3   OH2 6518   1.862   5.936   3.727
 2171TIP3    H1 6519   1.921   6.010   3.711
 2171TIP3    H2 6520   1.837   5.906   3.640
 2172TIP3   OH2 6521   5.352   5.105   0.247
 2172TIP3    H1 6522   5.353   5.037   0.315
 2172TIP3    H2 6523   5.353   5.057   0.165
 2173TIP3   OH2 6524   5.347   2.524   3.517
 2173TIP3    H1 6525   5.392   2.583   3.577
 2173TIP3    H2 6526   5.306   2.582   3.453
 2174TIP3   OH2 6527   6.169   5.235   0.352
 2174TIP3    H1 6528   6.238   5.299   0.367
 2174TIP3    H2 6529   6.121   5.231   0.435
 2175TIP3   OH2 6530   2.943   5.793   0.210
 2175TIP3    H1 6531   3.022   5.833   0.248
 2175TIP3    H2 6532   2.898   5.866   0.168
 2176TIP3   OH2 6533   2.043   4.268   2.316
 2176TIP3    H1 6534   2.076   4.216   2.243
 2176TIP3    H2 6535   1.998   4.204   2.372
 2177TIP3   OH2 6536   5.086   1.437   3.081
 2177TIP3    H1 6537   5.156   1.436   3.016
 2177TIP3    H2 6538   5.112   1.506   3.142
 2178TIP3   OH2 6539   3.184   1.086   3.011
 2178TIP3    H1 6540   3.109   1.029   2.995
 2178TIP3    H2 6541   3.147   1.174   3.012
 2179TIP3   OH2 6542   5.249   3.100   2.522
 2179TIP3    H1 6543   5.304   3.175   2.500
 2179TIP3    H2 6544   5.159   3.132   2.507
 2180TIP3   OH2 6545   2.911   5.164   0.487
 2180TIP3    H1 6546   2.855   5.199   0.557
 2180TIP3    H2 6547   2.997   5.203   0.505
 2181TIP3   OH2 6548   4.564   3.258   3.483
 2181TIP3    H1 6549   4.530   3.284   3.568
 2181TIP3    H2 6550   4.646   3.305   3.474
 2182TIP3   OH2 6551   3.932   2.142   2.573
 2182TIP3    H1 6552   3.946   2.087   2.651
 2182TIP3    H2 6553   4.019   2.168   2.545
 2183TIP3   OH2 6554   4.744   0.942   1.242
 2183TIP3    H1 6555   4.827   0.919   1.199
 2183TIP3    H2 6556   4.699   0.998   1.179
 2184TIP3   OH2 6557   4.573   4.802   2.369
 2184TIP3    H1 6558   4.485   4.825   2.340
 2184TIP3    H2 6559   4.631   4.853   2.311
 2185TIP3   OH2 6560   6.097   4.788   1.841
 2185TIP3    H1 6561   6.173   4.825   1.886
 2185TIP3    H2 6562   6.133   4.744   1.764
 2186TIP3   OH2 6563   5.470   0.613   2.370
 2186TIP3    H1 6564   5.472   0.680   2.302
 2186TIP3    H2 6565   5.410   0.648   2.436
 2187TIP3   OH2 6566   0.420   0.718   2.005
 2187TIP3    H1 6567   0.506   0.744   2.038
 2187TIP3    H2 6568   0.426   0.730   1.910
 2188TIP3   OH2 6569   5.133   3.257   3.518
 2188TIP3    H1 6570   5.228   3.259   3.533
 2188TIP3    H2 6571   5.099   3.332   3.566
 2189TIP3   OH2 6572   1.825   0.355   0.983
 2189TIP3    H1 6573   1.919   0.361   0.999
 2189TIP3    H2 6574   1.815   0.375   0.890
 2190TIP3   OH2 6575   4.660   3.612   4.132
 2190TIP3    H1 6576   4.590   3.627   4.195
 2190TIP3    H2 6577   4.696   3.699   4.114
 2191TIP3   OH2 6578   3.622   3.158   2.730
 2191TIP3    H1 6579   3.651   3.140   2.819
 2191TIP3    H2 6580   3.627   3.073   2.686
 2192TIP3   OH2 6581   2.175   2.097   2.166
 2192TIP3    H1 6582   2.224   2.175   2.139
 2192TIP3    H2 6583   2.084   2.118   2.146
 2193TIP3   OH2 6584   3.917   5.864   0.360
 2193TIP3    H1 6585   3.952   5.820   0.437
 2193TIP3    H2 6586   3.837   5.816   0.338
 2194TIP3   OH2 6587   3.803   2.153   0.658
 2194TIP3    H1 6588   3.874   2.173   0.719
 2194TIP3    H2 6589   3.723   2.168   0.709
 2195TIP3   OH2 6590   2.285   5.314   3.912
 2195TIP3    H1 6591   2.214   5.279   3.967
 2195TIP3    H2 6592   2.357   5.330   3.973
 2196TIP3   OH2 6593   6.178   3.318   4.477
 2196TIP3    H1 6594   6.087   3.326   4.504
 2196TIP3    H2 6595   6.174   3.302   4.383
 2197TIP3   OH2 6596   0.532   5.422   0.191
 2197TIP3    H1 6597   0.588   5.419   0.114
 2197TIP3    H2 6598   0.514   5.330   0.212
 2198TIP3   OH2 6599   0.806   0.812   0.851
 2198TIP3    H1 6600   0.807   0.892   0.904
 2198TIP3    H2 6601   0.717   0.807   0.816
 2199TIP3   OH2 6602   5.860   0.029   4.520
 2199TIP3    H1 6603   5.954   0.038   4.505
 2199TIP3    H2 6604   5.838   0.098   4.582
 2200TIP3   OH2 6605   5.428   4.734   4.088
 2200TIP3    H1 6606   5.515   4.743   4.126
 2200TIP3    H2 6607   5.415   4.815   4.039
 2201TIP3   OH2 6608   2.932   4.358   2.905
 2201TIP3    H1 6609   2.996   4.427   2.889
 2201TIP3    H2 6610   2.848   4.398   2.882
 2202TIP3   OH2 6611   2.510   1.413   0.905
 2202TIP3    H1 6612   2.498   1.319   0.890
 2202TIP3    H2 6613   2.479   1.454   0.825
 2203TIP3   OH2 6614   2.704   2.831   1.534
 2203TIP3    H1 6615   2.717   2.756   1.476
 2203TIP3    H2 6616   2.609   2.841   1.539
 2204TIP3   OH2 6617   5.079   1.750   0.890
 2204TIP3    H1 6618   5.132   1.828   0.874
 2204TIP3    H2 6619   5.099   1.724   0.980
 2205TIP3   OH2 6620   3.293   5.599   1.290
 2205TIP3    H1 6621   3.286   5.639   1.377
 2205TIP3    H2 6622   3.376   5.632   1.256
 2206TIP3   OH2 6623   1.580   4.211   4.352
 2206TIP3    H1 6624   1.675   4.209   4.362
 2206TIP3    H2 6625   1.550   4.273   4.419
 2207TIP3   OH2 6626   2.079   4.990   2.392
 2207TIP3    H1 6627   2.037   5.073   2.414
 2207TIP3    H2 6628   2.173   5.008   2.398
 2208TIP3   OH2 6629   5.720   3.201   4.144
 2208TIP3    H1 6630   5.693   3.150   4.068
 2208TIP3    H2 6631   5.706   3.142   4.218
 2209TIP3   OH2 6632   3.221   2.754   3.849
 2209TIP3    H1 6633   3.296   2.749   3.909
 2209TIP3    H2 6634   3.144   2.751   3.906
 2210TIP3   OH2 6635   1.807   3.295   0.114
 2210TIP3    H1 6636   1.818   3.230   0.183
 2210TIP3    H2 6637   1.741   3.257   0.056
 2211TIP3   OH2 6638   3.997   5.535   5.012
 2211TIP3    H1 6639   3.939   5.460   5.024
 2211TIP3    H2 6640   3.943   5.611   5.032
 2212TIP3   OH2 6641   4.489   0.448   3.210
 2212TIP3    H1 6642   4.566   0.501   3.230
 2212TIP3    H2 6643   4.515   0.359   3.230
 2213TIP3   OH2 6644   0.440   3.226   0.072
 2213TIP3    H1 6645   0.487   3.144   0.089
 2213TIP3    H2 6646   0.469   3.254  -0.015
 2214TIP3   OH2 6647   2.170   2.326   4.227
 2214TIP3    H1 6648   2.247   2.324   4.169
 2214TIP3    H2 6649   2.103   2.280   4.178
 2215TIP3   OH2 6650   1.147   5.041   1.213
 2215TIP3    H1 6651   1.110   4.955   1.234
 2215TIP3    H2 6652   1.071   5.099   1.211
 2216TIP3   OH2 6653   3.662   3.979   4.570
 2216TIP3    H1 6654   3.696   3.896   4.605
 2216TIP3    H2 6655   3.594   3.952   4.508
 2217TIP3   OH2 6656   3.599   2.918   0.682
 2217TIP3    H1 6657   3.630   2.859   0.751
 2217TIP3    H2 6658   3.603   3.005   0.721
 2218TIP3   OH2 6659   1.989   0.395   1.917
 2218TIP3    H1 6660   1.976   0.470   1.974
 2218TIP3    H2 6661   1.969   0.319   1.972
 2219TIP3   OH2 6662   1.529   2.176   0.964
 2219TIP3    H1 6663   1.469   2.235   0.919
 2219TIP3    H2 6664   1.492   2.089   0.951
 2220TIP3   OH2 6665   5.117   5.061   1.627
 2220TIP3    H1 6666   5.184   5.129   1.624
 2220TIP3    H2 6667   5.058   5.081   1.555
 2221TIP3   OH2 6668   2.995   3.566   4.557
 2221TIP3    H1 6669   2.912   3.564   4.509
 2221TIP3    H2 6670   3.006   3.477   4.590
 2222TIP3   OH2 6671   3.549   2.349   2.273
 2222TIP3    H1 6672   3.482   2.386   2.331
 2222TIP3    H2 6673   3.594   2.426   2.237
 2223TIP3   OH2 6674   4.126   0.071   2.458
 2223TIP3    H1 6675   4.046   0.018   2.457
 2223TIP3    H2 6676   4.129   0.108   2.546
 2224TIP3   OH2 6677   3.796   4.862   3.555
 2224TIP3    H1 6678   3.757   4.814   3.628
 2224TIP3    H2 6679   3.891   4.854   3.569
 2225TIP3   OH2 6680   3.635   0.878   4.236
 2225TIP3    H1 6681   3.677   0.792   4.226
 2225TIP3    H2 6682   3.559   0.860   4.291
 2226TIP3   OH2 6683   3.809   0.784   1.755
 2226TIP3    H1 6684   3.847   0.759   1.671
 2226TIP3    H2 6685   3.727   0.735   1.760
 2227TIP3   OH2 6686   2.416   3.236   4.689
 2227TIP3    H1 6687   2.462   3.177   4.629
 2227TIP3    H2 6688   2.463   3.227   4.772
 2228TIP3   OH2 6689   1.175   2.650   0.411
 2228TIP3    H1 6690   1.210   2.578   0.358
 2228TIP3    H2 6691   1.157   2.610   0.496
 2229TIP3   OH2 6692   1.768   0.558   4.737
 2229TIP3    H1 6693   1.838   0.541   4.673
 2229TIP3    H2 6694   1.809   0.542   4.822
 2230TIP3   OH2 6695   2.085   3.347   2.732
 2230TIP3    H1 6696   2.073   3.351   2.827
 2230TIP3    H2 6697   2.024   3.279   2.703
 2231TIP3   OH2 6698   1.934   1.811   0.070
 2231TIP3    H1 6699   1.980   1.735   0.035
 2231TIP3    H2 6700   1.858   1.821   0.012
 2232TIP3   OH2 6701   2.827   3.897   1.167
 2232TIP3    H1 6702   2.759   3.964   1.162
 2232TIP3    H2 6703   2.900   3.935   1.118
 2233TIP3   OH2 6704   0.600   4.382   4.126
 2233TIP3    H1 6705   0.590   4.416   4.215
 2233TIP3    H2 6706   0.673   4.431   4.089
 2234TIP3   OH2 6707   1.915   3.958   3.743
 2234TIP3    H1 6708   1.864   3.996   3.815
 2234TIP3    H2 6709   2.001   3.999   3.750
 2235TIP3   OH2 6710   0.042   1.169   3.235
 2235TIP3    H1 6711   0.073   1.258   3.253
 2235TIP3    H2 6712  -0.035   1.181   3.179
 2236TIP3   OH2 6713   1.822   3.687   0.487
 2236TIP3    H1 6714   1.787   3.612   0.438
 2236TIP3    H2 6715   1.885   3.648   0.548
 2237TIP3   OH2 6716   5.021   4.833   2.895
 2237TIP3    H1 6717   5.112   4.808   2.876
 2237TIP3    H2 6718   5.022   4.859   2.987
 2238TIP3   OH2 6719   1.756   5.879   4.619
 2238TIP3    H1 6720   1.667   5.871   4.652
 2238TIP3    H2 6721   1.757   5.826   4.539
 2239TIP3   OH2 6722   4.684   1.498   0.386
 2239TIP3    H1 6723   4.639   1.573   0.425
 2239TIP3    H2 6724   4.775   1.508   0.414
 2240TIP3   OH2 6725   3.763   2.424   0.908
 2240TIP3    H1 6726   3.752   2.337   0.948
 2240TIP3    H2 6727   3.856   2.428   0.886
 2241TIP3   OH2 6728   0.494   3.550   4.822
 2241TIP3    H1 6729   0.402   3.575   4.817
 2241TIP3    H2 6730   0.527   3.560   4.733
 2242TIP3   OH2 6731   5.129   3.742   1.836
 2242TIP3    H1 6732   5.045   3.751   1.882
 2242TIP3    H2 6733   5.175   3.823   1.855
 2243TIP3   OH2 6734   4.250   0.226   4.095
 2243TIP3    H1 6735   4.210   0.219   4.009
 2243TIP3    H2 6736   4.288   0.140   4.112
 2244TIP3   OH2 6737   1.262   2.543   3.935
 2244TIP3    H1 6738   1.272   2.450   3.916
 2244TIP3    H2 6739   1.185   2.547   3.992
 2245TIP3   OH2 6740   4.995   0.384   2.520
 2245TIP3    H1 6741   4.979   0.468   2.477
 2245TIP3    H2 6742   5.042   0.332   2.454
 2246TIP3   OH2 6743   3.472   5.361   2.897
 2246TIP3    H1 6744   3.381   5.355   2.867
 2246TIP3    H2 6745   3.519   5.297   2.844
 2247TIP3   OH2 6746   2.958   2.378   4.680
 2247TIP3    H1 6747   2.978   2.394   4.772
 2247TIP3    H2 6748   2.865   2.355   4.679
 2248TIP3   OH2 6749   4.434   3.307   3.786
 2248TIP3    H1 6750   4.358   3.261   3.753
 2248TIP3    H2 6751   4.404   3.347   3.868
 2249TIP3   OH2 6752   1.406   4.969   2.528
 2249TIP3    H1 6753   1.329   4.924   2.563
 2249TIP3    H2 6754   1.458   4.899   2.489
 2250TIP3   OH2 6755   0.278   5.842   4.829
 2250TIP3    H1 6756   0.349   5.778   4.836
 2250TIP3    H2 6757   0.204   5.793   4.795
 2251TIP3   OH2 6758   5.495   0.786   1.905
 2251TIP3    H1 6759   5.428   0.767   1.840
 2251TIP3    H2 6760   5.511   0.880   1.896
 2252TIP3   OH2 6761   4.101   3.770   1.527
 2252TIP3    H1 6762   4.087   3.701   1.592
 2252TIP3    H2 6763   4.018   3.818   1.525
 2253TIP3   OH2 6764   5.639   5.733   1.696
 2253TIP3    H1 6765   5.690   5.810   1.672
 2253TIP3    H2 6766   5.704   5.665   1.711
 2254TIP3   OH2 6767   3.539   5.765   0.606
 2254TIP3    H1 6768   3.551   5.671   0.611
 2254TIP3    H2 6769   3.480   5.786   0.679
 2255TIP3   OH2 6770   0.900   3.021   4.677
 2255TIP3    H1 6771   0.920   2.928   4.691
 2255TIP3    H2 6772   0.807   3.021   4.653
 2256TIP3   OH2 6773   4.812   4.575   1.298
 2256TIP3    H1 6774   4.821   4.667   1.275
 2256TIP3    H2 6775   4.739   4.573   1.361
 2257TIP3   OH2 6776   1.918   0.715   4.410
 2257TIP3    H1 6777   2.012   0.731   4.399
 2257TIP3    H2 6778   1.884   0.795   4.448
 2258TIP3   OH2 6779   2.666   3.621   0.908
 2258TIP3    H1 6780   2.585   3.571   0.913
 2258TIP3    H2 6781   2.694   3.630   0.999
 2259TIP3   OH2 6782   2.982   0.937   4.860
 2259TIP3    H1 6783   2.978   0.872   4.930
 2259TIP3    H2 6784   3.069   0.976   4.868
 2260TIP3   OH2 6785   5.051   2.604   2.671
 2260TIP3    H1 6786   5.127   2.618   2.728
 2260TIP3    H2 6787   5.039   2.509   2.670
 2261TIP3   OH2 6788   0.218   4.623   4.541
 2261TIP3    H1 6789   0.284   4.587   4.601
 2261TIP3    H2 6790   0.232   4.576   4.459
 2262TIP3   OH2 6791   3.560   2.666   2.144
 2262TIP3    H1 6792   3.627   2.725   2.180
 2262TIP3    H2 6793   3.488   2.669   2.207
 2263TIP3   OH2 6794   4.654   1.350   3.271
 2263TIP3    H1 6795   4.577   1.293   3.283
 2263TIP3    H2 6796   4.720   1.292   3.232
 2264TIP3   OH2 6797   3.033   3.209   0.073
 2264TIP3    H1 6798   2.940   3.231   0.086
 2264TIP3    H2 6799   3.050   3.143   0.140
 2265TIP3   OH2 6800   0.326   5.601   1.735
 2265TIP3    H1 6801   0.286   5.662   1.797
 2265TIP3    H2 6802   0.397   5.560   1.785
 2266TIP3   OH2 6803   2.755   1.652   0.282
 2266TIP3    H1 6804   2.821   1.584   0.296
 2266TIP3    H2 6805   2.772   1.716   0.351
 2267TIP3   OH2 6806   5.523   2.535   2.486
 2267TIP3    H1 6807   5.488   2.465   2.432
 2267TIP3    H2 6808   5.618   2.533   2.469
 2268TIP3   OH2 6809   1.071   2.237   1.067
 2268TIP3    H1 6810   1.024   2.154   1.058
 2268TIP3    H2 6811   1.099   2.259   0.978
 2269TIP3   OH2 6812   5.875   3.288   1.392
 2269TIP3    H1 6813   5.936   3.347   1.436
 2269TIP3    H2 6814   5.856   3.331   1.309
 2270TIP3   OH2 6815   3.931   0.717   1.027
 2270TIP3    H1 6816   3.892   0.777   1.091
 2270TIP3    H2 6817   3.879   0.638   1.033
 2271TIP3   OH2 6818   0.513   5.367   3.308
 2271TIP3    H1 6819   0.595   5.333   3.344
 2271TIP3    H2 6820   0.452   5.293   3.315
 2272TIP3   OH2 6821   0.741   5.193   3.423
 2272TIP3    H1 6822   0.809   5.256   3.400
 2272TIP3    H2 6823   0.788   5.120   3.463
 2273TIP3   OH2 6824   3.492   4.859   4.667
 2273TIP3    H1 6825   3.457   4.910   4.594
 2273TIP3    H2 6826   3.586   4.853   4.650
 2274TIP3   OH2 6827   3.719   0.599   4.219
 2274TIP3    H1 6828   3.677   0.514   4.235
 2274TIP3    H2 6829   3.788   0.605   4.285
 2275TIP3   OH2 6830   1.446   3.478   0.636
 2275TIP3    H1 6831   1.403   3.416   0.695
 2275TIP3    H2 6832   1.440   3.436   0.550
 2276TIP3   OH2 6833   2.208   5.684   2.157
 2276TIP3    H1 6834   2.182   5.764   2.205
 2276TIP3    H2 6835   2.226   5.620   2.226
 2277TIP3   OH2 6836   3.775   4.691   3.338
 2277TIP3    H1 6837   3.819   4.722   3.259
 2277TIP3    H2 6838   3.792   4.758   3.404
 2278TIP3   OH2 6839   4.605   5.100   2.529
 2278TIP3    H1 6840   4.657   5.019   2.529
 2278TIP3    H2 6841   4.514   5.069   2.527
 2279TIP3   OH2 6842   1.321   1.806   0.542
 2279TIP3    H1 6843   1.329   1.744   0.614
 2279TIP3    H2 6844   1.348   1.757   0.464
 2280TIP3   OH2 6845   5.025   0.664   0.250
 2280TIP3    H1 6846   5.086   0.600   0.213
 2280TIP3    H2 6847   5.067   0.692   0.332
 2281TIP3   OH2 6848   2.508   1.780   0.521
 2281TIP3    H1 6849   2.582   1.821   0.565
 2281TIP3    H2 6850   2.433   1.835   0.543
 2282TIP3   OH2 6851   4.587   3.058   1.859
 2282TIP3    H1 6852   4.681   3.078   1.861
 2282TIP3    H2 6853   4.556   3.079   1.947
 2283TIP3   OH2 6854   5.162   4.673   3.821
 2283TIP3    H1 6855   5.252   4.692   3.795
 2283TIP3    H2 6856   5.111   4.744   3.784
 2284TIP3   OH2 6857   6.185   2.328   4.852
 2284TIP3    H1 6858   6.271   2.340   4.813
 2284TIP3    H2 6859   6.130   2.395   4.810
 2285TIP3   OH2 6860   4.271   0.199   1.580
 2285TIP3    H1 6861   4.297   0.191   1.672
 2285TIP3    H2 6862   4.350   0.178   1.531
 2286TIP3   OH2 6863   4.991   4.263   0.712
 2286TIP3    H1 6864   4.968   4.176   0.745
 2286TIP3    H2 6865   4.996   4.253   0.617
 2287TIP3   OH2 6866   1.695   2.755   0.186
 2287TIP3    H1 6867   1.620   2.812   0.197
 2287TIP3    H2 6868   1.673   2.676   0.237
 2288TIP3   OH2 6869   1.166   0.732   3.195
 2288TIP3    H1 6870   1.129   0.820   3.201
 2288TIP3    H2 6871   1.201   0.726   3.106
 2289TIP3   OH2 6872   2.873   3.482   4.228
 2289TIP3    H1 6873   2.843   3.532   4.153
 2289TIP3    H2 6874   2.811   3.502   4.298
 2290TIP3   OH2 6875   5.789   2.570   0.113
 2290TIP3    H1 6876   5.799   2.591   0.206
 2290TIP3    H2 6877   5.879   2.560   0.081
 2291TIP3   OH2 6878   5.456   1.804   2.363
 2291TIP3    H1 6879   5.393   1.767   2.425
 2291TIP3    H2 6880   5.431   1.896   2.356
 2292TIP3   OH2 6881   0.441   1.561   1.621
 2292TIP3    H1 6882   0.422   1.473   1.653
 2292TIP3    H2 6883   0.517   1.550   1.564
 2293TIP3   OH2 6884   4.510   2.293   2.552
 2293TIP3    H1 6885   4.502   2.296   2.648
 2293TIP3    H2 6886   4.460   2.215   2.527
 2294TIP3   OH2 6887   0.055   1.023   0.568
 2294TIP3    H1 6888   0.093   0.997   0.651
 2294TIP3    H2 6889   0.109   1.097   0.539
 2295TIP3   OH2 6890   4.476   5.639   5.042
 2295TIP3    H1 6891   4.386   5.668   5.056
 2295TIP3    H2 6892   4.475   5.546   5.064
 2296TIP3   OH2 6893   4.199   4.274   1.114
 2296TIP3    H1 6894   4.271   4.258   1.053
 2296TIP3    H2 6895   4.128   4.219   1.082
 2297TIP3   OH2 6896   0.508   4.025   3.856
 2297TIP3    H1 6897   0.559   4.067   3.925
 2297TIP3    H2 6898   0.424   4.004   3.898
 2298TIP3   OH2 6899   4.110   2.870   4.139
 2298TIP3    H1 6900   4.105   2.947   4.196
 2298TIP3    H2 6901   4.203   2.862   4.118
 2299TIP3   OH2 6902   0.751   4.940   4.135
 2299TIP3    H1 6903   0.675   4.887   4.110
 2299TIP3    H2 6904   0.756   5.008   4.069
 2300TIP3   OH2 6905   5.912   2.259   1.945
 2300TIP3    H1 6906   5.893   2.353   1.949
 2300TIP3    H2 6907   6.005   2.254   1.925
 2301TIP3   OH2 6908   0.429   5.959   3.084
 2301TIP3    H1 6909   0.363   5.890   3.083
 2301TIP3    H2 6910   0.400   6.021   3.018
 2302TIP3   OH2 6911   3.183   3.944   3.583
 2302TIP3    H1 6912   3.164   3.852   3.602
 2302TIP3    H2 6913   3.268   3.942   3.540
 2303TIP3   OH2 6914   5.621   5.633   3.298
 2303TIP3    H1 6915   5.711   5.650   3.328
 2303TIP3    H2 6916   5.618   5.669   3.210
 2304TIP3   OH2 6917   3.996   1.072   4.068
 2304TIP3    H1 6918   3.969   1.071   4.160
 2304TIP3    H2 6919   3.921   1.109   4.022
 2305TIP3   OH2 6920   6.140   5.001   2.774
 2305TIP3    H1 6921   6.145   5.097   2.777
 2305TIP3    H2 6922   6.228   4.972   2.795
 2306TIP3   OH2 6923   1.369   2.599   4.549
 2306TIP3    H1 6924   1.439   2.664   4.549
 2306TIP3    H2 6925   1.354   2.581   4.456
 2307TIP3   OH2 6926   1.807   3.347   1.155
 2307TIP3    H1 6927   1.865   3.422   1.144
 2307TIP3    H2 6928   1.866   3.273   1.171
 2308TIP3   OH2 6929   0.391   1.233   4.895
 2308TIP3    H1 6930   0.480   1.268   4.889
 2308TIP3    H2 6931   0.362   1.228   4.803
 2309TIP3   OH2 6932   0.633   2.173   4.879
 2309TIP3    H1 6933   0.549   2.215   4.861
 2309TIP3    H2 6934   0.642   2.179   4.974
 2310TIP3   OH2 6935   5.928   2.591   0.627
 2310TIP3    H1 6936   5.872   2.651   0.579
 2310TIP3    H2 6937   5.980   2.647   0.684
 2311TIP3   OH2 6938   1.799   2.328   3.263
 2311TIP3    H1 6939   1.705   2.311   3.257
 2311TIP3    H2 6940   1.810   2.414   3.224
 2312TIP3   OH2 6941   2.609   5.497   2.750
 2312TIP3    H1 6942   2.660   5.475   2.828
 2312TIP3    H2 6943   2.531   5.541   2.784
 2313TIP3   OH2 6944   4.061   1.642   5.106
 2313TIP3    H1 6945   4.084   1.553   5.076
 2313TIP3    H2 6946   3.966   1.640   5.116
 2314TIP3   OH2 6947   6.094   3.621   3.132
 2314TIP3    H1 6948   6.157   3.646   3.063
 2314TIP3    H2 6949   6.084   3.700   3.185
 2315TIP3   OH2 6950   2.446   1.757   2.760
 2315TIP3    H1 6951   2.457   1.851   2.778
 2315TIP3    H2 6952   2.370   1.732   2.813
 2316TIP3   OH2 6953   5.586   2.053   3.690
 2316TIP3    H1 6954   5.574   1.981   3.629
 2316TIP3    H2 6955   5.510   2.048   3.749
 2317TIP3   OH2 6956   4.881   3.311   3.924
 2317TIP3    H1 6957   4.901   3.360   3.844
 2317TIP3    H2 6958   4.786   3.313   3.929
 2318TIP3   OH2 6959   1.256   2.578   0.968
 2318TIP3    H1 6960   1.247   2.565   0.873
 2318TIP3    H2 6961   1.190   2.644   0.990
 2319TIP3   OH2 6962   4.049   3.477   1.426
 2319TIP3    H1 6963   4.089   3.444   1.506
 2319TIP3    H2 6964   4.117   3.530   1.385
 2320TIP3   OH2 6965   5.639   0.408   4.023
 2320TIP3    H1 6966   5.619   0.410   4.116
 2320TIP3    H2 6967   5.553   0.419   3.980
 2321TIP3   OH2 6968   4.973   1.386   4.572
 2321TIP3    H1 6969   4.929   1.395   4.488
 2321TIP3    H2 6970   5.037   1.457   4.574
 2322TIP3   OH2 6971   5.372   3.173   0.900
 2322TIP3    H1 6972   5.323   3.101   0.938
 2322TIP3    H2 6973   5.456   3.134   0.875
 2323TIP3   OH2 6974   2.949   3.457   1.918
 2323TIP3    H1 6975   2.940   3.475   1.825
 2323TIP3    H2 6976   2.978   3.366   1.922
 2324TIP3   OH2 6977   0.981   2.145   1.556
 2324TIP3    H1 6978   0.983   2.235   1.588
 2324TIP3    H2 6979   0.968   2.093   1.636
 2325TIP3   OH2 6980   4.135   0.762   1.394
 2325TIP3    H1 6981   4.129   0.732   1.303
 2325TIP3    H2 6982   4.190   0.840   1.390
 2326TIP3   OH2 6983   4.516   1.358   4.157
 2326TIP3    H1 6984   4.454   1.404   4.100
 2326TIP3    H2 6985   4.575   1.314   4.097
 2327TIP3   OH2 6986   0.929   2.898   3.180
 2327TIP3    H1 6987   0.984   2.960   3.229
 2327TIP3    H2 6988   0.886   2.846   3.247
 2328TIP3   OH2 6989   5.270   5.943   4.477
 2328TIP3    H1 6990   5.272   5.874   4.543
 2328TIP3    H2 6991   5.178   5.968   4.471
 2329TIP3   OH2 6992   0.494   3.943   3.306
 2329TIP3    H1 6993   0.534   3.975   3.387
 2329TIP3    H2 6994   0.568   3.912   3.254
 2330TIP3   OH2 6995   0.073   0.142   3.051
 2330TIP3    H1 6996   0.049   0.187   3.132
 2330TIP3    H2 6997   0.108   0.058   3.080
 2331TIP3   OH2 6998   3.880   3.183   4.587
 2331TIP3    H1 6999   3.958   3.135   4.559
 2331TIP3    H2 7000   3.809   3.147   4.533
 2332TIP3   OH2 7001   3.652   2.281   4.860
 2332TIP3    H1 7002   3.728   2.236   4.825
 2332TIP3    H2 7003   3.578   2.244   4.812
 2333TIP3   OH2 7004   4.520   0.763   4.601
 2333TIP3    H1 7005   4.499   0.851   4.570
 2333TIP3    H2 7006   4.442   0.711   4.583
 2334TIP3   OH2 7007   5.069   2.570   0.943
 2334TIP3    H1 7008   5.127   2.583   0.868
 2334TIP3    H2 7009   5.006   2.641   0.937
 2335TIP3   OH2 7010   1.261   3.818   1.012
 2335TIP3    H1 7011   1.197   3.872   0.965
 2335TIP3    H2 7012   1.343   3.866   1.003
 2336TIP3   OH2 7013   2.423   5.790   0.734
 2336TIP3    H1 7014   2.380   5.711   0.766
 2336TIP3    H2 7015   2.515   5.778   0.757
 2337TIP3   OH2 7016   5.569   5.838   1.176
 2337TIP3    H1 7017   5.529   5.776   1.237
 2337TIP3    H2 7018   5.546   5.924   1.210
 2338TIP3   OH2 7019   1.672   2.930   3.018
 2338TIP3    H1 7020   1.765   2.927   2.998
 2338TIP3    H2 7021   1.666   2.899   3.109
 2339TIP3   OH2 7022   4.365   5.733   2.906
 2339TIP3    H1 7023   4.424   5.697   2.972
 2339TIP3    H2 7024   4.416   5.800   2.861
 2340TIP3   OH2 7025   4.719   5.730   5.098
 2340TIP3    H1 7026   4.722   5.825   5.096
 2340TIP3    H2 7027   4.626   5.708   5.099
 2341TIP3   OH2 7028   0.404   4.315   0.838
 2341TIP3    H1 7029   0.395   4.394   0.892
 2341TIP3    H2 7030   0.430   4.349   0.752
 2342TIP3   OH2 7031   2.186   2.993   1.141
 2342TIP3    H1 7032   2.098   2.957   1.148
 2342TIP3    H2 7033   2.182   3.078   1.186
 2343TIP3   OH2 7034   2.350   2.847   2.350
 2343TIP3    H1 7035   2.323   2.812   2.265
 2343TIP3    H2 7036   2.430   2.896   2.333
 2344TIP3   OH2 7037   1.439   5.686   0.945
 2344TIP3    H1 7038   1.480   5.620   0.999
 2344TIP3    H2 7039   1.505   5.755   0.936
 2345TIP3   OH2 7040   3.904   5.615   1.697
 2345TIP3    H1 7041   3.929   5.576   1.613
 2345TIP3    H2 7042   3.961   5.571   1.761
 2346TIP3   OH2 7043   2.581   3.548   2.910
 2346TIP3    H1 7044   2.636   3.598   2.850
 2346TIP3    H2 7045   2.632   3.544   2.992
 2347TIP3   OH2 7046   6.323   5.209   4.164
 2347TIP3    H1 7047   6.299   5.224   4.073
 2347TIP3    H2 7048   6.254   5.154   4.199
 2348TIP3   OH2 7049   1.793   4.378   4.718
 2348TIP3    H1 7050   1.788   4.283   4.728
 2348TIP3    H2 7051   1.765   4.412   4.803
 2349TIP3   OH2 7052   4.684   4.578   2.422
 2349TIP3    H1 7053   4.668   4.671   2.408
 2349TIP3    H2 7054   4.686   4.568   2.517
 2350TIP3   OH2 7055   3.032   5.465   1.651
 2350TIP3    H1 7056   2.982   5.547   1.647
 2350TIP3    H2 7057   3.037   5.435   1.561
 2351TIP3   OH2 7058   3.087   5.852   2.584
 2351TIP3    H1 7059   3.114   5.872   2.674
 2351TIP3    H2 7060   3.167   5.821   2.541
 2352TIP3   OH2 7061   6.010   5.887   3.281
 2352TIP3    H1 7062   5.940   5.897   3.217
 2352TIP3    H2 7063   6.085   5.856   3.231
 2353TIP3   OH2 7064   0.090   4.931   3.791
 2353TIP3    H1 7065   0.103   4.992   3.863
 2353TIP3    H2 7066   0.147   4.963   3.721
 2354TIP3   OH2 7067   1.353   5.263   0.215
 2354TIP3    H1 7068   1.355   5.264   0.119
 2354TIP3    H2 7069   1.405   5.339   0.241
 2355TIP3   OH2 7070   6.142   0.328   3.507
 2355TIP3    H1 7071   6.077   0.261   3.528
 2355TIP3    H2 7072   6.092   0.409   3.500
 2356TIP3   OH2 7073   1.221   1.055   3.513
 2356TIP3    H1 7074   1.297   1.034   3.569
 2356TIP3    H2 7075   1.252   1.123   3.455
 2357TIP3   OH2 7076   2.497   3.459   3.770
 2357TIP3    H1 7077   2.574   3.410   3.740
 2357TIP3    H2 7078   2.433   3.392   3.793
 2358TIP3   OH2 7079   4.100   3.166   1.383
 2358TIP3    H1 7080   4.138   3.168   1.295
 2358TIP3    H2 7081   4.024   3.109   1.375
 2359TIP3   OH2 7082   1.133   1.787   1.519
 2359TIP3    H1 7083   1.143   1.806   1.426
 2359TIP3    H2 7084   1.219   1.804   1.557
 2360TIP3   OH2 7085   1.913   5.159   3.321
 2360TIP3    H1 7086   1.940   5.221   3.389
 2360TIP3    H2 7087   1.843   5.203   3.274
 2361TIP3   OH2 7088   4.836   5.558   4.934
 2361TIP3    H1 7089   4.757   5.540   4.882
 2361TIP3    H2 7090   4.810   5.630   4.991
 2362TIP3   OH2 7091   5.290   3.967   3.452
 2362TIP3    H1 7092   5.319   4.051   3.417
 2362TIP3    H2 7093   5.342   3.955   3.532
 2363TIP3   OH2 7094   0.188   1.847   2.609
 2363TIP3    H1 7095   0.129   1.786   2.565
 2363TIP3    H2 7096   0.217   1.906   2.540
 2364TIP3   OH2 7097   4.580   1.249   1.268
 2364TIP3    H1 7098   4.581   1.337   1.305
 2364TIP3    H2 7099   4.539   1.259   1.182
 2365TIP3   OH2 7100   4.240   2.540   1.687
 2365TIP3    H1 7101   4.150   2.570   1.672
 2365TIP3    H2 7102   4.242   2.518   1.780
 2366TIP3   OH2 7103   5.752   4.469   1.687
 2366TIP3    H1 7104   5.770   4.547   1.739
 2366TIP3    H2 7105   5.666   4.439   1.716
 2367TIP3   OH2 7106   5.703   3.905   4.984
 2367TIP3    H1 7107   5.645   3.864   5.049
 2367TIP3    H2 7108   5.791   3.893   5.019
 2368TIP3   OH2 7109   1.503   4.261   3.055
 2368TIP3    H1 7110   1.534   4.263   3.145
 2368TIP3    H2 7111   1.424   4.207   3.058
 2369TIP3   OH2 7112   6.178   5.472   3.405
 2369TIP3    H1 7113   6.227   5.492   3.325
 2369TIP3    H2 7114   6.177   5.555   3.454
 2370TIP3   OH2 7115   2.158   2.686   1.566
 2370TIP3    H1 7116   2.190   2.627   1.499
 2370TIP3    H2 7117   2.084   2.640   1.606
 2371TIP3   OH2 7118   2.658   0.314   1.197
 2371TIP3    H1 7119   2.689   0.223   1.200
 2371TIP3    H2 7120   2.733   0.364   1.166
 2372TIP3   OH2 7121   0.326   0.732   1.470
 2372TIP3    H1 7122   0.313   0.792   1.543
 2372TIP3    H2 7123   0.259   0.664   1.482
 2373TIP3   OH2 7124   1.113   3.084   1.859
 2373TIP3    H1 7125   1.169   3.147   1.904
 2373TIP3    H2 7126   1.114   3.006   1.915
 2374TIP3   OH2 7127   2.307   4.406   0.901
 2374TIP3    H1 7128   2.271   4.352   0.972
 2374TIP3    H2 7129   2.313   4.493   0.939
 2375TIP3   OH2 7130   3.369   1.943   2.603
 2375TIP3    H1 7131   3.429   1.904   2.540
 2375TIP3    H2 7132   3.422   1.955   2.682
 2376TIP3   OH2 7133   4.826   4.892   3.462
 2376TIP3    H1 7134   4.875   4.974   3.458
 2376TIP3    H2 7135   4.793   4.889   3.552
 2377TIP3   OH2 7136   5.565   5.226   2.013
 2377TIP3    H1 7137   5.638   5.210   2.072
 2377TIP3    H2 7138   5.508   5.150   2.025
 2378TIP3   OH2 7139   4.145   0.094   2.074
 2378TIP3    H1 7140   4.094   0.022   2.110
 2378TIP3    H2 7141   4.215   0.109   2.137
 2379TIP3   OH2 7142   2.927   2.438  -0.007
 2379TIP3    H1 7143   2.842   2.452   0.035
 2379TIP3    H2 7144   2.946   2.346   0.007
 2380TIP3   OH2 7145   2.977   4.613   1.759
 2380TIP3    H1 7146   2.990   4.550   1.830
 2380TIP3    H2 7147   3.018   4.694   1.789
 2381TIP3   OH2 7148   0.824   4.719   0.914
 2381TIP3    H1 7149   0.893   4.653   0.921
 2381TIP3    H2 7150   0.750   4.671   0.876
 2382TIP3   OH2 7151   5.234   5.332   1.652
 2382TIP3    H1 7152   5.144   5.349   1.679
 2382TIP3    H2 7153   5.288   5.364   1.724
 2383TIP3   OH2 7154   2.058   4.675   2.446
 2383TIP3    H1 7155   2.095   4.670   2.358
 2383TIP3    H2 7156   2.111   4.615   2.498
 2384TIP3   OH2 7157   5.022   2.545   4.201
 2384TIP3    H1 7158   4.946   2.533   4.258
 2384TIP3    H2 7159   4.991   2.520   4.114
 2385TIP3   OH2 7160   3.558   4.548   2.447
 2385TIP3    H1 7161   3.582   4.597   2.369
 2385TIP3    H2 7162   3.465   4.566   2.461
 2386TIP3   OH2 7163   2.826   4.438   0.132
 2386TIP3    H1 7164   2.834   4.533   0.120
 2386TIP3    H2 7165   2.816   4.426   0.227
 2387TIP3   OH2 7166   1.039   3.710   2.298
 2387TIP3    H1 7167   1.022   3.644   2.230
 2387TIP3    H2 7168   1.047   3.659   2.379
 2388TIP3   OH2 7169   5.658   4.380   0.541
 2388TIP3    H1 7170   5.724   4.439   0.577
 2388TIP3    H2 7171   5.575   4.417   0.570
 2389TIP3   OH2 7172   5.912   1.741   0.555
 2389TIP3    H1 7173   5.861   1.663   0.535
 2389TIP3    H2 7174   5.867   1.781   0.630
 2390TIP3   OH2 7175   4.056   4.794   3.653
 2390TIP3    H1 7176   4.106   4.871   3.681
 2390TIP3    H2 7177   4.114   4.720   3.671
 2391TIP3   OH2 7178   1.344   1.597   5.008
 2391TIP3    H1 7179   1.250   1.605   4.993
 2391TIP3    H2 7180   1.359   1.644   5.090
 2392TIP3   OH2 7181   1.166   0.084   2.041
 2392TIP3    H1 7182   1.160   0.163   1.988
 2392TIP3    H2 7183   1.092   0.030   2.011
 2393TIP3   OH2 7184   2.922   3.185   4.894
 2393TIP3    H1 7185   2.859   3.143   4.953
 2393TIP3    H2 7186   2.959   3.256   4.946
 2394TIP3   OH2 7187   2.680   4.917   0.666
 2394TIP3    H1 7188   2.718   4.917   0.754
 2394TIP3    H2 7189   2.754   4.902   0.608
 2395TIP3   OH2 7190   4.989   5.362   2.521
 2395TIP3    H1 7191   4.899   5.392   2.507
 2395TIP3    H2 7192   5.019   5.411   2.597
 2396TIP3   OH2 7193   1.107   2.320   3.207
 2396TIP3    H1 7194   1.148   2.395   3.251
 2396TIP3    H2 7195   1.123   2.336   3.114
 2397TIP3   OH2 7196   3.776   4.739   0.204
 2397TIP3    H1 7197   3.701   4.694   0.244
 2397TIP3    H2 7198   3.777   4.708   0.114
 2398TIP3   OH2 7199   4.183   0.839   4.669
 2398TIP3    H1 7200   4.241   0.885   4.608
 2398TIP3    H2 7201   4.207   0.747   4.661
 2399TIP3   OH2 7202   4.825   4.164   3.618
 2399TIP3    H1 7203   4.763   4.097   3.646
 2399TIP3    H2 7204   4.910   4.134   3.649
 2400TIP3   OH2 7205   5.225   2.448   1.854
 2400TIP3    H1 7206   5.131   2.459   1.835
 2400TIP3    H2 7207   5.228   2.423   1.946
 2401TIP3   OH2 7208   5.820   1.127   1.181
 2401TIP3    H1 7209   5.741   1.073   1.172
 2401TIP3    H2 7210   5.880   1.071   1.230
 2402TIP3   OH2 7211   1.987   1.836   0.934
 2402TIP3    H1 7212   1.979   1.784   0.854
 2402TIP3    H2 7213   2.006   1.773   1.003
 2403TIP3   OH2 7214   4.194   1.407   0.088
 2403TIP3    H1 7215   4.120   1.462   0.116
 2403TIP3    H2 7216   4.239   1.384   0.169
 2404TIP3   OH2 7217   2.002   3.664   4.728
 2404TIP3    H1 7218   2.057   3.642   4.803
 2404TIP3    H2 7219   2.063   3.667   4.654
 2405TIP3   OH2 7220   5.918   2.672   3.638
 2405TIP3    H1 7221   5.990   2.735   3.625
 2405TIP3    H2 7222   5.842   2.727   3.657
 2406TIP3   OH2 7223   1.575   4.743   2.865
 2406TIP3    H1 7224   1.542   4.663   2.823
 2406TIP3    H2 7225   1.666   4.721   2.889
 2407TIP3   OH2 7226   1.880   4.457   4.195
 2407TIP3    H1 7227   1.919   4.373   4.220
 2407TIP3    H2 7228   1.857   4.446   4.103
 2408TIP3   OH2 7229   1.970   4.925   0.886
 2408TIP3    H1 7230   1.913   4.856   0.919
 2408TIP3    H2 7231   2.023   4.950   0.961
 2409TIP3   OH2 7232   1.670   5.813   0.666
 2409TIP3    H1 7233   1.653   5.895   0.713
 2409TIP3    H2 7234   1.695   5.752   0.735
 2410TIP3   OH2 7235   2.766   1.234   1.661
 2410TIP3    H1 7236   2.775   1.139   1.669
 2410TIP3    H2 7237   2.694   1.256   1.719
 2411TIP3   OH2 7238   5.778   3.672   1.149
 2411TIP3    H1 7239   5.766   3.760   1.186
 2411TIP3    H2 7240   5.860   3.677   1.100
 2412TIP3   OH2 7241   1.172   3.344   2.246
 2412TIP3    H1 7242   1.232   3.339   2.321
 2412TIP3    H2 7243   1.086   3.325   2.283
 2413TIP3   OH2 7244   3.616   4.147   4.125
 2413TIP3    H1 7245   3.657   4.200   4.056
 2413TIP3    H2 7246   3.560   4.209   4.172
 2414TIP3   OH2 7247   2.466   1.367  -0.031
 2414TIP3    H1 7248   2.528   1.440  -0.039
 2414TIP3    H2 7249   2.437   1.371   0.060
 2415TIP3   OH2 7250   5.293   4.167   2.213
 2415TIP3    H1 7251   5.351   4.093   2.232
 2415TIP3    H2 7252   5.205   4.129   2.212
 2416TIP3   OH2 7253   4.814   0.879   2.438
 2416TIP3    H1 7254   4.874   0.896   2.366
 2416TIP3    H2 7255   4.766   0.961   2.451
 2417TIP3   OH2 7256   3.846   4.624   4.741
 2417TIP3    H1 7257   3.867   4.698   4.797
 2417TIP3    H2 7258   3.765   4.588   4.778
 2418TIP3   OH2 7259   1.430   3.208   3.922
 2418TIP3    H1 7260   1.487   3.132   3.908
 2418TIP3    H2 7261   1.478   3.282   3.884
 2419TIP3   OH2 7262   2.996   4.327   4.121
 2419TIP3    H1 7263   2.985   4.264   4.192
 2419TIP3    H2 7264   3.071   4.295   4.071
 2420TIP3   OH2 7265   4.515   2.272   2.832
 2420TIP3    H1 7266   4.599   2.315   2.817
 2420TIP3    H2 7267   4.501   2.282   2.926
 2421TIP3   OH2 7268   4.534   0.705   2.028
 2421TIP3    H1 7269   4.477   0.628   2.022
 2421TIP3    H2 7270   4.569   0.702   2.116
 2422TIP3   OH2 7271   3.484   4.376   1.346
 2422TIP3    H1 7272   3.406   4.420   1.313
 2422TIP3    H2 7273   3.554   4.442   1.341
 2423TIP3   OH2 7274   5.742   3.086   3.135
 2423TIP3    H1 7275   5.664   3.133   3.163
 2423TIP3    H2 7276   5.814   3.149   3.146
 2424TIP3   OH2 7277   4.421   3.330   2.289
 2424TIP3    H1 7278   4.508   3.296   2.308
 2424TIP3    H2 7279   4.435   3.394   2.220
 2425TIP3   OH2 7280   6.151   0.753   4.376
 2425TIP3    H1 7281   6.064   0.789   4.392
 2425TIP3    H2 7282   6.152   0.733   4.283
 2426TIP3   OH2 7283   3.663   5.791   3.866
 2426TIP3    H1 7284   3.613   5.831   3.937
 2426TIP3    H2 7285   3.618   5.819   3.786
 2427TIP3   OH2 7286   0.300   5.514   0.329
 2427TIP3    H1 7287   0.293   5.526   0.424
 2427TIP3    H2 7288   0.394   5.504   0.314
 2428TIP3   OH2 7289   4.529   5.931   1.918
 2428TIP3    H1 7290   4.570   5.956   1.835
 2428TIP3    H2 7291   4.551   6.003   1.978
 2429TIP3   OH2 7292   2.947   0.542   3.342
 2429TIP3    H1 7293   2.884   0.503   3.280
 2429TIP3    H2 7294   2.909   0.627   3.364
 2430TIP3   OH2 7295   4.886   1.202   3.584
 2430TIP3    H1 7296   4.942   1.148   3.528
 2430TIP3    H2 7297   4.851   1.140   3.649
 2431TIP3   OH2 7298   2.710   0.832   4.408
 2431TIP3    H1 7299   2.798   0.851   4.376
 2431TIP3    H2 7300   2.657   0.825   4.329
 2432TIP3   OH2 7301   4.381   3.837   1.946
 2432TIP3    H1 7302   4.327   3.777   1.997
 2432TIP3    H2 7303   4.448   3.867   2.007
 2433TIP3   OH2 7304   3.213   5.403   4.108
 2433TIP3    H1 7305   3.178   5.348   4.177
 2433TIP3    H2 7306   3.200   5.493   4.140
 2434TIP3   OH2 7307   3.401   1.195   2.420
 2434TIP3    H1 7308   3.340   1.206   2.493
 2434TIP3    H2 7309   3.345   1.195   2.342
 2435TIP3   OH2 7310   5.471   3.328   1.088
 2435TIP3    H1 7311   5.464   3.294   0.998
 2435TIP3    H2 7312   5.399   3.287   1.135
 2436TIP3   OH2 7313   3.281   4.457   4.791
 2436TIP3    H1 7314   3.277   4.371   4.833
 2436TIP3    H2 7315   3.218   4.511   4.839
 2437TIP3   OH2 7316   5.528   1.385  -0.054
 2437TIP3    H1 7317   5.618   1.352  -0.047
 2437TIP3    H2 7318   5.521   1.451   0.015
 2438TIP3   OH2 7319   4.984   1.193   4.765
 2438TIP3    H1 7320   5.073   1.207   4.796
 2438TIP3    H2 7321   4.971   1.260   4.698
 2439TIP3   OH2 7322   2.750   2.654   2.893
 2439TIP3    H1 7323   2.728   2.681   2.982
 2439TIP3    H2 7324   2.683   2.590   2.870
 2440TIP3   OH2 7325   3.100   1.333   3.041
 2440TIP3    H1 7326   3.060   1.320   3.126
 2440TIP3    H2 7327   3.047   1.403   3.000
 2441TIP3   OH2 7328   5.006   2.728   3.125
 2441TIP3    H1 7329   5.073   2.661   3.110
 2441TIP3    H2 7330   4.961   2.701   3.204
 2442TIP3   OH2 7331   0.908   1.196   3.311
 2442TIP3    H1 7332   0.871   1.216   3.225
 2442TIP3    H2 7333   0.916   1.281   3.354
 2443TIP3   OH2 7334   0.700   0.711   0.146
 2443TIP3    H1 7335   0.718   0.803   0.165
 2443TIP3    H2 7336   0.777   0.664   0.179
 2444TIP3   OH2 7337   3.043   4.246   2.452
 2444TIP3    H1 7338   3.101   4.196   2.509
 2444TIP3    H2 7339   2.957   4.238   2.493
 2445TIP3   OH2 7340   5.447   0.188   0.963
 2445TIP3    H1 7341   5.506   0.125   1.004
 2445TIP3    H2 7342   5.367   0.139   0.947
 2446TIP3   OH2 7343   1.879   2.501   3.927
 2446TIP3    H1 7344   1.913   2.442   3.993
 2446TIP3    H2 7345   1.830   2.567   3.976
 2447TIP3   OH2 7346   1.812   2.233   1.774
 2447TIP3    H1 7347   1.828   2.251   1.681
 2447TIP3    H2 7348   1.785   2.142   1.777
 2448TIP3   OH2 7349   0.819   2.759   1.001
 2448TIP3    H1 7350   0.799   2.809   1.080
 2448TIP3    H2 7351   0.816   2.824   0.931
 2449TIP3   OH2 7352   5.850   0.091   1.652
 2449TIP3    H1 7353   5.782   0.026   1.673
 2449TIP3    H2 7354   5.932   0.043   1.662
 2450TIP3   OH2 7355   2.009   0.953   2.116
 2450TIP3    H1 7356   1.961   1.036   2.119
 2450TIP3    H2 7357   2.073   0.961   2.187
 2451TIP3   OH2 7358   6.126   1.567   3.130
 2451TIP3    H1 7359   6.038   1.561   3.091
 2451TIP3    H2 7360   6.110   1.596   3.220
 2452TIP3   OH2 7361   1.645   4.009   4.551
 2452TIP3    H1 7362   1.736   4.034   4.564
 2452TIP3    H2 7363   1.609   4.076   4.493
 2453TIP3   OH2 7364   0.753   0.763   0.476
 2453TIP3    H1 7365   0.795   0.833   0.426
 2453TIP3    H2 7366   0.826   0.706   0.503
 2454TIP3   OH2 7367   4.673   5.399   1.034
 2454TIP3    H1 7368   4.653   5.463   1.101
 2454TIP3    H2 7369   4.723   5.447   0.968
 2455TIP3   OH2 7370   4.694   3.809   0.898
 2455TIP3    H1 7371   4.654   3.795   0.984
 2455TIP3    H2 7372   4.627   3.858   0.849
 2456TIP3   OH2 7373   4.039   5.564   0.942
 2456TIP3    H1 7374   4.111   5.501   0.938
 2456TIP3    H2 7375   3.960   5.511   0.925
 2457TIP3   OH2 7376   2.331   4.987   4.085
 2457TIP3    H1 7377   2.298   4.918   4.143
 2457TIP3    H2 7378   2.336   5.064   4.141
 2458TIP3   OH2 7379   2.750   4.590   1.560
 2458TIP3    H1 7380   2.793   4.559   1.480
 2458TIP3    H2 7381   2.821   4.627   1.613
 2459TIP3   OH2 7382   0.573   4.107   1.515
 2459TIP3    H1 7383   0.490   4.135   1.475
 2459TIP3    H2 7384   0.603   4.184   1.564
 2460TIP3   OH2 7385   0.911   1.232   0.705
 2460TIP3    H1 7386   0.960   1.218   0.786
 2460TIP3    H2 7387   0.932   1.156   0.651
 2461TIP3   OH2 7388   0.140   4.169   3.554
 2461TIP3    H1 7389   0.108   4.252   3.518
 2461TIP3    H2 7390   0.142   4.184   3.649
 2462TIP3   OH2 7391   0.494   1.197   4.053
 2462TIP3    H1 7392   0.447   1.118   4.027
 2462TIP3    H2 7393   0.430   1.249   4.101
 2463TIP3   OH2 7394   6.004   3.725   3.552
 2463TIP3    H1 7395   6.003   3.820   3.547
 2463TIP3    H2 7396   5.930   3.697   3.499
 2464TIP3   OH2 7397   0.174   2.289   1.746
 2464TIP3    H1 7398   0.126   2.340   1.681
 2464TIP3    H2 7399   0.207   2.355   1.808
 2465TIP3   OH2 7400   5.635   4.105   0.573
 2465TIP3    H1 7401   5.677   4.072   0.493
 2465TIP3    H2 7402   5.626   4.199   0.558
 2466TIP3   OH2 7403   1.326   4.171   1.996
 2466TIP3    H1 7404   1.407   4.208   2.029
 2466TIP3    H2 7405   1.351   4.088   1.955
 2467TIP3   OH2 7406   2.328   3.174   2.585
 2467TIP3    H1 7407   2.273   3.103   2.617
 2467TIP3    H2 7408   2.412   3.134   2.566
 2468TIP3   OH2 7409   5.239   5.443   1.072
 2468TIP3    H1 7410   5.211   5.380   1.006
 2468TIP3    H2 7411   5.280   5.513   1.022
 2469TIP3   OH2 7412   4.021   5.492   1.474
 2469TIP3    H1 7413   4.106   5.458   1.500
 2469TIP3    H2 7414   4.040   5.554   1.403
 2470TIP3   OH2 7415   3.972   4.747   3.180
 2470TIP3    H1 7416   3.993   4.722   3.090
 2470TIP3    H2 7417   4.032   4.818   3.200
 2471TIP3   OH2 7418   4.783   3.013   0.617
 2471TIP3    H1 7419   4.836   3.030   0.694
 2471TIP3    H2 7420   4.703   3.065   0.630
 2472TIP3   OH2 7421   2.481   4.098   4.917
 2472TIP3    H1 7422   2.458   4.005   4.912
 2472TIP3    H2 7423   2.424   4.140   4.853
 2473TIP3   OH2 7424   3.200   0.419   2.327
 2473TIP3    H1 7425   3.133   0.482   2.354
 2473TIP3    H2 7426   3.268   0.473   2.286
 2474TIP3   OH2 7427   2.408   0.708   4.122
 2474TIP3    H1 7428   2.393   0.618   4.152
 2474TIP3    H2 7429   2.324   0.736   4.088
 2475TIP3   OH2 7430   4.963   1.203   4.326
 2475TIP3    H1 7431   4.960   1.126   4.383
 2475TIP3    H2 7432   4.962   1.167   4.238
 2476TIP3   OH2 7433   4.759   1.983   0.376
 2476TIP3    H1 7434   4.835   1.971   0.433
 2476TIP3    H2 7435   4.767   2.073   0.344
 2477TIP3   OH2 7436   5.987   0.579   2.229
 2477TIP3    H1 7437   5.944   0.646   2.176
 2477TIP3    H2 7438   6.065   0.555   2.179
 2478TIP3   OH2 7439   0.700   2.361   4.422
 2478TIP3    H1 7440   0.669   2.276   4.454
 2478TIP3    H2 7441   0.714   2.413   4.501
 2479TIP3   OH2 7442   3.903   3.209   4.949
 2479TIP3    H1 7443   3.868   3.122   4.969
 2479TIP3    H2 7444   3.991   3.209   4.986
 2480TIP3   OH2 7445   5.609   3.961   0.814
 2480TIP3    H1 7446   5.614   4.018   0.737
 2480TIP3    H2 7447   5.606   4.021   0.888
 2481TIP3   OH2 7448   4.644   2.977   1.417
 2481TIP3    H1 7449   4.660   3.069   1.436
 2481TIP3    H2 7450   4.708   2.930   1.471
 2482TIP3   OH2 7451   5.418   3.259   3.621
 2482TIP3    H1 7452   5.476   3.291   3.690
 2482TIP3    H2 7453   5.414   3.164   3.636
 2483TIP3   OH2 7454   6.113   3.345   3.143
 2483TIP3    H1 7455   6.060   3.330   3.065
 2483TIP3    H2 7456   6.089   3.433   3.172
 2484TIP3   OH2 7457   2.903   4.463   2.299
 2484TIP3    H1 7458   2.947   4.382   2.272
 2484TIP3    H2 7459   2.973   4.526   2.310
 2485TIP3   OH2 7460   5.462   1.062   4.988
 2485TIP3    H1 7461   5.500   0.979   5.014
 2485TIP3    H2 7462   5.537   1.121   4.978
 2486TIP3   OH2 7463   4.863   2.895   3.829
 2486TIP3    H1 7464   4.795   2.961   3.841
 2486TIP3    H2 7465   4.942   2.946   3.809
 2487TIP3   OH2 7466   0.389   3.555   3.981
 2487TIP3    H1 7467   0.352   3.495   4.047
 2487TIP3    H2 7468   0.458   3.601   4.028
 2488TIP3   OH2 7469   2.049   4.124   1.636
 2488TIP3    H1 7470   2.044   4.193   1.702
 2488TIP3    H2 7471   2.011   4.164   1.557
 2489TIP3   OH2 7472   0.152   5.847   2.392
 2489TIP3    H1 7473   0.179   5.770   2.443
 2489TIP3    H2 7474   0.146   5.918   2.456
 2490TIP3   OH2 7475   0.990   0.633   0.474
 2490TIP3    H1 7476   0.999   0.657   0.381
 2490TIP3    H2 7477   0.963   0.541   0.472
 2491TIP3   OH2 7478   5.588   5.331   0.168
 2491TIP3    H1 7479   5.565   5.259   0.227
 2491TIP3    H2 7480   5.664   5.298   0.119
 2492TIP3   OH2 7481   4.848   0.496   4.344
 2492TIP3    H1 7482   4.920   0.445   4.307
 2492TIP3    H2 7483   4.888   0.543   4.418
 2493TIP3   OH2 7484   1.697   0.948   0.561
 2493TIP3    H1 7485   1.689   0.870   0.506
 2493TIP3    H2 7486   1.774   0.994   0.526
 2494TIP3   OH2 7487   4.703   5.710   3.505
 2494TIP3    H1 7488   4.691   5.621   3.474
 2494TIP3    H2 7489   4.652   5.764   3.445
 2495TIP3   OH2 7490   0.780   3.774   1.590
 2495TIP3    H1 7491   0.815   3.815   1.511
 2495TIP3    H2 7492   0.836   3.697   1.605
 2496TIP3   OH2 7493   4.387   1.262   1.069
 2496TIP3    H1 7494   4.321   1.308   1.120
 2496TIP3    H2 7495   4.403   1.319   0.994
 2497TIP3   OH2 7496   1.538   4.536   3.921
 2497TIP3    H1 7497   1.494   4.528   3.836
 2497TIP3    H2 7498   1.631   4.536   3.900
 2498TIP3   OH2 7499   0.222   5.852   0.827
 2498TIP3    H1 7500   0.231   5.928   0.884
 2498TIP3    H2 7501   0.133   5.820   0.845
 2499TIP3   OH2 7502   4.536   4.105   1.188
 2499TIP3    H1 7503   4.471   4.069   1.248
 2499TIP3    H2 7504   4.570   4.182   1.233
 2500TIP3   OH2 7505   1.210   2.132   0.410
 2500TIP3    H1 7506   1.268   2.148   0.485
 2500TIP3    H2 7507   1.130   2.181   0.430
 2501TIP3   OH2 7508   1.578   2.693   2.834
 2501TIP3    H1 7509   1.603   2.769   2.886
 2501TIP3    H2 7510   1.576   2.621   2.897
 2502TIP3   OH2 7511   5.085   4.034   3.992
 2502TIP3    H1 7512   5.066   4.102   4.057
 2502TIP3    H2 7513   5.024   3.963   4.014
 2503TIP3   OH2 7514   3.762   4.482   1.125
 2503TIP3    H1 7515   3.694   4.530   1.172
 2503TIP3    H2 7516   3.719   4.454   1.044
 2504TIP3   OH2 7517   5.814   3.026   2.641
 2504TIP3    H1 7518   5.748   2.987   2.699
 2504TIP3    H2 7519   5.897   3.009   2.684
 2505TIP3   OH2 7520   1.084   4.344   3.110
 2505TIP3    H1 7521   1.088   4.353   3.015
 2505TIP3    H2 7522   1.148   4.408   3.142
 2506TIP3   OH2 7523   5.671   1.311   0.237
 2506TIP3    H1 7524   5.661   1.403   0.213
 2506TIP3    H2 7525   5.582   1.281   0.255
 2507TIP3   OH2 7526   0.771   3.722   2.268
 2507TIP3    H1 7527   0.738   3.778   2.197
 2507TIP3    H2 7528   0.864   3.740   2.272
 2508TIP3   OH2 7529   4.650   3.026   4.053
 2508TIP3    H1 7530   4.637   3.119   4.070
 2508TIP3    H2 7531   4.585   2.982   4.108
 2509TIP3   OH2 7532   3.277   2.466   5.067
 2509TIP3    H1 7533   3.355   2.439   5.116
 2509TIP3    H2 7534   3.204   2.433   5.119
 2510TIP3   OH2 7535   2.874   0.098   0.342
 2510TIP3    H1 7536   2.821   0.037   0.393
 2510TIP3    H2 7537   2.914   0.044   0.273
 2511TIP3   OH2 7538   1.281   2.937   0.801
 2511TIP3    H1 7539   1.358   2.943   0.858
 2511TIP3    H2 7540   1.311   2.887   0.725
 2512TIP3   OH2 7541   3.138   3.968   0.521
 2512TIP3    H1 7542   3.130   4.062   0.501
 2512TIP3    H2 7543   3.084   3.956   0.600
 2513TIP3   OH2 7544   1.577   5.767   1.221
 2513TIP3    H1 7545   1.671   5.771   1.241
 2513TIP3    H2 7546   1.568   5.812   1.137
 2514TIP3   OH2 7547   3.828   4.536   2.213
 2514TIP3    H1 7548   3.754   4.474   2.216
 2514TIP3    H2 7549   3.845   4.548   2.119
 2515TIP3   OH2 7550   5.360   1.616   1.838
 2515TIP3    H1 7551   5.352   1.710   1.852
 2515TIP3    H2 7552   5.434   1.589   1.892
 2516TIP3   OH2 7553   4.849   5.682   0.164
 2516TIP3    H1 7554   4.919   5.618   0.156
 2516TIP3    H2 7555   4.893   5.761   0.198
 2517TIP3   OH2 7556   4.798   3.281   0.432
 2517TIP3    H1 7557   4.863   3.351   0.446
 2517TIP3    H2 7558   4.775   3.251   0.519
 2518TIP3   OH2 7559   0.650   1.133   0.577
 2518TIP3    H1 7560   0.661   1.087   0.661
 2518TIP3    H2 7561   0.712   1.206   0.583
 2519TIP3   OH2 7562   3.097   0.959   1.645
 2519TIP3    H1 7563   3.094   1.045   1.603
 2519TIP3    H2 7564   3.010   0.922   1.630
 2520TIP3   OH2 7565   5.593   1.592   4.660
 2520TIP3    H1 7566   5.664   1.649   4.689
 2520TIP3    H2 7567   5.609   1.578   4.567
 2521TIP3   OH2 7568   6.122   2.121   0.356
 2521TIP3    H1 7569   6.209   2.125   0.396
 2521TIP3    H2 7570   6.068   2.076   0.421
 2522TIP3   OH2 7571   1.350   2.618   3.669
 2522TIP3    H1 7572   1.274   2.676   3.667
 2522TIP3    H2 7573   1.361   2.595   3.761
 2523TIP3   OH2 7574   2.348   4.645   2.175
 2523TIP3    H1 7575   2.391   4.711   2.229
 2523TIP3    H2 7576   2.361   4.563   2.224
 2524TIP3   OH2 7577   1.233   4.684   1.213
 2524TIP3    H1 7578   1.269   4.712   1.297
 2524TIP3    H2 7579   1.294   4.720   1.148
 2525TIP3   OH2 7580   5.678   4.188   2.753
 2525TIP3    H1 7581   5.764   4.230   2.758
 2525TIP3    H2 7582   5.617   4.259   2.731
 2526TIP3   OH2 7583   0.059   1.237   1.814
 2526TIP3    H1 7584   0.081   1.150   1.849
 2526TIP3    H2 7585  -0.027   1.225   1.775
 2527TIP3   OH2 7586   0.501   4.449   2.420
 2527TIP3    H1 7587   0.555   4.513   2.467
 2527TIP3    H2 7588   0.431   4.501   2.380
 2528TIP3   OH2 7589   6.152   1.781   5.114
 2528TIP3    H1 7590   6.115   1.713   5.057
 2528TIP3    H2 7591   6.101   1.774   5.195
 2529TIP3   OH2 7592   5.269   4.991   4.258
 2529TIP3    H1 7593   5.325   4.950   4.192
 2529TIP3    H2 7594   5.184   5.000   4.215
 2530TIP3   OH2 7595   3.779   4.138   3.768
 2530TIP3    H1 7596   3.804   4.205   3.832
 2530TIP3    H2 7597   3.728   4.186   3.703
 2531TIP3   OH2 7598   3.430   0.413   3.690
 2531TIP3    H1 7599   3.429   0.335   3.746
 2531TIP3    H2 7600   3.481   0.477   3.740
 2532TIP3   OH2 7601   1.494   2.948   0.966
 2532TIP3    H1 7602   1.552   2.988   1.031
 2532TIP3    H2 7603   1.535   2.865   0.944
 2533TIP3   OH2 7604   5.804   5.948   1.629
 2533TIP3    H1 7605   5.743   6.013   1.664
 2533TIP3    H2 7606   5.890   5.978   1.659
 2534TIP3   OH2 7607   1.033   4.433   1.854
 2534TIP3    H1 7608   1.125   4.416   1.836
 2534TIP3    H2 7609   0.994   4.347   1.864
 2535TIP3   OH2 7610   1.342   3.705   0.745
 2535TIP3    H1 7611   1.398   3.742   0.813
 2535TIP3    H2 7612   1.391   3.631   0.710
 2536TIP3   OH2 7613   3.748   1.002   0.138
 2536TIP3    H1 7614   3.840   0.977   0.150
 2536TIP3    H2 7615   3.742   1.091   0.173
 2537TIP3   OH2 7616   5.421   4.812   3.051
 2537TIP3    H1 7617   5.401   4.905   3.060
 2537TIP3    H2 7618   5.396   4.774   3.136
 2538TIP3   OH2 7619   0.639   1.048   0.843
 2538TIP3    H1 7620   0.707   1.059   0.911
 2538TIP3    H2 7621   0.559   1.030   0.892
 2539TIP3   OH2 7622   2.977   1.892   3.314
 2539TIP3    H1 7623   2.950   1.948   3.387
 2539TIP3    H2 7624   2.907   1.902   3.250
 2540TIP3   OH2 7625   3.052   2.581   2.559
 2540TIP3    H1 7626   3.105   2.642   2.507
 2540TIP3    H2 7627   3.116   2.532   2.611
 2541TIP3   OH2 7628   5.122   5.003   0.770
 2541TIP3    H1 7629   5.183   4.945   0.815
 2541TIP3    H2 7630   5.051   5.016   0.833
 2542TIP3   OH2 7631   2.541   2.620   4.581
 2542TIP3    H1 7632   2.595   2.542   4.586
 2542TIP3    H2 7633   2.457   2.594   4.620
 2543TIP3   OH2 7634   1.296   0.896   4.991
 2543TIP3    H1 7635   1.207   0.914   4.962
 2543TIP3    H2 7636   1.299   0.926   5.082
 2544TIP3   OH2 7637   2.645   3.117   3.007
 2544TIP3    H1 7638   2.560   3.160   3.019
 2544TIP3    H2 7639   2.629   3.050   2.942
 2545TIP3   OH2 7640   4.149   0.601   2.749
 2545TIP3    H1 7641   4.203   0.640   2.681
 2545TIP3    H2 7642   4.127   0.674   2.808
 2546TIP3   OH2 7643   3.021   1.593   5.036
 2546TIP3    H1 7644   2.931   1.608   5.067
 2546TIP3    H2 7645   3.066   1.555   5.111
 2547TIP3   OH2 7646   4.803   3.021   0.018
 2547TIP3    H1 7647   4.782   3.093   0.077
 2547TIP3    H2 7648   4.743   3.032  -0.055
 2548TIP3   OH2 7649   4.878   0.873   3.463
 2548TIP3    H1 7650   4.792   0.902   3.433
 2548TIP3    H2 7651   4.864   0.785   3.497
 2549TIP3   OH2 7652   1.764   0.382   0.185
 2549TIP3    H1 7653   1.797   0.466   0.154
 2549TIP3    H2 7654   1.826   0.354   0.252
 2550TIP3   OH2 7655   1.654   0.570   0.592
 2550TIP3    H1 7656   1.669   0.630   0.519
 2550TIP3    H2 7657   1.597   0.618   0.652
 2551TIP3   OH2 7658  -0.002   5.438   2.823
 2551TIP3    H1 7659   0.086   5.449   2.860
 2551TIP3    H2 7660  -0.051   5.514   2.856
 2552TIP3   OH2 7661   3.351   1.833   1.593
 2552TIP3    H1 7662   3.360   1.743   1.561
 2552TIP3    H2 7663   3.399   1.833   1.675
 2553TIP3   OH2 7664   5.013   4.435   5.112
 2553TIP3    H1 7665   4.979   4.353   5.077
 2553TIP3    H2 7666   5.068   4.471   5.042
 2554TIP3   OH2 7667   3.374   3.983   4.678
 2554TIP3    H1 7668   3.431   3.910   4.703
 2554TIP3    H2 7669   3.427   4.061   4.692
 2555TIP3   OH2 7670   6.189   5.053   4.540
 2555TIP3    H1 7671   6.177   5.081   4.449
 2555TIP3    H2 7672   6.171   5.131   4.592
 2556TIP3   OH2 7673   4.129   3.212   3.941
 2556TIP3    H1 7674   4.162   3.179   3.857
 2556TIP3    H2 7675   4.037   3.232   3.925
 2557TIP3   OH2 7676   3.647   4.187   1.195
 2557TIP3    H1 7677   3.610   4.258   1.247
 2557TIP3    H2 7678   3.665   4.226   1.110
 2558TIP3   OH2 7679   1.639   0.493   2.296
 2558TIP3    H1 7680   1.668   0.505   2.387
 2558TIP3    H2 7681   1.586   0.570   2.278
 2559TIP3   OH2 7682   6.018   1.249   4.230
 2559TIP3    H1 7683   6.047   1.340   4.234
 2559TIP3    H2 7684   5.922   1.254   4.232
 2560TIP3   OH2 7685   3.031   2.806   2.098
 2560TIP3    H1 7686   2.967   2.736   2.112
 2560TIP3    H2 7687   3.114   2.760   2.085
 2561TIP3   OH2 7688   0.620   3.553   4.554
 2561TIP3    H1 7689   0.637   3.534   4.462
 2561TIP3    H2 7690   0.707   3.559   4.594
 2562TIP3   OH2 7691   3.627   2.050   1.185
 2562TIP3    H1 7692   3.693   2.118   1.182
 2562TIP3    H2 7693   3.550   2.093   1.222
 2563TIP3   OH2 7694   4.420   0.384   2.596
 2563TIP3    H1 7695   4.406   0.320   2.666
 2563TIP3    H2 7696   4.358   0.360   2.528
 2564TIP3   OH2 7697   2.698   4.481   3.655
 2564TIP3    H1 7698   2.748   4.540   3.712
 2564TIP3    H2 7699   2.717   4.511   3.566
 2565TIP3   OH2 7700   1.085   2.665   2.081
 2565TIP3    H1 7701   1.078   2.699   1.992
 2565TIP3    H2 7702   1.142   2.589   2.073
 2566TIP3   OH2 7703   5.542   2.019   1.919
 2566TIP3    H1 7704   5.484   1.946   1.942
 2566TIP3    H2 7705   5.486   2.081   1.872
 2567TIP3   OH2 7706   4.413   3.243   4.841
 2567TIP3    H1 7707   4.473   3.300   4.793
 2567TIP3    H2 7708   4.330   3.250   4.794
 2568TIP3   OH2 7709   6.282   4.813   0.122
 2568TIP3    H1 7710   6.219   4.882   0.141
 2568TIP3    H2 7711   6.238   4.756   0.059
 2569TIP3   OH2 7712   5.455   4.642   0.504
 2569TIP3    H1 7713   5.398   4.664   0.577
 2569TIP3    H2 7714   5.510   4.720   0.492
 2570TIP3   OH2 7715   3.747   1.491   0.411
 2570TIP3    H1 7716   3.832   1.523   0.443
 2570TIP3    H2 7717   3.691   1.490   0.488
 2571TIP3   OH2 7718   0.338   1.859   1.157
 2571TIP3    H1 7719   0.407   1.906   1.204
 2571TIP3    H2 7720   0.274   1.837   1.225
 2572TIP3   OH2 7721   4.229   1.440   3.663
 2572TIP3    H1 7722   4.146   1.415   3.704
 2572TIP3    H2 7723   4.204   1.500   3.593
 2573TIP3   OH2 7724   6.090   4.792   4.647
 2573TIP3    H1 7725   6.106   4.885   4.632
 2573TIP3    H2 7726   6.071   4.757   4.560
 2574TIP3   OH2 7727   4.722   1.100   0.743
 2574TIP3    H1 7728   4.651   1.112   0.806
 2574TIP3    H2 7729   4.692   1.145   0.664
 2575TIP3   OH2 7730   4.064   5.071   1.396
 2575TIP3    H1 7731   4.007   5.051   1.471
 2575TIP3    H2 7732   4.132   5.127   1.433
 2576TIP3   OH2 7733   1.994   0.795   2.778
 2576TIP3    H1 7734   2.031   0.859   2.838
 2576TIP3    H2 7735   1.951   0.730   2.835
 2577TIP3   OH2 7736   1.530   3.740   4.505
 2577TIP3    H1 7737   1.586   3.818   4.497
 2577TIP3    H2 7738   1.589   3.667   4.486
 2578TIP3   OH2 7739   1.616   4.290   2.733
 2578TIP3    H1 7740   1.520   4.297   2.733
 2578TIP3    H2 7741   1.646   4.373   2.770
 2579TIP3   OH2 7742   4.075   2.662   3.118
 2579TIP3    H1 7743   3.995   2.658   3.066
 2579TIP3    H2 7744   4.116   2.576   3.105
 2580TIP3   OH2 7745   1.812   3.726   4.208
 2580TIP3    H1 7746   1.734   3.683   4.243
 2580TIP3    H2 7747   1.821   3.691   4.119
 2581TIP3   OH2 7748   3.342   2.038   0.411
 2581TIP3    H1 7749   3.270   2.003   0.462
 2581TIP3    H2 7750   3.300   2.083   0.338
 2582TIP3   OH2 7751   0.525   5.275   0.576
 2582TIP3    H1 7752   0.435   5.247   0.560
 2582TIP3    H2 7753   0.579   5.200   0.550
 2583TIP3   OH2 7754   5.488   5.227   0.474
 2583TIP3    H1 7755   5.467   5.175   0.551
 2583TIP3    H2 7756   5.432   5.193   0.405
 2584TIP3   OH2 7757   4.389   0.839   0.134
 2584TIP3    H1 7758   4.474   0.881   0.148
 2584TIP3    H2 7759   4.353   0.829   0.222
 2585TIP3   OH2 7760   6.198   0.523   1.349
 2585TIP3    H1 7761   6.235   0.458   1.409
 2585TIP3    H2 7762   6.203   0.483   1.263
 2586TIP3   OH2 7763   2.811   5.584   5.063
 2586TIP3    H1 7764   2.810   5.571   5.158
 2586TIP3    H2 7765   2.726   5.550   5.034
 2587TIP3   OH2 7766   2.489   3.227   3.350
 2587TIP3    H1 7767   2.563   3.280   3.379
 2587TIP3    H2 7768   2.418   3.289   3.335
 2588TIP3   OH2 7769   4.074   5.772   4.823
 2588TIP3    H1 7770   4.090   5.717   4.747
 2588TIP3    H2 7771   4.155   5.767   4.874
 2589TIP3   OH2 7772   4.462   3.232   4.189
 2589TIP3    H1 7773   4.429   3.143   4.176
 2589TIP3    H2 7774   4.437   3.255   4.278
 2590TIP3   OH2 7775   2.238   0.844   1.286
 2590TIP3    H1 7776   2.241   0.869   1.379
 2590TIP3    H2 7777   2.168   0.897   1.249
 2591TIP3   OH2 7778   3.800   3.637   3.732
 2591TIP3    H1 7779   3.780   3.716   3.682
 2591TIP3    H2 7780   3.892   3.648   3.757
 2592TIP3   OH2 7781   1.801   0.732   4.116
 2592TIP3    H1 7782   1.785   0.817   4.075
 2592TIP3    H2 7783   1.853   0.752   4.193
 2593TIP3   OH2 7784   5.608   3.624   2.199
 2593TIP3    H1 7785   5.601   3.658   2.110
 2593TIP3    H2 7786   5.700   3.636   2.223
 2594TIP3   OH2 7787   4.228   5.792   0.396
 2594TIP3    H1 7788   4.156   5.729   0.406
 2594TIP3    H2 7789   4.305   5.744   0.428
 2595TIP3   OH2 7790   4.449   5.707   3.410
 2595TIP3    H1 7791   4.449   5.623   3.364
 2595TIP3    H2 7792   4.359   5.716   3.443
 2596TIP3   OH2 7793   0.647   4.788   1.293
 2596TIP3    H1 7794   0.726   4.829   1.259
 2596TIP3    H2 7795   0.585   4.860   1.303
 2597TIP3   OH2 7796   4.453   4.857   1.516
 2597TIP3    H1 7797   4.487   4.920   1.580
 2597TIP3    H2 7798   4.397   4.909   1.459
 2598TIP3   OH2 7799   3.646   1.296   1.367
 2598TIP3    H1 7800   3.626   1.206   1.344
 2598TIP3    H2 7801   3.602   1.349   1.300
 2599TIP3   OH2 7802   3.556   3.259   2.339
 2599TIP3    H1 7803   3.525   3.282   2.252
 2599TIP3    H2 7804   3.508   3.318   2.398
 2600TIP3   OH2 7805   3.953   5.429   4.046
 2600TIP3    H1 7806   4.032   5.482   4.055
 2600TIP3    H2 7807   3.955   5.370   4.121
 2601TIP3   OH2 7808   6.020   2.093   1.080
 2601TIP3    H1 7809   6.083   2.021   1.075
 2601TIP3    H2 7810   5.969   2.086   0.999
 2602TIP3   OH2 7811   3.731   4.204   0.610
 2602TIP3    H1 7812   3.810   4.179   0.658
 2602TIP3    H2 7813   3.690   4.121   0.587
 2603TIP3   OH2 7814   2.863   4.899   4.784
 2603TIP3    H1 7815   2.829   4.825   4.835
 2603TIP3    H2 7816   2.785   4.945   4.755
 2604TIP3   OH2 7817   1.531   3.587   3.595
 2604TIP3    H1 7818   1.603   3.612   3.537
 2604TIP3    H2 7819   1.574   3.556   3.674
 2605TIP3   OH2 7820   0.554   3.601   2.408
 2605TIP3    H1 7821   0.619   3.585   2.477
 2605TIP3    H2 7822   0.606   3.628   2.332
 2606TIP3   OH2 7823   2.284   4.733   1.483
 2606TIP3    H1 7824   2.370   4.718   1.445
 2606TIP3    H2 7825   2.273   4.662   1.547
 2607TIP3   OH2 7826   3.968   1.967   4.323
 2607TIP3    H1 7827   3.993   1.897   4.263
 2607TIP3    H2 7828   4.049   1.988   4.370
 2608TIP3   OH2 7829   3.704   4.552   1.500
 2608TIP3    H1 7830   3.666   4.588   1.420
 2608TIP3    H2 7831   3.799   4.558   1.487
 2609TIP3   OH2 7832   0.216   2.692   3.296
 2609TIP3    H1 7833   0.133   2.690   3.248
 2609TIP3    H2 7834   0.270   2.627   3.251
 2610TIP3   OH2 7835   5.669   5.280   3.186
 2610TIP3    H1 7836   5.751   5.330   3.189
 2610TIP3    H2 7837   5.656   5.250   3.276
 2611TIP3   OH2 7838   4.795   4.384   4.212
 2611TIP3    H1 7839   4.797   4.374   4.307
 2611TIP3    H2 7840   4.815   4.296   4.179
 2612TIP3   OH2 7841   3.389   2.321   2.626
 2612TIP3    H1 7842   3.465   2.266   2.608
 2612TIP3    H2 7843   3.345   2.278   2.699
 2613TIP3   OH2 7844   0.210   3.313   3.654
 2613TIP3    H1 7845   0.298   3.314   3.616
 2613TIP3    H2 7846   0.204   3.396   3.701
 2614TIP3   OH2 7847   5.645   4.913   0.265
 2614TIP3    H1 7848   5.668   4.843   0.205
 2614TIP3    H2 7849   5.711   4.981   0.249
 2615TIP3   OH2 7850   3.635   2.453   3.211
 2615TIP3    H1 7851   3.596   2.408   3.137
 2615TIP3    H2 7852   3.706   2.505   3.173
 2616TIP3   OH2 7853   0.864   4.724   4.926
 2616TIP3    H1 7854   0.896   4.643   4.965
 2616TIP3    H2 7855   0.772   4.728   4.952
 2617TIP3   OH2 7856   2.560   5.700   3.336
 2617TIP3    H1 7857   2.581   5.701   3.242
 2617TIP3    H2 7858   2.520   5.615   3.351
 2618TIP3   OH2 7859   5.489   2.969   2.922
 2618TIP3    H1 7860   5.440   3.048   2.899
 2618TIP3    H2 7861   5.506   2.926   2.839
 2619TIP3   OH2 7862   4.663   1.358   2.916
 2619TIP3    H1 7863   4.600   1.394   2.978
 2619TIP3    H2 7864   4.744   1.347   2.966
 2620TIP3   OH2 7865   4.865   1.278   3.097
 2620TIP3    H1 7866   4.948   1.326   3.090
 2620TIP3    H2 7867   4.890   1.186   3.100
 2621TIP3   OH2 7868   5.259   1.207   4.088
 2621TIP3    H1 7869   5.258   1.286   4.143
 2621TIP3    H2 7870   5.294   1.139   4.145
 2622TIP3   OH2 7871   0.728   0.271   4.032
 2622TIP3    H1 7872   0.711   0.224   4.113
 2622TIP3    H2 7873   0.670   0.230   3.967
 2623TIP3   OH2 7874   1.263   2.910   3.638
 2623TIP3    H1 7875   1.343   2.927   3.687
 2623TIP3    H2 7876   1.198   2.885   3.704
 2624TIP3   OH2 7877   6.221   2.493   0.550
 2624TIP3    H1 7878   6.252   2.483   0.640
 2624TIP3    H2 7879   6.148   2.431   0.543
 2625TIP3   OH2 7880   4.372   4.467   2.609
 2625TIP3    H1 7881   4.365   4.423   2.525
 2625TIP3    H2 7882   4.452   4.519   2.602
 2626TIP3   OH2 7883   2.251   5.370   2.568
 2626TIP3    H1 7884   2.230   5.411   2.652
 2626TIP3    H2 7885   2.344   5.348   2.575
 2627TIP3   OH2 7886   6.200   4.291   4.208
 2627TIP3    H1 7887   6.256   4.235   4.262
 2627TIP3    H2 7888   6.260   4.341   4.154
 2628TIP3   OH2 7889   1.400   1.318   4.217
 2628TIP3    H1 7890   1.375   1.233   4.253
 2628TIP3    H2 7891   1.327   1.376   4.239
 2629TIP3   OH2 7892   4.209   0.938   1.122
 2629TIP3    H1 7893   4.129   0.991   1.129
 2629TIP3    H2 7894   4.191   0.877   1.050
 2630TIP3   OH2 7895   4.870   0.624   3.575
 2630TIP3    H1 7896   4.892   0.532   3.558
 2630TIP3    H2 7897   4.946   0.659   3.621
 2631TIP3   OH2 7898   0.600   2.158   1.011
 2631TIP3    H1 7899   0.574   2.136   0.922
 2631TIP3    H2 7900   0.673   2.219   1.001
 2632TIP3   OH2 7901   4.399   1.775   1.401
 2632TIP3    H1 7902   4.491   1.762   1.375
 2632TIP3    H2 7903   4.365   1.686   1.411
 2633TIP3   OH2 7904   3.389   4.074   3.790
 2633TIP3    H1 7905   3.338   4.064   3.710
 2633TIP3    H2 7906   3.362   4.000   3.845
 2634TIP3   OH2 7907   2.416   0.527   4.934
 2634TIP3    H1 7908   2.398   0.493   4.846
 2634TIP3    H2 7909   2.439   0.619   4.920
 2635TIP3   OH2 7910   1.133   4.311   1.419
 2635TIP3    H1 7911   1.092   4.316   1.332
 2635TIP3    H2 7912   1.078   4.248   1.467
 2636TIP3   OH2 7913   5.880   4.117   1.476
 2636TIP3    H1 7914   5.789   4.142   1.462
 2636TIP3    H2 7915   5.908   4.168   1.552
 2637TIP3   OH2 7916   5.356   5.767   0.294
 2637TIP3    H1 7917   5.370   5.672   0.299
 2637TIP3    H2 7918   5.362   5.787   0.201
 2638TIP3   OH2 7919   1.655   1.259   3.362
 2638TIP3    H1 7920   1.678   1.245   3.454
 2638TIP3    H2 7921   1.559   1.255   3.361
 2639TIP3   OH2 7922   2.611   3.927   0.306
 2639TIP3    H1 7923   2.644   3.905   0.218
 2639TIP3    H2 7924   2.609   4.022   0.308
 2640TIP3   OH2 7925   3.990   2.783   0.385
 2640TIP3    H1 7926   4.038   2.847   0.437
 2640TIP3    H2 7927   4.002   2.700   0.431
 2641TIP3   OH2 7928   4.755   5.683   2.332
 2641TIP3    H1 7929   4.736   5.617   2.400
 2641TIP3    H2 7930   4.698   5.658   2.259
 2642TIP3   OH2 7931   6.019   3.014   1.623
 2642TIP3    H1 7932   5.982   2.974   1.544
 2642TIP3    H2 7933   5.968   2.976   1.695
 2643TIP3   OH2 7934   5.565   1.323   2.201
 2643TIP3    H1 7935   5.539   1.411   2.174
 2643TIP3    H2 7936   5.657   1.317   2.175
 2644TIP3   OH2 7937   1.638   3.438   3.800
 2644TIP3    H1 7938   1.579   3.447   3.874
 2644TIP3    H2 7939   1.685   3.356   3.816
 2645TIP3   OH2 7940   5.052   2.504   4.650
 2645TIP3    H1 7941   5.115   2.551   4.596
 2645TIP3    H2 7942   5.086   2.513   4.739
 2646TIP3   OH2 7943   2.203   1.447   4.927
 2646TIP3    H1 7944   2.225   1.476   4.838
 2646TIP3    H2 7945   2.272   1.384   4.948
 2647TIP3   OH2 7946   2.674   4.246   1.973
 2647TIP3    H1 7947   2.692   4.326   1.923
 2647TIP3    H2 7948   2.760   4.207   1.988
 2648TIP3   OH2 7949   3.722   0.062   2.114
 2648TIP3    H1 7950   3.792  -0.003   2.118
 2648TIP3    H2 7951   3.765   0.145   2.131
 2649TIP3   OH2 7952   2.731   3.630   2.257
 2649TIP3    H1 7953   2.673   3.586   2.318
 2649TIP3    H2 7954   2.814   3.584   2.265
 2650TIP3   OH2 7955   1.390   0.051   0.517
 2650TIP3    H1 7956   1.446   0.127   0.534
 2650TIP3    H2 7957   1.401   0.033   0.424
 2651TIP3   OH2 7958   1.389   5.480   3.452
 2651TIP3    H1 7959   1.408   5.398   3.407
 2651TIP3    H2 7960   1.401   5.460   3.545
 2652TIP3   OH2 7961   4.978   2.372   2.290
 2652TIP3    H1 7962   4.981   2.326   2.374
 2652TIP3    H2 7963   4.925   2.316   2.234
 2653TIP3   OH2 7964   3.820   3.938   4.881
 2653TIP3    H1 7965   3.844   4.028   4.858
 2653TIP3    H2 7966   3.844   3.886   4.804
 2654TIP3   OH2 7967   5.165   5.568   1.851
 2654TIP3    H1 7968   5.074   5.558   1.821
 2654TIP3    H2 7969   5.158   5.618   1.933
 2655TIP3   OH2 7970   0.144   2.767   5.073
 2655TIP3    H1 7971   0.179   2.828   5.009
 2655TIP3    H2 7972   0.051   2.791   5.081
 2656TIP3   OH2 7973   4.474   5.532   4.487
 2656TIP3    H1 7974   4.478   5.477   4.565
 2656TIP3    H2 7975   4.481   5.471   4.413
 2657TIP3   OH2 7976   0.206   5.406   1.604
 2657TIP3    H1 7977   0.241   5.473   1.664
 2657TIP3    H2 7978   0.135   5.451   1.557
 2658TIP3   OH2 7979   0.208   0.650   4.855
 2658TIP3    H1 7980   0.140   0.627   4.792
 2658TIP3    H2 7981   0.212   0.575   4.915
 2659TIP3   OH2 7982   4.868   0.012   3.503
 2659TIP3    H1 7983   4.933  -0.027   3.445
 2659TIP3    H2 7984   4.913   0.019   3.588
 2660TIP3   OH2 7985   4.015   3.769   2.796
 2660TIP3    H1 7986   4.089   3.823   2.823
 2660TIP3    H2 7987   3.969   3.823   2.731
 2661TIP3   OH2 7988   3.809   5.704   5.086
 2661TIP3    H1 7989   3.769   5.710   5.173
 2661TIP3    H2 7990   3.746   5.748   5.028
 2662TIP3   OH2 7991   4.476   3.981   0.330
 2662TIP3    H1 7992   4.463   4.066   0.288
 2662TIP3    H2 7993   4.564   3.954   0.303
 2663TIP3   OH2 7994   6.029   5.241   1.455
 2663TIP3    H1 7995   5.978   5.290   1.390
 2663TIP3    H2 7996   5.974   5.242   1.533
 2664TIP3   OH2 7997   2.368   5.500   1.271
 2664TIP3    H1 7998   2.369   5.466   1.361
 2664TIP3    H2 7999   2.459   5.526   1.255
 2665TIP3   OH2 8000   1.667   1.321   1.274
 2665TIP3    H1 8001   1.610   1.361   1.208
 2665TIP3    H2 8002   1.630   1.234   1.289
 2666TIP3   OH2 8003   4.398   4.490   0.528
 2666TIP3    H1 8004   4.378   4.424   0.594
 2666TIP3    H2 8005   4.414   4.440   0.448
 2667TIP3   OH2 8006   4.245   2.463   1.976
 2667TIP3    H1 8007   4.271   2.478   2.068
 2667TIP3    H2 8008   4.206   2.376   1.976
 2668TIP3   OH2 8009   1.100   1.234   0.893
 2668TIP3    H1 8010   1.193   1.256   0.882
 2668TIP3    H2 8011   1.099   1.174   0.967
 2669TIP3   OH2 8012   2.229   1.868   1.789
 2669TIP3    H1 8013   2.213   1.840   1.879
 2669TIP3    H2 8014   2.153   1.921   1.766
 2670TIP3   OH2 8015   3.339   1.511   3.065
 2670TIP3    H1 8016   3.268   1.451   3.043
 2670TIP3    H2 8017   3.365   1.486   3.154
 2671TIP3   OH2 8018   6.028   5.364   1.141
 2671TIP3    H1 8019   6.063   5.365   1.053
 2671TIP3    H2 8020   6.083   5.425   1.190
 2672TIP3   OH2 8021   0.736   3.831   3.192
 2672TIP3    H1 8022   0.820   3.804   3.228
 2672TIP3    H2 8023   0.759   3.895   3.124
 2673TIP3   OH2 8024   4.641   3.262   1.609
 2673TIP3    H1 8025   4.598   3.188   1.652
 2673TIP3    H2 8026   4.712   3.287   1.668
 2674TIP3   OH2 8027   3.079   2.329   2.269
 2674TIP3    H1 8028   3.099   2.293   2.356
 2674TIP3    H2 8029   3.038   2.256   2.222
 2675TIP3   OH2 8030   3.508   5.337   1.720
 2675TIP3    H1 8031   3.465   5.290   1.649
 2675TIP3    H2 8032   3.448   5.409   1.740
 2676TIP3   OH2 8033   4.349   3.759   5.001
 2676TIP3    H1 8034   4.306   3.779   4.918
 2676TIP3    H2 8035   4.311   3.676   5.029
 2677TIP3   OH2 8036   0.640   5.611   4.167
 2677TIP3    H1 8037   0.637   5.563   4.250
 2677TIP3    H2 8038   0.553   5.652   4.161
 2678TIP3   OH2 8039   2.811   2.321   3.734
 2678TIP3    H1 8040   2.781   2.272   3.810
 2678TIP3    H2 8041   2.882   2.375   3.767
 2679TIP3   OH2 8042   1.939   0.531   4.966
 2679TIP3    H1 8043   2.017   0.478   4.950
 2679TIP3    H2 8044   1.971   0.609   5.011
 2680TIP3   OH2 8045   4.608   3.050   2.148
 2680TIP3    H1 8046   4.642   3.125   2.099
 2680TIP3    H2 8047   4.669   3.038   2.221
 2681TIP3   OH2 8048   2.911   5.725   1.216
 2681TIP3    H1 8049   2.953   5.778   1.284
 2681TIP3    H2 8050   2.871   5.652   1.262
 2682TIP3   OH2 8051   5.699   0.308   2.061
 2682TIP3    H1 8052   5.755   0.288   2.136
 2682TIP3    H2 8053   5.610   0.288   2.091
 2683TIP3   OH2 8054   5.188   5.374   4.368
 2683TIP3    H1 8055   5.110   5.326   4.396
 2683TIP3    H2 8056   5.159   5.464   4.359
 2684TIP3   OH2 8057   3.033   1.471   3.844
 2684TIP3    H1 8058   3.015   1.488   3.751
 2684TIP3    H2 8059   3.069   1.554   3.876
 2685TIP3   OH2 8060   0.863   3.490   1.132
 2685TIP3    H1 8061   0.941   3.470   1.079
 2685TIP3    H2 8062   0.790   3.474   1.073
 2686TIP3   OH2 8063   1.631   4.833   4.399
 2686TIP3    H1 8064   1.668   4.921   4.403
 2686TIP3    H2 8065   1.539   4.846   4.377
 2687TIP3   OH2 8066   4.349   0.522   1.775
 2687TIP3    H1 8067   4.346   0.480   1.861
 2687TIP3    H2 8068   4.430   0.490   1.735
 2688TIP3   OH2 8069   3.330   4.999   2.830
 2688TIP3    H1 8070   3.373   4.957   2.755
 2688TIP3    H2 8071   3.317   5.090   2.801
 2689TIP3   OH2 8072   4.645   4.217   0.584
 2689TIP3    H1 8073   4.717   4.279   0.585
 2689TIP3    H2 8074   4.626   4.202   0.491
 2690TIP3   OH2 8075   0.738   5.697   4.988
 2690TIP3    H1 8076   0.775   5.772   5.035
 2690TIP3    H2 8077   0.802   5.627   5.001
 2691TIP3   OH2 8078   5.465   3.534   3.138
 2691TIP3    H1 8079   5.398   3.483   3.093
 2691TIP3    H2 8080   5.449   3.624   3.111
 2692TIP3   OH2 8081   2.299   2.098   0.015
 2692TIP3    H1 8082   2.360   2.089   0.088
 2692TIP3    H2 8083   2.271   2.009  -0.004
 2693TIP3   OH2 8084   4.761   3.549   1.583
 2693TIP3    H1 8085   4.725   3.619   1.529
 2693TIP3    H2 8086   4.853   3.542   1.554
 2694TIP3   OH2 8087   3.659   4.774   0.755
 2694TIP3    H1 8088   3.751   4.776   0.729
 2694TIP3    H2 8089   3.611   4.783   0.673
 2695TIP3   OH2 8090   2.039   4.897   4.598
 2695TIP3    H1 8091   2.006   4.819   4.643
 2695TIP3    H2 8092   2.128   4.874   4.572
 2696TIP3   OH2 8093   6.190   0.419   2.142
 2696TIP3    H1 8094   6.223   0.445   2.056
 2696TIP3    H2 8095   6.269   0.412   2.197
 2697TIP3   OH2 8096   0.808   0.673   2.395
 2697TIP3    H1 8097   0.860   0.739   2.348
 2697TIP3    H2 8098   0.823   0.692   2.488
 2698TIP3   OH2 8099   2.254   1.988   1.549
 2698TIP3    H1 8100   2.260   1.931   1.625
 2698TIP3    H2 8101   2.160   1.995   1.532
 2699TIP3   OH2 8102   3.728   3.544   2.091
 2699TIP3    H1 8103   3.785   3.472   2.064
 2699TIP3    H2 8104   3.646   3.529   2.042
 2700TIP3   OH2 8105   4.693   5.148   1.108
 2700TIP3    H1 8106   4.706   5.243   1.111
 2700TIP3    H2 8107   4.598   5.136   1.115
 2701TIP3   OH2 8108   4.458   1.482   3.093
 2701TIP3    H1 8109   4.508   1.525   3.162
 2701TIP3    H2 8110   4.388   1.436   3.139
 2702TIP3   OH2 8111   5.646   2.842   3.190
 2702TIP3    H1 8112   5.693   2.922   3.166
 2702TIP3    H2 8113   5.711   2.788   3.236
 2703TIP3   OH2 8114   1.924   3.754   4.468
 2703TIP3    H1 8115   1.889   3.754   4.379
 2703TIP3    H2 8116   1.850   3.727   4.522
 2704TIP3   OH2 8117   1.025   0.933   4.853
 2704TIP3    H1 8118   1.016   1.003   4.788
 2704TIP3    H2 8119   0.959   0.954   4.920
 2705TIP3   OH2 8120   3.077   2.493   1.742
 2705TIP3    H1 8121   3.109   2.487   1.832
 2705TIP3    H2 8122   3.018   2.568   1.742
 2706TIP3   OH2 8123   5.223   5.691   3.116
 2706TIP3    H1 8124   5.170   5.611   3.118
 2706TIP3    H2 8125   5.187   5.742   3.043
 2707TIP3   OH2 8126   1.030   3.622   4.159
 2707TIP3    H1 8127   1.104   3.670   4.196
 2707TIP3    H2 8128   1.070   3.552   4.107
 2708TIP3   OH2 8129   1.346   3.265   0.804
 2708TIP3    H1 8130   1.357   3.174   0.829
 2708TIP3    H2 8131   1.263   3.291   0.843
 2709TIP3   OH2 8132   5.399   1.050   0.857
 2709TIP3    H1 8133   5.433   0.973   0.812
 2709TIP3    H2 8134   5.315   1.068   0.813
 2710TIP3   OH2 8135   2.942   3.290   3.408
 2710TIP3    H1 8136   2.973   3.232   3.478
 2710TIP3    H2 8137   2.878   3.236   3.360
 2711TIP3   OH2 8138   6.127   5.125   1.724
 2711TIP3    H1 8139   6.156   5.042   1.686
 2711TIP3    H2 8140   6.201   5.184   1.712
 2712TIP3   OH2 8141   0.882   4.239   1.091
 2712TIP3    H1 8142   0.833   4.320   1.104
 2712TIP3    H2 8143   0.871   4.191   1.174
 2713TIP3   OH2 8144   1.146   0.127   3.566
 2713TIP3    H1 8145   1.218   0.188   3.548
 2713TIP3    H2 8146   1.067   0.179   3.554
 2714TIP3   OH2 8147   2.333   5.143   4.314
 2714TIP3    H1 8148   2.241   5.121   4.328
 2714TIP3    H2 8149   2.345   5.227   4.356
 2715TIP3   OH2 8150   2.726   5.442   3.011
 2715TIP3    H1 8151   2.685   5.366   3.051
 2715TIP3    H2 8152   2.816   5.441   3.045
 2716TIP3   OH2 8153   0.600   0.876   3.033
 2716TIP3    H1 8154   0.580   0.949   2.973
 2716TIP3    H2 8155   0.694   0.885   3.050
 2717TIP3   OH2 8156   1.019   4.862   0.561
 2717TIP3    H1 8157   0.952   4.897   0.502
 2717TIP3    H2 8158   0.979   4.783   0.598
 2718TIP3   OH2 8159   2.103   1.242   1.040
 2718TIP3    H1 8160   2.065   1.170   1.090
 2718TIP3    H2 8161   2.163   1.285   1.100
 2719TIP3   OH2 8162   3.866   0.262   1.185
 2719TIP3    H1 8163   3.887   0.279   1.277
 2719TIP3    H2 8164   3.946   0.283   1.138
 2720TIP3   OH2 8165   0.473   3.389   1.826
 2720TIP3    H1 8166   0.513   3.327   1.764
 2720TIP3    H2 8167   0.460   3.469   1.775
 2721TIP3   OH2 8168   1.321   1.585   0.724
 2721TIP3    H1 8169   1.357   1.645   0.789
 2721TIP3    H2 8170   1.240   1.552   0.763
 2722TIP3   OH2 8171   1.407   3.867   2.210
 2722TIP3    H1 8172   1.500   3.868   2.229
 2722TIP3    H2 8173   1.378   3.780   2.234
 2723TIP3   OH2 8174   4.185   0.969   2.383
 2723TIP3    H1 8175   4.189   0.973   2.479
 2723TIP3    H2 8176   4.232   1.047   2.354
 2724TIP3   OH2 8177   0.229   3.018   3.168
 2724TIP3    H1 8178   0.210   2.975   3.251
 2724TIP3    H2 8179   0.214   3.111   3.186
 2725TIP3   OH2 8180   3.699   3.680   2.349
 2725TIP3    H1 8181   3.688   3.769   2.316
 2725TIP3    H2 8182   3.712   3.627   2.270
 2726TIP3   OH2 8183   1.930   5.249   0.381
 2726TIP3    H1 8184   1.867   5.315   0.410
 2726TIP3    H2 8185   1.944   5.194   0.458
 2727TIP3   OH2 8186   0.472   2.852   0.590
 2727TIP3    H1 8187   0.476   2.840   0.685
 2727TIP3    H2 8188   0.486   2.945   0.577
 2728TIP3   OH2 8189   2.991   3.173   1.827
 2728TIP3    H1 8190   2.955   3.093   1.791
 2728TIP3    H2 8191   2.970   3.241   1.763
 2729TIP3   OH2 8192   3.272   2.383   3.877
 2729TIP3    H1 8193   3.291   2.408   3.968
 2729TIP3    H2 8194   3.298   2.292   3.871
 2730TIP3   OH2 8195   5.241   5.783   1.487
 2730TIP3    H1 8196   5.207   5.711   1.433
 2730TIP3    H2 8197   5.336   5.773   1.483
 2731TIP3   OH2 8198   1.349   0.066   2.744
 2731TIP3    H1 8199   1.362   0.077   2.650
 2731TIP3    H2 8200   1.329   0.155   2.776
 2732TIP3   OH2 8201   2.869   2.018   2.256
 2732TIP3    H1 8202   2.847   2.073   2.181
 2732TIP3    H2 8203   2.923   1.948   2.220
 2733TIP3   OH2 8204   4.181   0.589   4.749
 2733TIP3    H1 8205   4.239   0.542   4.809
 2733TIP3    H2 8206   4.137   0.521   4.699
 2734TIP3   OH2 8207   2.120   5.018   3.694
 2734TIP3    H1 8208   2.160   5.064   3.620
 2734TIP3    H2 8209   2.194   4.997   3.751
 2735TIP3   OH2 8210   3.999   1.477   4.064
 2735TIP3    H1 8211   3.919   1.429   4.083
 2735TIP3    H2 8212   3.981   1.524   3.983
 2736TIP3   OH2 8213   1.175   5.954   3.813
 2736TIP3    H1 8214   1.178   5.873   3.864
 2736TIP3    H2 8215   1.221   6.018   3.868
 2737TIP3   OH2 8216   0.116   1.639   4.172
 2737TIP3    H1 8217   0.108   1.646   4.077
 2737TIP3    H2 8218   0.030   1.609   4.202
 2738TIP3   OH2 8219   4.619   4.490   3.031
 2738TIP3    H1 8220   4.679   4.520   3.099
 2738TIP3    H2 8221   4.667   4.421   2.986
 2739TIP3   OH2 8222   1.050   5.126   5.027
 2739TIP3    H1 8223   1.018   5.151   4.940
 2739TIP3    H2 8224   0.972   5.130   5.082
 2740TIP3   OH2 8225   5.802   5.313   1.266
 2740TIP3    H1 8226   5.795   5.221   1.241
 2740TIP3    H2 8227   5.871   5.348   1.210
 2741TIP3   OH2 8228   2.628   0.199   1.669
 2741TIP3    H1 8229   2.577   0.267   1.626
 2741TIP3    H2 8230   2.591   0.194   1.757
 2742TIP3   OH2 8231   1.909   1.544   4.211
 2742TIP3    H1 8232   1.833   1.486   4.218
 2742TIP3    H2 8233   1.983   1.484   4.198
 2743TIP3   OH2 8234   1.721   3.302   4.163
 2743TIP3    H1 8235   1.744   3.302   4.256
 2743TIP3    H2 8236   1.792   3.349   4.120
 2744TIP3   OH2 8237   3.196   2.264   4.177
 2744TIP3    H1 8238   3.266   2.326   4.155
 2744TIP3    H2 8239   3.200   2.198   4.108
 2745TIP3   OH2 8240   6.307   0.777   2.342
 2745TIP3    H1 8241   6.261   0.812   2.265
 2745TIP3    H2 8242   6.283   0.836   2.413
 2746TIP3   OH2 8243   1.284   0.425   0.412
 2746TIP3    H1 8244   1.242   0.448   0.329
 2746TIP3    H2 8245   1.376   0.410   0.389
 2747TIP3   OH2 8246   2.860   3.015   2.048
 2747TIP3    H1 8247   2.916   2.938   2.050
 2747TIP3    H2 8248   2.873   3.052   1.961
 2748TIP3   OH2 8249   0.327   1.510   4.053
 2748TIP3    H1 8250   0.265   1.533   4.121
 2748TIP3    H2 8251   0.403   1.475   4.100
 2749TIP3   OH2 8252   1.107   5.718   3.934
 2749TIP3    H1 8253   1.031   5.713   3.993
 2749TIP3    H2 8254   1.179   5.680   3.985
 2750TIP3   OH2 8255   1.704   3.033   1.143
 2750TIP3    H1 8256   1.685   3.124   1.120
 2750TIP3    H2 8257   1.647   3.014   1.217
 2751TIP3   OH2 8258   4.782   1.676   3.778
 2751TIP3    H1 8259   4.768   1.708   3.689
 2751TIP3    H2 8260   4.875   1.651   3.780
 2752TIP3   OH2 8261   3.455   0.209   0.070
 2752TIP3    H1 8262   3.389   0.247   0.012
 2752TIP3    H2 8263   3.532   0.196   0.015
 2753TIP3   OH2 8264   2.231   3.613   2.939
 2753TIP3    H1 8265   2.224   3.617   3.035
 2753TIP3    H2 8266   2.282   3.534   2.922
 2754TIP3   OH2 8267   3.441   2.593   3.333
 2754TIP3    H1 8268   3.432   2.545   3.415
 2754TIP3    H2 8269   3.494   2.535   3.277
 2755TIP3   OH2 8270   5.818   4.731   4.712
 2755TIP3    H1 8271   5.913   4.741   4.699
 2755TIP3    H2 8272   5.794   4.803   4.770
 2756TIP3   OH2 8273   0.676   0.474   4.788
 2756TIP3    H1 8274   0.726   0.554   4.799
 2756TIP3    H2 8275   0.598   0.501   4.738
 2757TIP3   OH2 8276   5.677   0.624   3.817
 2757TIP3    H1 8277   5.642   0.562   3.880
 2757TIP3    H2 8278   5.764   0.646   3.851
 2758TIP3   OH2 8279   3.050   0.358   0.202
 2758TIP3    H1 8280   3.016   0.270   0.189
 2758TIP3    H2 8281   3.113   0.349   0.274
 2759TIP3   OH2 8282   2.521   5.417   4.013
 2759TIP3    H1 8283   2.544   5.348   4.076
 2759TIP3    H2 8284   2.567   5.495   4.045
 2760TIP3   OH2 8285   5.769   3.400   2.282
 2760TIP3    H1 8286   5.691   3.411   2.229
 2760TIP3    H2 8287   5.758   3.463   2.354
 2761TIP3   OH2 8288   0.489   5.781   3.859
 2761TIP3    H1 8289   0.478   5.705   3.802
 2761TIP3    H2 8290   0.578   5.812   3.843
 2762TIP3   OH2 8291   3.117   2.187   0.626
 2762TIP3    H1 8292   3.044   2.227   0.674
 2762TIP3    H2 8293   3.165   2.138   0.692
 2763TIP3   OH2 8294   3.974   4.476   5.050
 2763TIP3    H1 8295   4.033   4.522   5.109
 2763TIP3    H2 8296   3.954   4.394   5.096
 2764TIP3   OH2 8297   3.550   2.637   0.967
 2764TIP3    H1 8298   3.477   2.586   0.930
 2764TIP3    H2 8299   3.629   2.591   0.938
 2765TIP3   OH2 8300   5.873   5.577   0.052
 2765TIP3    H1 8301   5.819   5.503   0.022
 2765TIP3    H2 8302   5.900   5.620  -0.029
 2766TIP3   OH2 8303   2.286   5.091   5.094
 2766TIP3    H1 8304   2.323   5.125   5.176
 2766TIP3    H2 8305   2.245   5.008   5.119
 2767TIP3   OH2 8306   1.586   5.996   1.383
 2767TIP3    H1 8307   1.562   5.934   1.315
 2767TIP3    H2 8308   1.614   5.942   1.456
 2768TIP3   OH2 8309   5.913   0.688   3.925
 2768TIP3    H1 8310   5.944   0.611   3.877
 2768TIP3    H2 8311   5.981   0.754   3.911
 2769TIP3   OH2 8312   3.450   5.188   0.603
 2769TIP3    H1 8313   3.376   5.241   0.572
 2769TIP3    H2 8314   3.412   5.130   0.669
 2770TIP3   OH2 8315   3.304   1.512   1.937
 2770TIP3    H1 8316   3.340   1.426   1.917
 2770TIP3    H2 8317   3.246   1.497   2.012
 2771TIP3   OH2 8318   1.947   2.501   2.750
 2771TIP3    H1 8319   1.964   2.421   2.701
 2771TIP3    H2 8320   1.868   2.482   2.800
 2772TIP3   OH2 8321   5.808   3.679   2.415
 2772TIP3    H1 8322   5.889   3.633   2.393
 2772TIP3    H2 8323   5.835   3.751   2.472
 2773TIP3   OH2 8324   2.498   5.262   0.093
 2773TIP3    H1 8325   2.572   5.249   0.035
 2773TIP3    H2 8326   2.459   5.175   0.103
 2774TIP3   OH2 8327   2.263   2.393   0.817
 2774TIP3    H1 8328   2.345   2.413   0.772
 2774TIP3    H2 8329   2.284   2.400   0.910
 2775TIP3   OH2 8330   4.182   5.098   2.142
 2775TIP3    H1 8331   4.195   5.031   2.208
 2775TIP3    H2 8332   4.158   5.050   2.062
 2776TIP3   OH2 8333   3.058   5.773   1.476
 2776TIP3    H1 8334   3.000   5.704   1.511
 2776TIP3    H2 8335   3.027   5.853   1.518
 2777TIP3   OH2 8336   1.228   4.770   2.330
 2777TIP3    H1 8337   1.150   4.827   2.327
 2777TIP3    H2 8338   1.211   4.703   2.263
 2778TIP3   OH2 8339   2.734   2.074   0.301
 2778TIP3    H1 8340   2.817   2.026   0.298
 2778TIP3    H2 8341   2.669   2.011   0.272
 2779TIP3   OH2 8342   4.726   4.878   3.716
 2779TIP3    H1 8343   4.643   4.830   3.713
 2779TIP3    H2 8344   4.775   4.836   3.787
 2780TIP3   OH2 8345   0.868   4.677   3.692
 2780TIP3    H1 8346   0.937   4.721   3.741
 2780TIP3    H2 8347   0.901   4.672   3.602
 2781TIP3   OH2 8348   4.836   4.669   0.594
 2781TIP3    H1 8349   4.834   4.614   0.515
 2781TIP3    H2 8350   4.876   4.613   0.660
 2782TIP3   OH2 8351   4.641   2.193   0.099
 2782TIP3    H1 8352   4.650   2.239   0.015
 2782TIP3    H2 8353   4.604   2.107   0.075
 2783TIP3   OH2 8354   3.764   3.589   1.496
 2783TIP3    H1 8355   3.761   3.675   1.537
 2783TIP3    H2 8356   3.809   3.533   1.560
 2784TIP3   OH2 8357   4.411   3.834   3.623
 2784TIP3    H1 8358   4.422   3.740   3.605
 2784TIP3    H2 8359   4.475   3.876   3.566
 2785TIP3   OH2 8360   4.168   3.775   0.665
 2785TIP3    H1 8361   4.233   3.769   0.595
 2785TIP3    H2 8362   4.083   3.773   0.621
 2786TIP3   OH2 8363   2.475   3.572   5.091
 2786TIP3    H1 8364   2.494   3.529   5.174
 2786TIP3    H2 8365   2.545   3.636   5.080
 2787TIP3   OH2 8366   0.813   4.363   2.274
 2787TIP3    H1 8367   0.837   4.432   2.213
 2787TIP3    H2 8368   0.835   4.282   2.229
 2788TIP3   OH2 8369   2.415   5.694   3.753
 2788TIP3    H1 8370   2.472   5.649   3.691
 2788TIP3    H2 8371   2.415   5.785   3.724
 2789TIP3   OH2 8372   4.148   5.512   2.800
 2789TIP3    H1 8373   4.197   5.589   2.829
 2789TIP3    H2 8374   4.141   5.457   2.878
 2790TIP3   OH2 8375   5.138   5.032   4.979
 2790TIP3    H1 8376   5.070   5.041   5.046
 2790TIP3    H2 8377   5.113   4.954   4.929
 2791TIP3   OH2 8378   3.398   0.631   2.664
 2791TIP3    H1 8379   3.466   0.659   2.726
 2791TIP3    H2 8380   3.322   0.685   2.685
 2792TIP3   OH2 8381   6.060   1.335   1.904
 2792TIP3    H1 8382   6.092   1.275   1.837
 2792TIP3    H2 8383   6.010   1.279   1.964
 2793TIP3   OH2 8384   3.418   1.435   3.321
 2793TIP3    H1 8385   3.404   1.528   3.341
 2793TIP3    H2 8386   3.436   1.395   3.406
 2794TIP3   OH2 8387   5.931   1.148   0.221
 2794TIP3    H1 8388   5.981   1.225   0.249
 2794TIP3    H2 8389   5.990   1.074   0.235
 2795TIP3   OH2 8390   2.922   2.995   4.207
 2795TIP3    H1 8391   2.908   2.900   4.203
 2795TIP3    H2 8392   2.985   3.013   4.137
 2796TIP3   OH2 8393   0.976   0.254   2.264
 2796TIP3    H1 8394   0.984   0.329   2.204
 2796TIP3    H2 8395   0.945   0.292   2.346
 2797TIP3   OH2 8396   2.475   2.742   1.275
 2797TIP3    H1 8397   2.431   2.770   1.355
 2797TIP3    H2 8398   2.407   2.693   1.227
 2798TIP3   OH2 8399   5.452   2.330   2.321
 2798TIP3    H1 8400   5.421   2.245   2.354
 2798TIP3    H2 8401   5.530   2.309   2.270
 2799TIP3   OH2 8402   6.216   2.101   2.739
 2799TIP3    H1 8403   6.167   2.023   2.713
 2799TIP3    H2 8404   6.299   2.067   2.774
 2800TIP3   OH2 8405   0.192   4.930   4.767
 2800TIP3    H1 8406   0.208   4.933   4.673
 2800TIP3    H2 8407   0.139   4.851   4.780
 2801TIP3   OH2 8408   3.143   1.779   3.118
 2801TIP3    H1 8409   3.103   1.843   3.177
 2801TIP3    H2 8410   3.179   1.832   3.047
 2802TIP3   OH2 8411   2.298   1.439   1.452
 2802TIP3    H1 8412   2.377   1.393   1.481
 2802TIP3    H2 8413   2.330   1.516   1.405
 2803TIP3   OH2 8414   6.287   3.399   2.287
 2803TIP3    H1 8415   6.291   3.369   2.378
 2803TIP3    H2 8416   6.328   3.485   2.288
 2804TIP3   OH2 8417   1.110   2.821   1.000
 2804TIP3    H1 8418   1.167   2.864   0.936
 2804TIP3    H2 8419   1.025   2.862   0.987
 2805TIP3   OH2 8420   3.595   5.441   0.640
 2805TIP3    H1 8421   3.578   5.349   0.659
 2805TIP3    H2 8422   3.510   5.475   0.610
 2806TIP3   OH2 8423   6.123   1.984   2.049
 2806TIP3    H1 8424   6.120   2.065   2.100
 2806TIP3    H2 8425   6.200   1.993   1.994
 2807TIP3   OH2 8426   5.907   4.207   0.369
 2807TIP3    H1 8427   5.982   4.263   0.347
 2807TIP3    H2 8428   5.906   4.206   0.465
 2808TIP3   OH2 8429   0.188   2.526   1.905
 2808TIP3    H1 8430   0.249   2.591   1.937
 2808TIP3    H2 8431   0.146   2.567   1.830
 2809TIP3   OH2 8432   1.009   5.315   2.956
 2809TIP3    H1 8433   1.089   5.305   2.905
 2809TIP3    H2 8434   1.012   5.404   2.990
 2810TIP3   OH2 8435   5.211   3.115   5.123
 2810TIP3    H1 8436   5.258   3.190   5.086
 2810TIP3    H2 8437   5.121   3.125   5.090
 2811TIP3   OH2 8438   1.988   1.379   3.745
 2811TIP3    H1 8439   2.080   1.407   3.751
 2811TIP3    H2 8440   1.955   1.424   3.667
 2812TIP3   OH2 8441   4.721   4.769   0.294
 2812TIP3    H1 8442   4.708   4.863   0.307
 2812TIP3    H2 8443   4.642   4.728   0.328
 2813TIP3   OH2 8444   5.351   2.033   2.946
 2813TIP3    H1 8445   5.382   2.030   3.037
 2813TIP3    H2 8446   5.424   1.997   2.895
 2814TIP3   OH2 8447   5.395   1.945   4.134
 2814TIP3    H1 8448   5.300   1.928   4.134
 2814TIP3    H2 8449   5.418   1.951   4.041
 2815TIP3   OH2 8450   2.780   0.776   2.878
 2815TIP3    H1 8451   2.851   0.748   2.936
 2815TIP3    H2 8452   2.709   0.801   2.937
 2816TIP3   OH2 8453   4.660   0.146   0.735
 2816TIP3    H1 8454   4.667   0.120   0.827
 2816TIP3    H2 8455   4.591   0.213   0.735
 2817TIP3   OH2 8456   1.005   4.494   2.642
 2817TIP3    H1 8457   0.971   4.542   2.718
 2817TIP3    H2 8458   0.987   4.551   2.568
 2818TIP3   OH2 8459   5.245   1.793   4.426
 2818TIP3    H1 8460   5.298   1.844   4.487
 2818TIP3    H2 8461   5.165   1.844   4.415
 2819TIP3   OH2 8462   6.289   3.761   4.776
 2819TIP3    H1 8463   6.350   3.788   4.846
 2819TIP3    H2 8464   6.224   3.831   4.773
 2820TIP3   OH2 8465   0.934   1.686   1.083
 2820TIP3    H1 8466   0.892   1.691   1.169
 2820TIP3    H2 8467   0.877   1.628   1.032
 2821TIP3   OH2 8468   2.048   2.340   0.112
 2821TIP3    H1 8469   2.024   2.248   0.103
 2821TIP3    H2 8470   1.965   2.384   0.133
 2822TIP3   OH2 8471   5.338   2.783   3.237
 2822TIP3    H1 8472   5.317   2.832   3.158
 2822TIP3    H2 8473   5.434   2.779   3.239
 2823TIP3   OH2 8474   2.452   5.274   3.050
 2823TIP3    H1 8475   2.418   5.332   3.118
 2823TIP3    H2 8476   2.376   5.252   2.996
 2824TIP3   OH2 8477   6.175   5.034   1.276
 2824TIP3    H1 8478   6.088   5.072   1.288
 2824TIP3    H2 8479   6.224   5.063   1.353
 2825TIP3   OH2 8480   3.255   5.006   4.875
 2825TIP3    H1 8481   3.163   5.029   4.890
 2825TIP3    H2 8482   3.293   5.086   4.838
 2826TIP3   OH2 8483   6.234   0.113   2.656
 2826TIP3    H1 8484   6.253   0.052   2.584
 2826TIP3    H2 8485   6.138   0.123   2.654
 2827TIP3   OH2 8486   4.370   5.871   3.194
 2827TIP3    H1 8487   4.302   5.827   3.143
 2827TIP3    H2 8488   4.403   5.804   3.253
 2828TIP3   OH2 8489   3.123   3.894   1.966
 2828TIP3    H1 8490   3.129   3.803   1.940
 2828TIP3    H2 8491   3.144   3.894   2.060
 2829TIP3   OH2 8492   0.038   2.350   1.084
 2829TIP3    H1 8493   0.000   2.285   1.143
 2829TIP3    H2 8494   0.094   2.299   1.026
 2830TIP3   OH2 8495   3.782   2.331   0.434
 2830TIP3    H1 8496   3.805   2.401   0.372
 2830TIP3    H2 8497   3.727   2.375   0.499
 2831TIP3   OH2 8498   4.041   2.361   1.479
 2831TIP3    H1 8499   4.030   2.346   1.573
 2831TIP3    H2 8500   4.117   2.418   1.472
 2832TIP3   OH2 8501   6.300   1.559   0.327
 2832TIP3    H1 8502   6.223   1.546   0.383
 2832TIP3    H2 8503   6.289   1.647   0.291
 2833TIP3   OH2 8504   0.750   2.099   3.017
 2833TIP3    H1 8505   0.814   2.062   3.078
 2833TIP3    H2 8506   0.789   2.087   2.931
 2834TIP3   OH2 8507   1.708   2.567   4.777
 2834TIP3    H1 8508   1.620   2.532   4.758
 2834TIP3    H2 8509   1.714   2.646   4.723
 2835TIP3   OH2 8510   3.808   4.871   1.552
 2835TIP3    H1 8511   3.896   4.834   1.557
 2835TIP3    H2 8512   3.817   4.959   1.588
 2836TIP3   OH2 8513   1.853   1.176   2.160
 2836TIP3    H1 8514   1.917   1.233   2.203
 2836TIP3    H2 8515   1.775   1.184   2.215
 2837TIP3   OH2 8516   0.839   2.172   0.047
 2837TIP3    H1 8517   0.793   2.094   0.079
 2837TIP3    H2 8518   0.838   2.232   0.122
 2838TIP3   OH2 8519   4.040   5.247   1.172
 2838TIP3    H1 8520   4.028   5.198   1.253
 2838TIP3    H2 8521   3.951   5.275   1.148
 2839TIP3   OH2 8522   5.840   5.886   3.068
 2839TIP3    H1 8523   5.869   5.795   3.057
 2839TIP3    H2 8524   5.745   5.880   3.080
 2840TIP3   OH2 8525   2.502   0.792   4.882
 2840TIP3    H1 8526   2.572   0.831   4.935
 2840TIP3    H2 8527   2.432   0.858   4.883
 2841TIP3   OH2 8528   1.940   5.367   1.953
 2841TIP3    H1 8529   2.004   5.331   1.892
 2841TIP3    H2 8530   1.935   5.302   2.024
 2842TIP3   OH2 8531   1.920   5.947   0.356
 2842TIP3    H1 8532   1.971   5.914   0.282
 2842TIP3    H2 8533   1.920   5.874   0.419
 2843TIP3   OH2 8534   2.379   2.291   4.695
 2843TIP3    H1 8535   2.315   2.294   4.624
 2843TIP3    H2 8536   2.357   2.365   4.751
 2844TIP3   OH2 8537   6.093   5.309   2.496
 2844TIP3    H1 8538   6.117   5.281   2.408
 2844TIP3    H2 8539   6.002   5.337   2.488
 2845TIP3   OH2 8540   1.315   3.016   4.652
 2845TIP3    H1 8541   1.309   3.001   4.558
 2845TIP3    H2 8542   1.409   3.021   4.670
 2846TIP3   OH2 8543   0.560   4.964   4.887
 2846TIP3    H1 8544   0.479   5.000   4.924
 2846TIP3    H2 8545   0.541   4.951   4.794
 2847TIP3   OH2 8546   3.687   0.332   0.522
 2847TIP3    H1 8547   3.608   0.313   0.471
 2847TIP3    H2 8548   3.750   0.266   0.493
 2848TIP3   OH2 8549   2.263   2.716   1.123
 2848TIP3    H1 8550   2.219   2.680   1.200
 2848TIP3    H2 8551   2.215   2.796   1.103
 2849TIP3   OH2 8552   2.644   4.122   5.186
 2849TIP3    H1 8553   2.624   4.121   5.092
 2849TIP3    H2 8554   2.561   4.147   5.228
 2850TIP3   OH2 8555   2.166   1.253   1.988
 2850TIP3    H1 8556   2.231   1.301   1.937
 2850TIP3    H2 8557   2.082   1.277   1.949
 2851TIP3   OH2 8558   0.167   2.926   3.419
 2851TIP3    H1 8559   0.160   2.842   3.373
 2851TIP3    H2 8560   0.227   2.909   3.491
 2852TIP3   OH2 8561   2.032   3.210   1.497
 2852TIP3    H1 8562   2.046   3.117   1.515
 2852TIP3    H2 8563   1.966   3.237   1.561
 2853TIP3   OH2 8564   0.465   4.933   2.775
 2853TIP3    H1 8565   0.467   5.027   2.793
 2853TIP3    H2 8566   0.487   4.925   2.682
 2854TIP3   OH2 8567   2.221   0.879   1.574
 2854TIP3    H1 8568   2.132   0.902   1.547
 2854TIP3    H2 8569   2.208   0.811   1.641
 2855TIP3   OH2 8570   3.222   0.878   1.366
 2855TIP3    H1 8571   3.156   0.943   1.339
 2855TIP3    H2 8572   3.184   0.835   1.442
 2856TIP3   OH2 8573   3.780   3.546   4.245
 2856TIP3    H1 8574   3.837   3.604   4.193
 2856TIP3    H2 8575   3.692   3.562   4.211
 2857TIP3   OH2 8576   4.590   3.142   1.067
 2857TIP3    H1 8577   4.526   3.206   1.097
 2857TIP3    H2 8578   4.562   3.119   0.979
 2858TIP3   OH2 8579   4.244   1.557   4.152
 2858TIP3    H1 8580   4.247   1.502   4.230
 2858TIP3    H2 8581   4.169   1.523   4.102
 2859TIP3   OH2 8582   2.019   0.045   0.329
 2859TIP3    H1 8583   2.102   0.019   0.290
 2859TIP3    H2 8584   1.981  -0.036   0.362
 2860TIP3   OH2 8585   3.207   0.755   4.667
 2860TIP3    H1 8586   3.263   0.688   4.628
 2860TIP3    H2 8587   3.229   0.754   4.760
 2861TIP3   OH2 8588   0.481   3.289   5.045
 2861TIP3    H1 8589   0.531   3.324   5.119
 2861TIP3    H2 8590   0.529   3.319   4.967
 2862TIP3   OH2 8591   2.071   4.411   0.481
 2862TIP3    H1 8592   2.138   4.438   0.543
 2862TIP3    H2 8593   2.003   4.478   0.489
 2863TIP3   OH2 8594   0.845   2.450   4.914
 2863TIP3    H1 8595   0.805   2.471   4.830
 2863TIP3    H2 8596   0.933   2.418   4.892
 2864TIP3   OH2 8597   1.151   3.535   0.267
 2864TIP3    H1 8598   1.245   3.519   0.267
 2864TIP3    H2 8599   1.142   3.627   0.243
 2865TIP3   OH2 8600   6.384   0.888   3.629
 2865TIP3    H1 8601   6.357   0.976   3.603
 2865TIP3    H2 8602   6.303   0.838   3.635
 2866TIP3   OH2 8603   1.832   4.748   1.029
 2866TIP3    H1 8604   1.818   4.705   0.945
 2866TIP3    H2 8605   1.881   4.684   1.081
 2867TIP3   OH2 8606   4.316   2.642   4.095
 2867TIP3    H1 8607   4.395   2.697   4.103
 2867TIP3    H2 8608   4.288   2.628   4.185
 2868TIP3   OH2 8609   3.323   5.013   3.110
 2868TIP3    H1 8610   3.404   4.979   3.147
 2868TIP3    H2 8611   3.333   5.001   3.015
 2869TIP3   OH2 8612   1.085   5.282   2.379
 2869TIP3    H1 8613   1.041   5.321   2.454
 2869TIP3    H2 8614   1.071   5.344   2.308
 2870TIP3   OH2 8615   1.931   4.858   2.198
 2870TIP3    H1 8616   1.985   4.852   2.119
 2870TIP3    H2 8617   1.994   4.876   2.268
 2871TIP3   OH2 8618  -0.043   0.247   4.332
 2871TIP3    H1 8619  -0.042   0.332   4.287
 2871TIP3    H2 8620   0.027   0.254   4.397
 2872TIP3   OH2 8621   0.389   1.329   1.351
 2872TIP3    H1 8622   0.328   1.371   1.291
 2872TIP3    H2 8623   0.338   1.261   1.395
 2873TIP3   OH2 8624   1.647   2.035   0.631
 2873TIP3    H1 8625   1.709   2.071   0.694
 2873TIP3    H2 8626   1.701   2.010   0.556
 2874TIP3   OH2 8627   1.121   4.550   4.972
 2874TIP3    H1 8628   1.107   4.476   4.913
 2874TIP3    H2 8629   1.172   4.612   4.919
 2875TIP3   OH2 8630   1.177   4.053   4.223
 2875TIP3    H1 8631   1.116   4.006   4.166
 2875TIP3    H2 8632   1.136   4.139   4.236
 2876TIP3   OH2 8633   2.068   3.347   3.487
 2876TIP3    H1 8634   2.043   3.300   3.567
 2876TIP3    H2 8635   2.086   3.436   3.517
 2877TIP3   OH2 8636   6.141   1.101   4.887
 2877TIP3    H1 8637   6.229   1.100   4.926
 2877TIP3    H2 8638   6.139   1.180   4.833
 2878TIP3   OH2 8639   0.226   0.381   2.591
 2878TIP3    H1 8640   0.265   0.351   2.673
 2878TIP3    H2 8641   0.137   0.405   2.615
 2879TIP3   OH2 8642   4.933   1.407   2.594
 2879TIP3    H1 8643   4.957   1.354   2.518
 2879TIP3    H2 8644   5.008   1.397   2.654
 2880TIP3   OH2 8645   0.141   5.987   2.995
 2880TIP3    H1 8646   0.081   5.956   3.063
 2880TIP3    H2 8647   0.173   5.907   2.953
 2881TIP3   OH2 8648   1.380   5.159   5.013
 2881TIP3    H1 8649   1.435   5.106   4.956
 2881TIP3    H2 8650   1.290   5.136   4.987
 2882TIP3   OH2 8651   0.658   3.020   2.991
 2882TIP3    H1 8652   0.704   3.045   3.071
 2882TIP3    H2 8653   0.570   2.994   3.021
 2883TIP3   OH2 8654   3.491   4.273   1.918
 2883TIP3    H1 8655   3.518   4.262   2.009
 2883TIP3    H2 8656   3.405   4.232   1.913
 2884TIP3   OH2 8657   5.363   4.987   5.139
 2884TIP3    H1 8658   5.419   4.928   5.087
 2884TIP3    H2 8659   5.303   5.026   5.076
 2885TIP3   OH2 8660   1.131   4.142   4.572
 2885TIP3    H1 8661   1.148   4.049   4.587
 2885TIP3    H2 8662   1.043   4.145   4.534
 2886TIP3   OH2 8663   2.379   2.435   3.537
 2886TIP3    H1 8664   2.458   2.420   3.590
 2886TIP3    H2 8665   2.345   2.347   3.520
 2887TIP3   OH2 8666   2.207   5.538   0.551
 2887TIP3    H1 8667   2.285   5.570   0.506
 2887TIP3    H2 8668   2.174   5.467   0.495
 2888TIP3   OH2 8669   4.506   2.944   4.516
 2888TIP3    H1 8670   4.475   2.961   4.427
 2888TIP3    H2 8671   4.444   2.880   4.551
 2889TIP3   OH2 8672   3.998   5.305   0.711
 2889TIP3    H1 8673   4.014   5.332   0.620
 2889TIP3    H2 8674   3.997   5.210   0.708
 2890TIP3   OH2 8675   3.062   3.762   0.313
 2890TIP3    H1 8676   3.079   3.853   0.289
 2890TIP3    H2 8677   2.997   3.732   0.250
 2891TIP3   OH2 8678   5.437   1.199   0.360
 2891TIP3    H1 8679   5.373   1.138   0.322
 2891TIP3    H2 8680   5.385   1.256   0.416
 2892TIP3   OH2 8681   0.641   3.592   1.939
 2892TIP3    H1 8682   0.578   3.541   1.887
 2892TIP3    H2 8683   0.599   3.677   1.951
 2893TIP3   OH2 8684   1.592   3.453   3.338
 2893TIP3    H1 8685   1.645   3.398   3.396
 2893TIP3    H2 8686   1.523   3.488   3.395
 2894TIP3   OH2 8687   2.262   4.474   3.383
 2894TIP3    H1 8688   2.233   4.553   3.339
 2894TIP3    H2 8689   2.318   4.506   3.454
 2895TIP3   OH2 8690   5.349   5.721   3.348
 2895TIP3    H1 8691   5.306   5.713   3.263
 2895TIP3    H2 8692   5.440   5.695   3.331
 2896TIP3   OH2 8693   5.202   2.051   1.246
 2896TIP3    H1 8694   5.212   1.968   1.292
 2896TIP3    H2 8695   5.266   2.046   1.175
 2897TIP3   OH2 8696   0.404   2.498   3.865
 2897TIP3    H1 8697   0.426   2.586   3.895
 2897TIP3    H2 8698   0.455   2.488   3.784
 2898TIP3   OH2 8699   2.210   5.505   3.701
 2898TIP3    H1 8700   2.260   5.581   3.730
 2898TIP3    H2 8701   2.231   5.436   3.765
 2899TIP3   OH2 8702   0.559   4.428   0.288
 2899TIP3    H1 8703   0.490   4.490   0.265
 2899TIP3    H2 8704   0.602   4.408   0.205
 2900TIP3   OH2 8705   0.560   0.036   4.761
 2900TIP3    H1 8706   0.650   0.014   4.735
 2900TIP3    H2 8707   0.571   0.101   4.831
 2901TIP3   OH2 8708   2.720   2.167   0.557
 2901TIP3    H1 8709   2.625   2.164   0.562
 2901TIP3    H2 8710   2.740   2.140   0.467
 2902TIP3   OH2 8711   6.158   1.331   4.730
 2902TIP3    H1 8712   6.202   1.325   4.645
 2902TIP3    H2 8713   6.138   1.424   4.740
 2903TIP3   OH2 8714   4.165   3.443   0.522
 2903TIP3    H1 8715   4.118   3.385   0.462
 2903TIP3    H2 8716   4.098   3.477   0.581
 2904TIP3   OH2 8717   1.383   2.940   3.182
 2904TIP3    H1 8718   1.432   2.861   3.202
 2904TIP3    H2 8719   1.296   2.924   3.218
 2905TIP3   OH2 8720   1.503   0.655   3.281
 2905TIP3    H1 8721   1.485   0.748   3.271
 2905TIP3    H2 8722   1.457   0.630   3.361
 2906TIP3   OH2 8723   3.307   1.957   4.225
 2906TIP3    H1 8724   3.333   1.974   4.134
 2906TIP3    H2 8725   3.212   1.944   4.220
 2907TIP3   OH2 8726   1.051   3.028   0.449
 2907TIP3    H1 8727   0.966   3.063   0.425
 2907TIP3    H2 8728   1.040   2.994   0.538
 2908TIP3   OH2 8729   1.268   0.905   0.295
 2908TIP3    H1 8730   1.290   0.921   0.203
 2908TIP3    H2 8731   1.291   0.986   0.340
 2909TIP3   OH2 8732   5.653   5.476   2.014
 2909TIP3    H1 8733   5.661   5.381   2.019
 2909TIP3    H2 8734   5.700   5.499   1.934
 2910TIP3   OH2 8735   4.144   0.033   1.370
 2910TIP3    H1 8736   4.165   0.019   1.463
 2910TIP3    H2 8737   4.158  -0.052   1.329
 2911TIP3   OH2 8738   5.301   4.832   1.647
 2911TIP3    H1 8739   5.284   4.926   1.653
 2911TIP3    H2 8740   5.218   4.794   1.618
 2912TIP3   OH2 8741   2.103   4.316   4.819
 2912TIP3    H1 8742   2.064   4.370   4.888
 2912TIP3    H2 8743   2.110   4.229   4.858
 2913TIP3   OH2 8744   5.102   3.096   3.305
 2913TIP3    H1 8745   5.114   3.164   3.372
 2913TIP3    H2 8746   5.190   3.080   3.272
 2914TIP3   OH2 8747   2.742   3.570   4.442
 2914TIP3    H1 8748   2.670   3.508   4.429
 2914TIP3    H2 8749   2.704   3.655   4.417
 2915TIP3   OH2 8750   1.537   3.153   3.210
 2915TIP3    H1 8751   1.522   3.217   3.140
 2915TIP3    H2 8752   1.483   3.078   3.186
 2916TIP3   OH2 8753   5.397   4.716   4.512
 2916TIP3    H1 8754   5.436   4.658   4.446
 2916TIP3    H2 8755   5.306   4.726   4.483
 2917TIP3   OH2 8756   4.726   0.009   4.089
 2917TIP3    H1 8757   4.751  -0.069   4.138
 2917TIP3    H2 8758   4.654   0.048   4.138
 2918TIP3   OH2 8759   5.307   3.765   1.341
 2918TIP3    H1 8760   5.290   3.673   1.325
 2918TIP3    H2 8761   5.403   3.771   1.347
 2919TIP3   OH2 8762   1.463   4.057   0.068
 2919TIP3    H1 8763   1.559   4.049   0.072
 2919TIP3    H2 8764   1.446   4.086  -0.021
 2920TIP3   OH2 8765   0.270   5.221   2.764
 2920TIP3    H1 8766   0.203   5.206   2.698
 2920TIP3    H2 8767   0.325   5.291   2.728
 2921TIP3   OH2 8768   0.219   2.895   1.023
 2921TIP3    H1 8769   0.211   2.862   1.113
 2921TIP3    H2 8770   0.231   2.989   1.034
 2922TIP3   OH2 8771   0.035   1.949   4.009
 2922TIP3    H1 8772   0.037   1.916   4.099
 2922TIP3    H2 8773   0.090   1.888   3.960
 2923TIP3   OH2 8774   6.172   0.104   2.930
 2923TIP3    H1 8775   6.191   0.081   2.839
 2923TIP3    H2 8776   6.255   0.135   2.966
 2924TIP3   OH2 8777   0.064   1.639   3.083
 2924TIP3    H1 8778   0.008   1.561   3.083
 2924TIP3    H2 8779   0.099   1.643   2.994
 2925TIP3   OH2 8780   5.713   1.840   1.708
 2925TIP3    H1 8781   5.777   1.889   1.759
 2925TIP3    H2 8782   5.638   1.831   1.766
 2926TIP3   OH2 8783   3.415   3.679   2.723
 2926TIP3    H1 8784   3.459   3.593   2.720
 2926TIP3    H2 8785   3.478   3.738   2.681
 2927TIP3   OH2 8786   3.025   2.994   3.434
 2927TIP3    H1 8787   3.039   2.928   3.502
 2927TIP3    H2 8788   3.047   2.950   3.352
 2928TIP3   OH2 8789   5.362   5.399   4.988
 2928TIP3    H1 8790   5.415   5.403   5.068
 2928TIP3    H2 8791   5.317   5.483   4.985
 2929TIP3   OH2 8792   4.017   5.582   3.121
 2929TIP3    H1 8793   4.094   5.525   3.117
 2929TIP3    H2 8794   4.052   5.670   3.106
 2930TIP3   OH2 8795   3.652   0.346   3.074
 2930TIP3    H1 8796   3.745   0.365   3.063
 2930TIP3    H2 8797   3.635   0.361   3.167
 2931TIP3   OH2 8798   4.413   5.387   0.265
 2931TIP3    H1 8799   4.393   5.298   0.294
 2931TIP3    H2 8800   4.358   5.400   0.188
 2932TIP3   OH2 8801   6.132   5.994   0.879
 2932TIP3    H1 8802   6.043   5.959   0.874
 2932TIP3    H2 8803   6.188   5.920   0.854
 2933TIP3   OH2 8804   4.127   4.306   1.637
 2933TIP3    H1 8805   4.047   4.301   1.689
 2933TIP3    H2 8806   4.101   4.349   1.556
 2934TIP3   OH2 8807   3.950   5.397   3.586
 2934TIP3    H1 8808   3.926   5.443   3.667
 2934TIP3    H2 8809   3.956   5.466   3.520
 2935TIP3   OH2 8810   2.107   0.161   2.285
 2935TIP3    H1 8811   2.131   0.104   2.359
 2935TIP3    H2 8812   2.011   0.157   2.281
 2936TIP3   OH2 8813   6.105   1.729   0.207
 2936TIP3    H1 8814   6.104   1.698   0.116
 2936TIP3    H2 8815   6.012   1.735   0.231
 2937TIP3   OH2 8816   1.957   5.915   2.888
 2937TIP3    H1 8817   2.003   5.997   2.870
 2937TIP3    H2 8818   1.870   5.927   2.850
 2938TIP3   OH2 8819   5.347   2.422   1.501
 2938TIP3    H1 8820   5.373   2.336   1.536
 2938TIP3    H2 8821   5.327   2.405   1.409
 2939TIP3   OH2 8822   4.404   4.614   2.903
 2939TIP3    H1 8823   4.351   4.559   2.845
 2939TIP3    H2 8824   4.470   4.555   2.939
 2940TIP3   OH2 8825   1.538   2.282   4.515
 2940TIP3    H1 8826   1.490   2.218   4.462
 2940TIP3    H2 8827   1.629   2.255   4.507
 2941TIP3   OH2 8828   0.329   4.363   0.121
 2941TIP3    H1 8829   0.284   4.279   0.131
 2941TIP3    H2 8830   0.301   4.414   0.198
 2942TIP3   OH2 8831   0.812   2.038   1.364
 2942TIP3    H1 8832   0.877   2.090   1.411
 2942TIP3    H2 8833   0.789   1.968   1.425
 2943TIP3   OH2 8834   1.962   1.521   4.664
 2943TIP3    H1 8835   1.987   1.435   4.697
 2943TIP3    H2 8836   2.034   1.546   4.605
 2944TIP3   OH2 8837   4.287   2.843   3.523
 2944TIP3    H1 8838   4.316   2.932   3.502
 2944TIP3    H2 8839   4.203   2.834   3.479
 2945TIP3   OH2 8840   3.298   4.306   2.249
 2945TIP3    H1 8841   3.268   4.300   2.339
 2945TIP3    H2 8842   3.219   4.326   2.199
 2946TIP3   OH2 8843   3.899   2.387   2.858
 2946TIP3    H1 8844   3.934   2.384   2.947
 2946TIP3    H2 8845   3.913   2.299   2.823
 2947TIP3   OH2 8846   0.167   2.238   4.054
 2947TIP3    H1 8847   0.156   2.229   4.149
 2947TIP3    H2 8848   0.080   2.223   4.018
 2948TIP3   OH2 8849   1.597   1.032   4.282
 2948TIP3    H1 8850   1.659   0.969   4.319
 2948TIP3    H2 8851   1.632   1.118   4.307
 2949TIP3   OH2 8852   4.037   0.865   0.842
 2949TIP3    H1 8853   3.983   0.843   0.917
 2949TIP3    H2 8854   4.118   0.815   0.855
 2950TIP3   OH2 8855   6.198   5.521   4.974
 2950TIP3    H1 8856   6.122   5.522   5.033
 2950TIP3    H2 8857   6.218   5.613   4.960
 2951TIP3   OH2 8858   4.904   5.368   0.672
 2951TIP3    H1 8859   4.996   5.367   0.698
 2951TIP3    H2 8860   4.863   5.428   0.732
 2952TIP3   OH2 8861   3.036   4.267   2.162
 2952TIP3    H1 8862   3.066   4.222   2.241
 2952TIP3    H2 8863   3.005   4.197   2.104
 2953TIP3   OH2 8864   0.465   4.626   2.156
 2953TIP3    H1 8865   0.420   4.541   2.150
 2953TIP3    H2 8866   0.545   4.614   2.104
 2954TIP3   OH2 8867   5.263   2.030   3.601
 2954TIP3    H1 8868   5.338   1.974   3.583
 2954TIP3    H2 8869   5.289   2.116   3.566
 2955TIP3   OH2 8870   2.805   3.109   1.469
 2955TIP3    H1 8871   2.810   3.123   1.375
 2955TIP3    H2 8872   2.735   3.046   1.482
 2956TIP3   OH2 8873   4.147   3.973   4.545
 2956TIP3    H1 8874   4.233   4.008   4.566
 2956TIP3    H2 8875   4.097   4.048   4.513
 2957TIP3   OH2 8876   3.913   4.533   3.852
 2957TIP3    H1 8877   3.845   4.600   3.864
 2957TIP3    H2 8878   3.915   4.518   3.758
 2958TIP3   OH2 8879   5.681   0.316   2.935
 2958TIP3    H1 8880   5.721   0.394   2.974
 2958TIP3    H2 8881   5.638   0.271   3.008
 2959TIP3   OH2 8882   1.263   4.121   3.092
 2959TIP3    H1 8883   1.221   4.051   3.041
 2959TIP3    H2 8884   1.204   4.196   3.082
 2960TIP3   OH2 8885   5.034   4.170   2.998
 2960TIP3    H1 8886   5.030   4.155   3.093
 2960TIP3    H2 8887   5.083   4.252   2.989
 2961TIP3   OH2 8888   0.368   1.086   3.279
 2961TIP3    H1 8889   0.374   1.003   3.326
 2961TIP3    H2 8890   0.321   1.064   3.198
 2962TIP3   OH2 8891   5.220   5.325   2.060
 2962TIP3    H1 8892   5.244   5.276   2.139
 2962TIP3    H2 8893   5.181   5.406   2.093
 2963TIP3   OH2 8894   5.393   1.954   0.255
 2963TIP3    H1 8895   5.412   1.955   0.161
 2963TIP3    H2 8896   5.300   1.978   0.260
 2964TIP3   OH2 8897   3.172   2.557   1.132
 2964TIP3    H1 8898   3.202   2.555   1.223
 2964TIP3    H2 8899   3.190   2.646   1.102
 2965TIP3   OH2 8900   4.238   4.782   3.429
 2965TIP3    H1 8901   4.143   4.770   3.439
 2965TIP3    H2 8902   4.256   4.752   3.340
 2966TIP3   OH2 8903   5.801   0.746   4.787
 2966TIP3    H1 8904   5.836   0.812   4.847
 2966TIP3    H2 8905   5.749   0.688   4.844
 2967TIP3   OH2 8906   4.866   2.291   4.938
 2967TIP3    H1 8907   4.819   2.301   5.021
 2967TIP3    H2 8908   4.796   2.285   4.872
 2968TIP3   OH2 8909   0.264   3.094   4.571
 2968TIP3    H1 8910   0.339   3.152   4.557
 2968TIP3    H2 8911   0.193   3.154   4.596
 2969TIP3   OH2 8912   2.534   1.737   4.043
 2969TIP3    H1 8913   2.512   1.807   3.982
 2969TIP3    H2 8914   2.552   1.782   4.126
 2970TIP3   OH2 8915   3.107   5.397   1.393
 2970TIP3    H1 8916   3.170   5.325   1.382
 2970TIP3    H2 8917   3.153   5.474   1.361
 2971TIP3   OH2 8918   1.077   0.235   0.382
 2971TIP3    H1 8919   1.131   0.308   0.412
 2971TIP3    H2 8920   0.990   0.253   0.417
 2972TIP3   OH2 8921   1.622   5.143   0.509
 2972TIP3    H1 8922   1.646   5.193   0.586
 2972TIP3    H2 8923   1.560   5.199   0.462
 2973TIP3   OH2 8924   4.667   1.346   2.622
 2973TIP3    H1 8925   4.670   1.352   2.718
 2973TIP3    H2 8926   4.739   1.401   2.592
 2974TIP3   OH2 8927   6.272   2.071   3.770
 2974TIP3    H1 8928   6.306   2.160   3.769
 2974TIP3    H2 8929   6.321   2.026   3.839
 2975TIP3   OH2 8930   3.299   3.810   3.907
 2975TIP3    H1 8931   3.264   3.793   3.819
 2975TIP3    H2 8932   3.372   3.748   3.916
 2976TIP3   OH2 8933   6.282   5.401   0.676
 2976TIP3    H1 8934   6.201   5.426   0.721
 2976TIP3    H2 8935   6.259   5.402   0.583
 2977TIP3   OH2 8936   1.955   5.584   0.311
 2977TIP3    H1 8937   2.037   5.553   0.350
 2977TIP3    H2 8938   1.919   5.645   0.376
 2978TIP3   OH2 8939   5.206   5.661   2.101
 2978TIP3    H1 8940   5.149   5.629   2.171
 2978TIP3    H2 8941   5.282   5.697   2.146
 2979TIP3   OH2 8942   4.673   2.577   3.262
 2979TIP3    H1 8943   4.625   2.535   3.334
 2979TIP3    H2 8944   4.648   2.669   3.266
 2980TIP3   OH2 8945   3.406   3.677   1.003
 2980TIP3    H1 8946   3.329   3.682   1.060
 2980TIP3    H2 8947   3.375   3.705   0.917
 2981TIP3   OH2 8948   1.379   0.258   3.174
 2981TIP3    H1 8949   1.315   0.272   3.244
 2981TIP3    H2 8950   1.334   0.201   3.112
 2982TIP3   OH2 8951   2.655   2.370   4.626
 2982TIP3    H1 8952   2.633   2.355   4.718
 2982TIP3    H2 8953   2.572   2.355   4.579
 2983TIP3   OH2 8954   6.191   1.524   1.761
 2983TIP3    H1 8955   6.189   1.602   1.816
 2983TIP3    H2 8956   6.160   1.454   1.818
 2984TIP3   OH2 8957   5.851   0.505   4.495
 2984TIP3    H1 8958   5.869   0.548   4.411
 2984TIP3    H2 8959   5.781   0.556   4.534
 2985TIP3   OH2 8960  -0.043   4.873   2.014
 2985TIP3    H1 8961   0.036   4.819   2.018
 2985TIP3    H2 8962  -0.011   4.963   2.024
 2986TIP3   OH2 8963   2.576   3.379   4.322
 2986TIP3    H1 8964   2.653   3.332   4.291
 2986TIP3    H2 8965   2.503   3.343   4.272
 2987TIP3   OH2 8966   2.543   1.340   1.510
 2987TIP3    H1 8967   2.605   1.287   1.560
 2987TIP3    H2 8968   2.588   1.424   1.498
 2988TIP3   OH2 8969   3.549   4.786   2.693
 2988TIP3    H1 8970   3.586   4.845   2.627
 2988TIP3    H2 8971   3.455   4.785   2.674
 2989TIP3   OH2 8972   0.358   5.045   3.059
 2989TIP3    H1 8973   0.449   5.065   3.083
 2989TIP3    H2 8974   0.363   4.959   3.018
 2990TIP3   OH2 8975   5.131   0.967   4.404
 2990TIP3    H1 8976   5.059   0.905   4.420
 2990TIP3    H2 8977   5.165   0.987   4.492
 2991TIP3   OH2 8978   2.818   0.330   5.049
 2991TIP3    H1 8979   2.880   0.382   4.998
 2991TIP3    H2 8980   2.836   0.353   5.140
 2992TIP3   OH2 8981   2.576   5.898   4.907
 2992TIP3    H1 8982   2.626   5.951   4.969
 2992TIP3    H2 8983   2.582   5.944   4.824
 2993TIP3   OH2 8984   0.309   4.846   3.995
 2993TIP3    H1 8985   0.300   4.863   4.089
 2993TIP3    H2 8986   0.222   4.819   3.967
 2994TIP3   OH2 8987   1.981   5.156   2.160
 2994TIP3    H1 8988   1.985   5.067   2.194
 2994TIP3    H2 8989   2.028   5.208   2.226
 2995TIP3   OH2 8990   2.198   0.276   3.511
 2995TIP3    H1 8991   2.166   0.229   3.435
 2995TIP3    H2 8992   2.178   0.368   3.494
 2996TIP3   OH2 8993   3.301   3.101   3.400
 2996TIP3    H1 8994   3.310   3.118   3.306
 2996TIP3    H2 8995   3.211   3.069   3.409
 2997TIP3   OH2 8996   4.609   4.572   4.438
 2997TIP3    H1 8997   4.554   4.621   4.500
 2997TIP3    H2 8998   4.571   4.592   4.352
 2998TIP3   OH2 8999   2.875   2.171   1.058
 2998TIP3    H1 9000   2.808   2.192   0.992
 2998TIP3    H2 9001   2.909   2.256   1.086
 2999TIP3   OH2 9002   2.501   5.983   3.842
 2999TIP3    H1 9003   2.553   5.972   3.922
 2999TIP3    H2 9004   2.548   5.932   3.776
 3000TIP3   OH2 9005   0.702   4.626   0.417
 3000TIP3    H1 9006   0.678   4.683   0.344
 3000TIP3    H2 9007   0.675   4.538   0.389
 3001TIP3   OH2 9008   0.092   1.363   0.504
 3001TIP3    H1 9009   0.083   1.298   0.435
 3001TIP3    H2 9010   0.043   1.439   0.473
 3002TIP3   OH2 9011   5.348   1.397   4.607
 3002TIP3    H1 9012   5.425   1.451   4.626
 3002TIP3    H2 9013   5.289   1.414   4.680
 3003TIP3   OH2 9014   3.991   3.587   4.789
 3003TIP3    H1 9015   4.066   3.536   4.820
 3003TIP3    H2 9016   3.923   3.521   4.772
 3004TIP3   OH2 9017   4.699   3.748   0.334
 3004TIP3    H1 9018   4.781   3.738   0.381
 3004TIP3    H2 9019   4.683   3.662   0.295
 3005TIP3   OH2 9020   6.202   1.410   5.053
 3005TIP3    H1 9021   6.166   1.381   5.136
 3005TIP3    H2 9022   6.291   1.375   5.052
 3006TIP3   OH2 9023   4.497   1.396   1.646
 3006TIP3    H1 9024   4.431   1.447   1.693
 3006TIP3    H2 9025   4.480   1.306   1.673
 3007TIP3   OH2 9026   5.512   4.205   3.684
 3007TIP3    H1 9027   5.457   4.245   3.752
 3007TIP3    H2 9028   5.491   4.112   3.688
 3008TIP3   OH2 9029   1.920   3.128   2.814
 3008TIP3    H1 9030   1.851   3.062   2.807
 3008TIP3    H2 9031   1.932   3.140   2.909
 3009TIP3   OH2 9032   3.349   1.600   4.908
 3009TIP3    H1 9033   3.312   1.630   4.991
 3009TIP3    H2 9034   3.302   1.518   4.889
 3010TIP3   OH2 9035   4.448   5.327   2.895
 3010TIP3    H1 9036   4.525   5.284   2.858
 3010TIP3    H2 9037   4.388   5.255   2.914
 3011TIP3   OH2 9038   5.289   2.917   0.474
 3011TIP3    H1 9039   5.362   2.972   0.502
 3011TIP3    H2 9040   5.302   2.835   0.522
 3012TIP3   OH2 9041   2.379   0.136   3.687
 3012TIP3    H1 9042   2.323   0.182   3.624
 3012TIP3    H2 9043   2.462   0.184   3.684
 3013TIP3   OH2 9044   0.066   3.880   3.150
 3013TIP3    H1 9045   0.128   3.807   3.149
 3013TIP3    H2 9046   0.103   3.942   3.213
 3014TIP3   OH2 9047   2.675   4.091   2.700
 3014TIP3    H1 9048   2.667   4.051   2.787
 3014TIP3    H2 9049   2.659   4.020   2.639
 3015TIP3   OH2 9050   1.910   1.144   0.414
 3015TIP3    H1 9051   1.883   1.236   0.417
 3015TIP3    H2 9052   1.970   1.135   0.489
 3016TIP3   OH2 9053   4.727   1.589   4.089
 3016TIP3    H1 9054   4.636   1.619   4.093
 3016TIP3    H2 9055   4.725   1.513   4.030
 3017TIP3   OH2 9056   2.853   2.717   0.032
 3017TIP3    H1 9057   2.762   2.722   0.002
 3017TIP3    H2 9058   2.873   2.624   0.035
 3018TIP3   OH2 9059   2.540   4.718   0.087
 3018TIP3    H1 9060   2.452   4.692   0.059
 3018TIP3    H2 9061   2.597   4.685   0.019
 3019TIP3   OH2 9062   1.937   2.910   1.179
 3019TIP3    H1 9063   1.931   2.843   1.110
 3019TIP3    H2 9064   1.850   2.950   1.181
 3020TIP3   OH2 9065   3.786   0.596   1.971
 3020TIP3    H1 9066   3.792   0.533   1.900
 3020TIP3    H2 9067   3.848   0.665   1.947
 3021TIP3   OH2 9068   0.450   0.075   0.725
 3021TIP3    H1 9069   0.393   0.016   0.676
 3021TIP3    H2 9070   0.456   0.035   0.812
 3022TIP3   OH2 9071   1.534   5.345   1.066
 3022TIP3    H1 9072   1.615   5.296   1.080
 3022TIP3    H2 9073   1.540   5.417   1.128
 3023TIP3   OH2 9074   2.989   4.073   5.147
 3023TIP3    H1 9075   3.082   4.074   5.126
 3023TIP3    H2 9076   2.985   4.056   5.241
 3024TIP3   OH2 9077   2.673   0.991   5.019
 3024TIP3    H1 9078   2.615   1.062   5.044
 3024TIP3    H2 9079   2.724   1.025   4.946
 3025TIP3   OH2 9080   1.257   3.104   2.666
 3025TIP3    H1 9081   1.194   3.034   2.681
 3025TIP3    H2 9082   1.298   3.119   2.751
 3026TIP3   OH2 9083   1.706   2.702   4.040
 3026TIP3    H1 9084   1.732   2.794   4.031
 3026TIP3    H2 9085   1.681   2.693   4.131
 3027TIP3   OH2 9086   1.817   0.806   1.028
 3027TIP3    H1 9087   1.779   0.777   0.945
 3027TIP3    H2 9088   1.910   0.783   1.021
 3028TIP3   OH2 9089   5.243   0.130   3.966
 3028TIP3    H1 9090   5.320   0.135   4.024
 3028TIP3    H2 9091   5.231   0.036   3.951
 3029TIP3   OH2 9092   1.877   1.900   3.633
 3029TIP3    H1 9093   1.886   1.915   3.539
 3029TIP3    H2 9094   1.848   1.809   3.640
 3030TIP3   OH2 9095   1.055   3.680   0.728
 3030TIP3    H1 9096   0.994   3.670   0.802
 3030TIP3    H2 9097   1.138   3.704   0.769
 3031TIP3   OH2 9098   0.142   4.236   4.165
 3031TIP3    H1 9099   0.146   4.330   4.146
 3031TIP3    H2 9100   0.234   4.209   4.168
 3032TIP3   OH2 9101   4.575   0.965   4.953
 3032TIP3    H1 9102   4.645   1.024   4.980
 3032TIP3    H2 9103   4.595   0.945   4.861
 3033TIP3   OH2 9104   0.815   4.918   1.114
 3033TIP3    H1 9105   0.881   4.963   1.062
 3033TIP3    H2 9106   0.801   4.835   1.068
 3034TIP3   OH2 9107   4.900   2.943   4.149
 3034TIP3    H1 9108   4.819   2.989   4.127
 3034TIP3    H2 9109   4.933   2.988   4.227
 3035TIP3   OH2 9110   4.778   5.066   4.560
 3035TIP3    H1 9111   4.754   4.998   4.497
 3035TIP3    H2 9112   4.845   5.118   4.515
 3036TIP3   OH2 9113   2.471   3.853   1.272
 3036TIP3    H1 9114   2.381   3.886   1.284
 3036TIP3    H2 9115   2.509   3.910   1.206
 3037TIP3   OH2 9116   2.414   5.869   2.327
 3037TIP3    H1 9117   2.435   5.780   2.356
 3037TIP3    H2 9118   2.477   5.925   2.374
 3038TIP3   OH2 9119   3.404   4.871   3.663
 3038TIP3    H1 9120   3.321   4.849   3.706
 3038TIP3    H2 9121   3.393   4.839   3.574
 3039TIP3   OH2 9122   0.974   2.748   4.735
 3039TIP3    H1 9123   1.038   2.778   4.799
 3039TIP3    H2 9124   1.022   2.688   4.679
 3040TIP3   OH2 9125   2.399   2.799   0.487
 3040TIP3    H1 9126   2.379   2.728   0.549
 3040TIP3    H2 9127   2.448   2.863   0.539
 3041TIP3   OH2 9128   5.152   5.037   1.265
 3041TIP3    H1 9129   5.123   5.119   1.225
 3041TIP3    H2 9130   5.099   5.029   1.344
 3042TIP3   OH2 9131   0.390   2.509   1.539
 3042TIP3    H1 9132   0.321   2.505   1.472
 3042TIP3    H2 9133   0.469   2.481   1.493
 3043TIP3   OH2 9134   1.539   0.589   4.174
 3043TIP3    H1 9135   1.620   0.547   4.205
 3043TIP3    H2 9136   1.540   0.676   4.214
 3044TIP3   OH2 9137   3.000   3.558   1.658
 3044TIP3    H1 9138   3.044   3.557   1.573
 3044TIP3    H2 9139   2.926   3.499   1.647
 3045TIP3   OH2 9140   3.242   3.177   1.284
 3045TIP3    H1 9141   3.319   3.219   1.324
 3045TIP3    H2 9142   3.277   3.119   1.217
 3046TIP3   OH2 9143   1.826   5.611   4.991
 3046TIP3    H1 9144   1.920   5.615   5.007
 3046TIP3    H2 9145   1.786   5.621   5.077
 3047TIP3   OH2 9146   2.131   1.906   3.057
 3047TIP3    H1 9147   2.056   1.854   3.030
 3047TIP3    H2 9148   2.118   1.991   3.016
 3048TIP3   OH2 9149   5.239   4.766   1.171
 3048TIP3    H1 9150   5.215   4.849   1.211
 3048TIP3    H2 9151   5.179   4.756   1.097
 3049TIP3   OH2 9152   1.834   5.352   4.834
 3049TIP3    H1 9153   1.859   5.275   4.885
 3049TIP3    H2 9154   1.879   5.425   4.876
 3050TIP3   OH2 9155   5.055   5.825   2.832
 3050TIP3    H1 9156   5.130   5.786   2.785
 3050TIP3    H2 9157   4.983   5.820   2.769
 3051TIP3   OH2 9158   5.664   0.922   2.918
 3051TIP3    H1 9159   5.683   0.926   2.824
 3051TIP3    H2 9160   5.660   0.828   2.937
 3052TIP3   OH2 9161   1.412   1.178   3.772
 3052TIP3    H1 9162   1.358   1.166   3.850
 3052TIP3    H2 9163   1.422   1.273   3.766
 3053TIP3   OH2 9164   0.321   0.940   1.731
 3053TIP3    H1 9165   0.400   0.887   1.742
 3053TIP3    H2 9166   0.353   1.030   1.725
 3054TIP3   OH2 9167   4.523   2.306   3.113
 3054TIP3    H1 9168   4.557   2.233   3.164
 3054TIP3    H2 9169   4.434   2.320   3.146
 3055TIP3   OH2 9170   1.433   2.450   0.559
 3055TIP3    H1 9171   1.360   2.478   0.614
 3055TIP3    H2 9172   1.392   2.428   0.475
 3056TIP3   OH2 9173   0.184   4.301   2.478
 3056TIP3    H1 9174   0.162   4.235   2.412
 3056TIP3    H2 9175   0.214   4.251   2.553
 3057TIP3   OH2 9176   1.886   2.760   3.334
 3057TIP3    H1 9177   1.926   2.841   3.301
 3057TIP3    H2 9178   1.853   2.716   3.255
 3058TIP3   OH2 9179   0.022   3.090   0.260
 3058TIP3    H1 9180   0.064   3.172   0.231
 3058TIP3    H2 9181   0.094   3.027   0.265
 3059TIP3   OH2 9182   5.868   2.859   0.563
 3059TIP3    H1 9183   5.835   2.933   0.513
 3059TIP3    H2 9184   5.797   2.836   0.623
 3060TIP3   OH2 9185   1.876   3.614   1.727
 3060TIP3    H1 9186   1.834   3.605   1.641
 3060TIP3    H2 9187   1.893   3.708   1.735
 3061TIP3   OH2 9188   1.716   0.704   0.362
 3061TIP3    H1 9189   1.735   0.773   0.299
 3061TIP3    H2 9190   1.728   0.623   0.313
 3062TIP3   OH2 9191   4.386   5.036   3.269
 3062TIP3    H1 9192   4.448   4.996   3.329
 3062TIP3    H2 9193   4.419   5.125   3.255
 3063TIP3   OH2 9194   0.626   1.978   2.546
 3063TIP3    H1 9195   0.595   1.887   2.541
 3063TIP3    H2 9196   0.685   1.987   2.471
 3064TIP3   OH2 9197   5.261   4.669   3.240
 3064TIP3    H1 9198   5.254   4.716   3.323
 3064TIP3    H2 9199   5.324   4.599   3.257
 3065TIP3   OH2 9200   5.204   2.128   3.261
 3065TIP3    H1 9201   5.296   2.155   3.259
 3065TIP3    H2 9202   5.155   2.210   3.274
 3066TIP3   OH2 9203   0.981   4.155   1.588
 3066TIP3    H1 9204   0.961   4.179   1.679
 3066TIP3    H2 9205   1.037   4.078   1.596
 3067TIP3   OH2 9206   4.861   1.929   1.806
 3067TIP3    H1 9207   4.859   2.006   1.748
 3067TIP3    H2 9208   4.954   1.907   1.812
 3068TIP3   OH2 9209   3.764   0.824   3.977
 3068TIP3    H1 9210   3.708   0.832   4.054
 3068TIP3    H2 9211   3.704   0.823   3.903
 3069TIP3   OH2 9212   4.383   4.119   0.936
 3069TIP3    H1 9213   4.432   4.080   1.009
 3069TIP3    H2 9214   4.315   4.055   0.916
 3070TIP3   OH2 9215   3.121   3.664   0.579
 3070TIP3    H1 9216   3.030   3.638   0.593
 3070TIP3    H2 9217   3.122   3.697   0.489
 3071TIP3   OH2 9218   6.310   1.466   1.100
 3071TIP3    H1 9219   6.250   1.425   1.162
 3071TIP3    H2 9220   6.276   1.443   1.014
 3072TIP3   OH2 9221   0.701   5.288   4.689
 3072TIP3    H1 9222   0.759   5.356   4.656
 3072TIP3    H2 9223   0.650   5.260   4.613
 3073TIP3   OH2 9224   0.451   2.881   4.919
 3073TIP3    H1 9225   0.357   2.900   4.921
 3073TIP3    H2 9226   0.464   2.817   4.989
 3074TIP3   OH2 9227   5.166   5.125   2.760
 3074TIP3    H1 9228   5.143   5.063   2.690
 3074TIP3    H2 9229   5.147   5.211   2.722
 3075TIP3   OH2 9230   3.292   3.372   4.578
 3075TIP3    H1 9231   3.383   3.386   4.602
 3075TIP3    H2 9232   3.277   3.278   4.593
 3076TIP3   OH2 9233   2.724   5.801   3.785
 3076TIP3    H1 9234   2.784   5.875   3.775
 3076TIP3    H2 9235   2.773   5.726   3.752
 3077TIP3   OH2 9236   4.066   2.187   2.086
 3077TIP3    H1 9237   3.975   2.192   2.117
 3077TIP3    H2 9238   4.078   2.096   2.062
 3078TIP3   OH2 9239   0.164   4.056   5.068
 3078TIP3    H1 9240   0.176   3.995   4.995
 3078TIP3    H2 9241   0.137   4.001   5.141
 3079TIP3   OH2 9242   3.821   5.794   1.351
 3079TIP3    H1 9243   3.879   5.867   1.372
 3079TIP3    H2 9244   3.843   5.772   1.260
 3080TIP3   OH2 9245   4.435   2.551   0.869
 3080TIP3    H1 9246   4.456   2.644   0.860
 3080TIP3    H2 9247   4.414   2.540   0.961
 3081TIP3   OH2 9248   1.069   5.102   3.463
 3081TIP3    H1 9249   1.026   5.157   3.398
 3081TIP3    H2 9250   1.007   5.098   3.536
 3082TIP3   OH2 9251   3.022   2.490   3.191
 3082TIP3    H1 9252   2.953   2.425   3.206
 3082TIP3    H2 9253   3.027   2.499   3.096
 3083TIP3   OH2 9254   0.223   3.285   0.455
 3083TIP3    H1 9255   0.185   3.300   0.368
 3083TIP3    H2 9256   0.174   3.211   0.490
 3084TIP3   OH2 9257   0.083   0.683   0.640
 3084TIP3    H1 9258   0.115   0.731   0.563
 3084TIP3    H2 9259   0.061   0.752   0.703
 3085TIP3   OH2 9260   2.998   0.097   1.439
 3085TIP3    H1 9261   3.017   0.075   1.348
 3085TIP3    H2 9262   2.904   0.086   1.448
 3086TIP3   OH2 9263   1.240   2.271   3.949
 3086TIP3    H1 9264   1.217   2.303   4.036
 3086TIP3    H2 9265   1.298   2.196   3.965
 3087TIP3   OH2 9266   4.837   1.693   4.457
 3087TIP3    H1 9267   4.821   1.606   4.420
 3087TIP3    H2 9268   4.750   1.732   4.465
 3088TIP3   OH2 9269   0.735   0.714   4.191
 3088TIP3    H1 9270   0.817   0.710   4.240
 3088TIP3    H2 9271   0.754   0.669   4.109
 3089TIP3   OH2 9272   0.598   2.334   1.368
 3089TIP3    H1 9273   0.527   2.305   1.311
 3089TIP3    H2 9274   0.628   2.416   1.329
 3090TIP3   OH2 9275   3.297   2.991   4.221
 3090TIP3    H1 9276   3.228   2.987   4.155
 3090TIP3    H2 9277   3.368   2.939   4.185
 3091TIP3   OH2 9278   3.092   1.726   3.908
 3091TIP3    H1 9279   3.071   1.788   3.977
 3091TIP3    H2 9280   3.040   1.755   3.833
 3092TIP3   OH2 9281   0.489   3.380   0.571
 3092TIP3    H1 9282   0.479   3.384   0.666
 3092TIP3    H2 9283   0.399   3.379   0.538
 3093TIP3   OH2 9284   2.220   4.720   4.725
 3093TIP3    H1 9285   2.289   4.666   4.765
 3093TIP3    H2 9286   2.166   4.748   4.799
 3094TIP3   OH2 9287   2.846   0.582   2.091
 3094TIP3    H1 9288   2.799   0.548   2.015
 3094TIP3    H2 9289   2.935   0.599   2.059
 3095TIP3   OH2 9290   5.352   1.013   4.274
 3095TIP3    H1 9291   5.389   1.068   4.343
 3095TIP3    H2 9292   5.266   0.987   4.308
 3096TIP3   OH2 9293   1.297   0.978   2.447
 3096TIP3    H1 9294   1.355   0.911   2.412
 3096TIP3    H2 9295   1.244   0.932   2.512
 3097TIP3   OH2 9296   0.365   2.486   4.484
 3097TIP3    H1 9297   0.345   2.487   4.390
 3097TIP3    H2 9298   0.426   2.412   4.494
 3098TIP3   OH2 9299   4.553   3.913   2.165
 3098TIP3    H1 9300   4.636   3.960   2.164
 3098TIP3    H2 9301   4.573   3.829   2.208
 3099TIP3   OH2 9302   6.309   1.301   4.045
 3099TIP3    H1 9303   6.256   1.374   4.078
 3099TIP3    H2 9304   6.247   1.245   3.998
 3100TIP3   OH2 9305   0.800   1.367   1.025
 3100TIP3    H1 9306   0.721   1.330   1.064
 3100TIP3    H2 9307   0.770   1.450   0.986
 3101TIP3   OH2 9308   4.442   1.186   2.853
 3101TIP3    H1 9309   4.513   1.249   2.840
 3101TIP3    H2 9310   4.368   1.222   2.804
 3102TIP3   OH2 9311   1.771   1.526   0.979
 3102TIP3    H1 9312   1.864   1.526   0.959
 3102TIP3    H2 9313   1.752   1.436   1.008
 3103TIP3   OH2 9314   5.670   0.073   4.807
 3103TIP3    H1 9315   5.590   0.110   4.770
 3103TIP3    H2 9316   5.723   0.150   4.829
 3104TIP3   OH2 9317   2.235   0.931   0.650
 3104TIP3    H1 9318   2.249   0.990   0.725
 3104TIP3    H2 9319   2.219   0.990   0.577
 3105TIP3   OH2 9320   3.492   5.896   0.369
 3105TIP3    H1 9321   3.496   5.854   0.455
 3105TIP3    H2 9322   3.399   5.918   0.357
 3106TIP3   OH2 9323   4.876   3.034   1.891
 3106TIP3    H1 9324   4.881   2.944   1.859
 3106TIP3    H2 9325   4.914   3.031   1.979
 3107TIP3   OH2 9326   5.935   5.144   3.099
 3107TIP3    H1 9327   5.862   5.204   3.114
 3107TIP3    H2 9328   6.012   5.201   3.091
 3108TIP3   OH2 9329   6.135   1.607   1.465
 3108TIP3    H1 9330   6.224   1.575   1.481
 3108TIP3    H2 9331   6.093   1.606   1.551
 3109TIP3   OH2 9332   5.223   4.025   2.659
 3109TIP3    H1 9333   5.171   4.084   2.604
 3109TIP3    H2 9334   5.289   3.989   2.600
 3110TIP3   OH2 9335   1.494   0.042   2.097
 3110TIP3    H1 9336   1.420  -0.001   2.054
 3110TIP3    H2 9337   1.518   0.114   2.039
 3111TIP3   OH2 9338   4.462   2.458   3.718
 3111TIP3    H1 9339   4.413   2.507   3.652
 3111TIP3    H2 9340   4.437   2.366   3.703
 3112TIP3   OH2 9341   3.382   3.126   2.616
 3112TIP3    H1 9342   3.453   3.165   2.668
 3112TIP3    H2 9343   3.340   3.200   2.573
 3113TIP3   OH2 9344   4.597   5.235   3.306
 3113TIP3    H1 9345   4.626   5.194   3.388
 3113TIP3    H2 9346   4.646   5.189   3.238
 3114TIP3   OH2 9347   1.902   0.073   3.476
 3114TIP3    H1 9348   1.957   0.109   3.407
 3114TIP3    H2 9349   1.856  -0.001   3.435
 3115TIP3   OH2 9350   2.482   2.660   4.278
 3115TIP3    H1 9351   2.572   2.632   4.266
 3115TIP3    H2 9352   2.474   2.678   4.371
 3116TIP3   OH2 9353   4.695   4.301   4.506
 3116TIP3    H1 9354   4.661   4.385   4.477
 3116TIP3    H2 9355   4.677   4.298   4.599
 3117TIP3   OH2 9356   5.787   2.431   0.806
 3117TIP3    H1 9357   5.775   2.484   0.885
 3117TIP3    H2 9358   5.837   2.487   0.747
 3118TIP3   OH2 9359   4.368   3.554   0.112
 3118TIP3    H1 9360   4.308   3.554   0.186
 3118TIP3    H2 9361   4.400   3.464   0.107
 3119TIP3   OH2 9362   5.988   3.060   1.938
 3119TIP3    H1 9363   5.946   3.077   2.021
 3119TIP3    H2 9364   5.943   3.117   1.875
 3120TIP3   OH2 9365   1.498   3.126   5.089
 3120TIP3    H1 9366   1.404   3.117   5.073
 3120TIP3    H2 9367   1.526   3.039   5.117
 3121TIP3   OH2 9368   2.605   3.108   2.571
 3121TIP3    H1 9369   2.658   3.177   2.611
 3121TIP3    H2 9370   2.667   3.060   2.515
 3122TIP3   OH2 9371   5.176   2.510   1.204
 3122TIP3    H1 9372   5.134   2.522   1.119
 3122TIP3    H2 9373   5.221   2.426   1.197
 3123TIP3   OH2 9374   4.827   3.241   1.301
 3123TIP3    H1 9375   4.732   3.246   1.316
 3123TIP3    H2 9376   4.849   3.323   1.257
 3124TIP3   OH2 9377   2.588   1.911   4.258
 3124TIP3    H1 9378   2.671   1.929   4.302
 3124TIP3    H2 9379   2.529   1.979   4.290
 3125TIP3   OH2 9380   5.743   0.777   3.288
 3125TIP3    H1 9381   5.728   0.758   3.381
 3125TIP3    H2 9382   5.838   0.782   3.280
 3126TIP3   OH2 9383   0.698   5.530   2.075
 3126TIP3    H1 9384   0.748   5.606   2.044
 3126TIP3    H2 9385   0.659   5.559   2.158
 3127TIP3   OH2 9386   4.213   2.198   2.520
 3127TIP3    H1 9387   4.262   2.273   2.555
 3127TIP3    H2 9388   4.233   2.199   2.426
 3128TIP3   OH2 9389   2.347   0.631   2.477
 3128TIP3    H1 9390   2.270   0.578   2.457
 3128TIP3    H2 9391   2.338   0.651   2.570
 3129TIP3   OH2 9392   4.973   1.057   1.851
 3129TIP3    H1 9393   4.931   1.013   1.778
 3129TIP3    H2 9394   4.929   1.022   1.929
 3130TIP3   OH2 9395   0.744   4.195   2.810
 3130TIP3    H1 9396   0.668   4.210   2.753
 3130TIP3    H2 9397   0.818   4.187   2.750
 3131TIP3   OH2 9398   5.049   2.257   4.538
 3131TIP3    H1 9399   5.071   2.344   4.572
 3131TIP3    H2 9400   5.025   2.207   4.616
 3132TIP3   OH2 9401   2.814   5.115   2.658
 3132TIP3    H1 9402   2.819   5.177   2.585
 3132TIP3    H2 9403   2.731   5.138   2.701
 3133TIP3   OH2 9404   3.879   4.068   0.130
 3133TIP3    H1 9405   3.841   4.094   0.214
 3133TIP3    H2 9406   3.828   4.116   0.064
 3134TIP3   OH2 9407   4.220   2.442   0.685
 3134TIP3    H1 9408   4.264   2.368   0.643
 3134TIP3    H2 9409   4.290   2.490   0.729
 3135TIP3   OH2 9410   5.679   5.640   2.549
 3135TIP3    H1 9411   5.708   5.675   2.465
 3135TIP3    H2 9412   5.618   5.570   2.525
 3136TIP3   OH2 9413   6.161   3.738   2.298
 3136TIP3    H1 9414   6.255   3.728   2.314
 3136TIP3    H2 9415   6.127   3.649   2.296
 3137TIP3   OH2 9416   2.261   4.368   4.288
 3137TIP3    H1 9417   2.233   4.422   4.362
 3137TIP3    H2 9418   2.351   4.398   4.270
 3138TIP3   OH2 9419   4.377   1.812   2.691
 3138TIP3    H1 9420   4.416   1.884   2.740
 3138TIP3    H2 9421   4.436   1.738   2.705
 3139TIP3   OH2 9422   4.343   2.950   0.150
 3139TIP3    H1 9423   4.413   2.887   0.134
 3139TIP3    H2 9424   4.302   2.920   0.231
 3140TIP3   OH2 9425   4.700   2.079   2.347
 3140TIP3    H1 9426   4.672   2.136   2.275
 3140TIP3    H2 9427   4.619   2.040   2.380
 3141TIP3   OH2 9428   1.721   2.413   1.352
 3141TIP3    H1 9429   1.743   2.491   1.301
 3141TIP3    H2 9430   1.639   2.382   1.315
 3142TIP3   OH2 9431   5.089   4.893   4.034
 3142TIP3    H1 9432   5.072   4.932   3.948
 3142TIP3    H2 9433   5.147   4.819   4.015
 3143TIP3   OH2 9434   0.502   2.900   0.871
 3143TIP3    H1 9435   0.411   2.895   0.901
 3143TIP3    H2 9436   0.544   2.824   0.910
 3144TIP3   OH2 9437   5.398   4.960   3.933
 3144TIP3    H1 9438   5.352   5.041   3.957
 3144TIP3    H2 9439   5.460   4.988   3.866
 3145TIP3   OH2 9440   4.259   5.279   1.471
 3145TIP3    H1 9441   4.309   5.234   1.539
 3145TIP3    H2 9442   4.321   5.340   1.432
 3146TIP3   OH2 9443   1.948   3.509   0.236
 3146TIP3    H1 9444   1.885   3.454   0.189
 3146TIP3    H2 9445   2.024   3.513   0.179
 3147TIP3   OH2 9446   4.014   1.685   4.801
 3147TIP3    H1 9447   4.063   1.618   4.850
 3147TIP3    H2 9448   4.011   1.760   4.860
 3148TIP3   OH2 9449   1.366   0.723   0.480
 3148TIP3    H1 9450   1.347   0.639   0.438
 3148TIP3    H2 9451   1.315   0.787   0.429
 3149TIP3   OH2 9452   2.036   4.312   3.441
 3149TIP3    H1 9453   2.091   4.383   3.406
 3149TIP3    H2 9454   2.059   4.308   3.534
 3150TIP3   OH2 9455   0.150   2.133   4.308
 3150TIP3    H1 9456   0.165   2.157   4.399
 3150TIP3    H2 9457   0.126   2.040   4.311
 3151TIP3   OH2 9458   1.521   3.077   2.856
 3151TIP3    H1 9459   1.587   3.036   2.911
 3151TIP3    H2 9460   1.567   3.096   2.774
 3152TIP3   OH2 9461   6.169   3.683   4.046
 3152TIP3    H1 9462   6.120   3.683   3.963
 3152TIP3    H2 9463   6.129   3.613   4.098
 3153TIP3   OH2 9464   4.353   3.382   3.000
 3153TIP3    H1 9465   4.358   3.310   3.063
 3153TIP3    H2 9466   4.406   3.353   2.926
 3154TIP3   OH2 9467   3.096   1.185   0.092
 3154TIP3    H1 9468   3.130   1.224   0.011
 3154TIP3    H2 9469   3.031   1.121   0.062
 3155TIP3   OH2 9470   1.920   0.206   4.963
 3155TIP3    H1 9471   1.944   0.182   5.053
 3155TIP3    H2 9472   1.944   0.299   4.956
 3156TIP3   OH2 9473   5.672   1.320   3.112
 3156TIP3    H1 9474   5.603   1.380   3.142
 3156TIP3    H2 9475   5.702   1.277   3.192
 3157TIP3   OH2 9476   1.881   1.977   3.957
 3157TIP3    H1 9477   1.876   1.882   3.965
 3157TIP3    H2 9478   1.882   2.009   4.047
 3158TIP3   OH2 9479   5.529   5.517   2.840
 3158TIP3    H1 9480   5.538   5.607   2.807
 3158TIP3    H2 9481   5.610   5.474   2.812
 3159TIP3   OH2 9482   1.351   1.833   4.609
 3159TIP3    H1 9483   1.403   1.894   4.661
 3159TIP3    H2 9484   1.260   1.862   4.622
 3160TIP3   OH2 9485   1.142   3.810   0.243
 3160TIP3    H1 9486   1.053   3.843   0.256
 3160TIP3    H2 9487   1.197   3.888   0.241
 3161TIP3   OH2 9488   5.236   3.664   2.162
 3161TIP3    H1 9489   5.284   3.695   2.239
 3161TIP3    H2 9490   5.227   3.742   2.107
 3162TIP3   OH2 9491   0.432   1.271   1.676
 3162TIP3    H1 9492   0.366   1.232   1.618
 3162TIP3    H2 9493   0.501   1.205   1.682
 3163TIP3   OH2 9494   4.311   0.035   2.271
 3163TIP3    H1 9495   4.246   0.043   2.340
 3163TIP3    H2 9496   4.384  -0.012   2.312
 3164TIP3   OH2 9497   0.229   2.108   1.443
 3164TIP3    H1 9498   0.254   2.016   1.458
 3164TIP3    H2 9499   0.291   2.158   1.495
 3165TIP3   OH2 9500   2.558   2.142   1.870
 3165TIP3    H1 9501   2.617   2.126   1.796
 3165TIP3    H2 9502   2.471   2.147   1.830
 3166TIP3   OH2 9503   4.930   1.017   3.152
 3166TIP3    H1 9504   4.987   1.030   3.227
 3166TIP3    H2 9505   4.899   0.927   3.161
 3167TIP3   OH2 9506   3.304   2.044   1.975
 3167TIP3    H1 9507   3.360   1.966   1.975
 3167TIP3    H2 9508   3.279   2.056   2.067
 3168TIP3   OH2 9509   2.106   1.028   4.082
 3168TIP3    H1 9510   2.157   1.074   4.015
 3168TIP3    H2 9511   2.103   0.938   4.051
 3169TIP3   OH2 9512   1.201   5.308   4.746
 3169TIP3    H1 9513   1.227   5.354   4.825
 3169TIP3    H2 9514   1.281   5.301   4.694
 3170TIP3   OH2 9515   4.992   0.160   2.682
 3170TIP3    H1 9516   4.994   0.237   2.625
 3170TIP3    H2 9517   5.027   0.190   2.765
 3171TIP3   OH2 9518   5.388   1.566   3.882
 3171TIP3    H1 9519   5.322   1.528   3.824
 3171TIP3    H2 9520   5.471   1.546   3.839
 3172TIP3   OH2 9521   1.096   4.684   4.441
 3172TIP3    H1 9522   1.161   4.706   4.508
 3172TIP3    H2 9523   1.012   4.711   4.480
 3173TIP3   OH2 9524   5.134   5.600   4.994
 3173TIP3    H1 9525   5.090   5.538   5.053
 3173TIP3    H2 9526   5.084   5.595   4.913
 3174TIP3   OH2 9527   0.193   1.474   1.819
 3174TIP3    H1 9528   0.158   1.385   1.824
 3174TIP3    H2 9529   0.176   1.501   1.728
 3175TIP3   OH2 9530   1.869   4.152   4.484
 3175TIP3    H1 9531   1.909   4.090   4.546
 3175TIP3    H2 9532   1.921   4.232   4.494
 3176TIP3   OH2 9533   0.465   0.792   2.331
 3176TIP3    H1 9534   0.541   0.760   2.283
 3176TIP3    H2 9535   0.395   0.731   2.309
 3177TIP3   OH2 9536   0.879   2.209   4.711
 3177TIP3    H1 9537   0.957   2.244   4.755
 3177TIP3    H2 9538   0.821   2.185   4.783
 3178TIP3   OH2 9539   4.209   5.686   3.917
 3178TIP3    H1 9540   4.117   5.710   3.929
 3178TIP3    H2 9541   4.252   5.767   3.889
 3179TIP3   OH2 9542   5.983   2.364   0.253
 3179TIP3    H1 9543   6.037   2.292   0.285
 3179TIP3    H2 9544   5.913   2.322   0.203
 3180TIP3   OH2 9545   1.342   2.686   2.661
 3180TIP3    H1 9546   1.416   2.723   2.709
 3180TIP3    H2 9547   1.370   2.597   2.639
 3181TIP3   OH2 9548   0.853   2.941   4.138
 3181TIP3    H1 9549   0.787   2.900   4.083
 3181TIP3    H2 9550   0.893   2.869   4.187
 3182TIP3   OH2 9551   6.053   3.951   4.795
 3182TIP3    H1 9552   6.018   3.997   4.719
 3182TIP3    H2 9553   6.004   3.869   4.798
 3183TIP3   OH2 9554   2.728   5.167   3.914
 3183TIP3    H1 9555   2.660   5.158   3.848
 3183TIP3    H2 9556   2.688   5.132   3.994
 3184TIP3   OH2 9557   1.289   0.858   0.957
 3184TIP3    H1 9558   1.249   0.826   0.877
 3184TIP3    H2 9559   1.320   0.779   1.002
 3185TIP3   OH2 9560   3.454   3.667   0.295
 3185TIP3    H1 9561   3.405   3.717   0.230
 3185TIP3    H2 9562   3.434   3.576   0.276
 3186TIP3   OH2 9563   0.258   4.357   1.624
 3186TIP3    H1 9564   0.251   4.262   1.614
 3186TIP3    H2 9565   0.343   4.370   1.667
 3187TIP3   OH2 9566   0.515   0.250   1.769
 3187TIP3    H1 9567   0.587   0.299   1.729
 3187TIP3    H2 9568   0.436   0.295   1.740
 3188TIP3   OH2 9569   4.867   1.624   1.891
 3188TIP3    H1 9570   4.783   1.643   1.849
 3188TIP3    H2 9571   4.930   1.629   1.819
 3189TIP3   OH2 9572   1.814   1.820   4.753
 3189TIP3    H1 9573   1.900   1.778   4.761
 3189TIP3    H2 9574   1.795   1.815   4.659
 3190TIP3   OH2 9575   5.244   1.382   3.565
 3190TIP3    H1 9576   5.201   1.338   3.491
 3190TIP3    H2 9577   5.251   1.313   3.632
 3191TIP3   OH2 9578   0.363   4.715   1.904
 3191TIP3    H1 9579   0.388   4.665   1.981
 3191TIP3    H2 9580   0.424   4.790   1.904
 3192TIP3   OH2 9581   3.766   0.069   2.790
 3192TIP3    H1 9582   3.671   0.080   2.788
 3192TIP3    H2 9583   3.800   0.159   2.793
 3193TIP3   OH2 9584   5.206   3.458   3.971
 3193TIP3    H1 9585   5.179   3.367   3.955
 3193TIP3    H2 9586   5.299   3.452   3.993
 3194TIP3   OH2 9587   3.381   1.059   4.318
 3194TIP3    H1 9588   3.296   1.048   4.360
 3194TIP3    H2 9589   3.407   1.148   4.341
 3195TIP3   OH2 9590   0.132   3.792   2.841
 3195TIP3    H1 9591   0.164   3.729   2.905
 3195TIP3    H2 9592   0.041   3.807   2.866
 3196TIP3   OH2 9593   6.108   5.071   4.273
 3196TIP3    H1 9594   6.126   4.980   4.249
 3196TIP3    H2 9595   6.013   5.077   4.274
 3197TIP3   OH2 9596   2.315   1.418   1.111
 3197TIP3    H1 9597   2.379   1.470   1.160
 3197TIP3    H2 9598   2.367   1.369   1.048
 3198TIP3   OH2 9599   4.268   4.228   4.809
 3198TIP3    H1 9600   4.260   4.198   4.899
 3198TIP3    H2 9601   4.178   4.247   4.782
 3199TIP3   OH2 9602   0.202   3.047   1.641
 3199TIP3    H1 9603   0.215   2.954   1.626
 3199TIP3    H2 9604   0.241   3.090   1.565
 3200TIP3   OH2 9605   3.401   1.149   0.871
 3200TIP3    H1 9606   3.483   1.198   0.877
 3200TIP3    H2 9607   3.376   1.132   0.962
 3201TIP3   OH2 9608   0.403   5.386   4.302
 3201TIP3    H1 9609   0.309   5.401   4.308
 3201TIP3    H2 9610   0.415   5.338   4.221
 3202TIP3   OH2 9611   0.266   3.397   4.195
 3202TIP3    H1 9612   0.234   3.464   4.256
 3202TIP3    H2 9613   0.199   3.329   4.197
 3203TIP3   OH2 9614   4.093   5.655   1.245
 3203TIP3    H1 9615   4.033   5.652   1.171
 3203TIP3    H2 9616   4.156   5.724   1.222
 3204TIP3   OH2 9617   4.165   1.697   0.308
 3204TIP3    H1 9618   4.193   1.607   0.322
 3204TIP3    H2 9619   4.246   1.744   0.286
 3205TIP3   OH2 9620   0.647   3.062   4.887
 3205TIP3    H1 9621   0.586   2.995   4.915
 3205TIP3    H2 9622   0.640   3.062   4.791
 3206TIP3   OH2 9623   5.868   4.644   2.810
 3206TIP3    H1 9624   5.773   4.650   2.803
 3206TIP3    H2 9625   5.900   4.672   2.724
 3207TIP3   OH2 9626   2.502   4.973   3.043
 3207TIP3    H1 9627   2.453   4.927   2.975
 3207TIP3    H2 9628   2.443   5.042   3.074
 3208TIP3   OH2 9629   5.622   3.582   1.416
 3208TIP3    H1 9630   5.632   3.625   1.331
 3208TIP3    H2 9631   5.533   3.548   1.416
 3209TIP3   OH2 9632   5.340   3.090   2.083
 3209TIP3    H1 9633   5.430   3.118   2.094
 3209TIP3    H2 9634   5.345   3.014   2.025
 3210TIP3   OH2 9635   6.165   0.472   2.448
 3210TIP3    H1 9636   6.246   0.501   2.405
 3210TIP3    H2 9637   6.194   0.426   2.526
 3211TIP3   OH2 9638   0.344   4.769   2.355
 3211TIP3    H1 9639   0.402   4.732   2.288
 3211TIP3    H2 9640   0.278   4.701   2.369
 3212TIP3   OH2 9641   4.013   2.481   2.206
 3212TIP3    H1 9642   3.951   2.427   2.255
 3212TIP3    H2 9643   3.999   2.456   2.115
 3213TIP3   OH2 9644   6.346   4.890   3.448
 3213TIP3    H1 9645   6.266   4.914   3.495
 3213TIP3    H2 9646   6.413   4.947   3.486
 3214TIP3   OH2 9647   1.499   3.808   0.467
 3214TIP3    H1 9648   1.438   3.739   0.493
 3214TIP3    H2 9649   1.585   3.770   0.479
 3215TIP3   OH2 9650   3.922   0.415   3.026
 3215TIP3    H1 9651   4.013   0.389   3.039
 3215TIP3    H2 9652   3.923   0.510   3.036
 3216TIP3   OH2 9653   2.948   5.449   0.554
 3216TIP3    H1 9654   2.861   5.410   0.559
 3216TIP3    H2 9655   2.934   5.542   0.574
 3217TIP3   OH2 9656   1.551   3.931   4.241
 3217TIP3    H1 9657   1.634   3.977   4.229
 3217TIP3    H2 9658   1.496   3.993   4.289
 3218TIP3   OH2 9659   0.340   3.783   0.891
 3218TIP3    H1 9660   0.368   3.775   0.982
 3218TIP3    H2 9661   0.310   3.873   0.883
 3219TIP3   OH2 9662   2.228   1.428   2.885
 3219TIP3    H1 9663   2.243   1.518   2.915
 3219TIP3    H2 9664   2.200   1.381   2.964
 3220TIP3   OH2 9665   5.456   1.550   0.793
 3220TIP3    H1 9666   5.375   1.574   0.748
 3220TIP3    H2 9667   5.475   1.462   0.760
 3221TIP3   OH2 9668   3.869   0.588   4.431
 3221TIP3    H1 9669   3.830   0.660   4.480
 3221TIP3    H2 9670   3.843   0.509   4.479
 3222TIP3   OH2 9671   4.608   4.340   3.366
 3222TIP3    H1 9672   4.664   4.376   3.297
 3222TIP3    H2 9673   4.519   4.360   3.338
 3223TIP3   OH2 9674   1.108   5.064   4.634
 3223TIP3    H1 9675   1.149   5.151   4.638
 3223TIP3    H2 9676   1.041   5.066   4.702
 3224TIP3   OH2 9677   2.264   3.708   0.408
 3224TIP3    H1 9678   2.251   3.753   0.324
 3224TIP3    H2 9679   2.233   3.619   0.393
 3225TIP3   OH2 9680   5.652   5.237   2.592
 3225TIP3    H1 9681   5.716   5.166   2.600
 3225TIP3    H2 9682   5.583   5.200   2.536
 3226TIP3   OH2 9683   5.972   0.600   1.789
 3226TIP3    H1 9684   5.913   0.542   1.838
 3226TIP3    H2 9685   6.031   0.540   1.743
 3227TIP3   OH2 9686   0.262   1.927   4.670
 3227TIP3    H1 9687   0.355   1.904   4.665
 3227TIP3    H2 9688   0.232   1.922   4.579
 3228TIP3   OH2 9689   1.169   5.187   4.280
 3228TIP3    H1 9690   1.197   5.227   4.198
 3228TIP3    H2 9691   1.250   5.155   4.320
 3229TIP3   OH2 9692   1.761   0.990   4.013
 3229TIP3    H1 9693   1.760   1.022   4.103
 3229TIP3    H2 9694   1.826   1.045   3.969
 3230TIP3   OH2 9695   3.848   4.117   0.860
 3230TIP3    H1 9696   3.892   4.120   0.945
 3230TIP3    H2 9697   3.833   4.024   0.844
 3231TIP3   OH2 9698   0.807   3.104   2.511
 3231TIP3    H1 9699   0.749   3.160   2.460
 3231TIP3    H2 9700   0.805   3.140   2.599
 3232TIP3   OH2 9701   1.097   5.134   0.650
 3232TIP3    H1 9702   1.077   5.040   0.653
 3232TIP3    H2 9703   1.180   5.139   0.604
 3233TIP3   OH2 9704   0.529   4.384   4.411
 3233TIP3    H1 9705   0.500   4.442   4.481
 3233TIP3    H2 9706   0.611   4.346   4.443
 3234TIP3   OH2 9707   4.387   1.541   2.833
 3234TIP3    H1 9708   4.305   1.591   2.842
 3234TIP3    H2 9709   4.425   1.542   2.920
 3235TIP3   OH2 9710   0.604   0.165   0.011
 3235TIP3    H1 9711   0.623   0.148   0.103
 3235TIP3    H2 9712   0.579   0.258   0.009
 3236TIP3   OH2 9713   6.300   4.279   2.752
 3236TIP3    H1 9714   6.319   4.370   2.775
 3236TIP3    H2 9715   6.352   4.227   2.813
 3237TIP3   OH2 9716   4.389   1.837   4.496
 3237TIP3    H1 9717   4.418   1.818   4.586
 3237TIP3    H2 9718   4.326   1.908   4.506
 3238TIP3   OH2 9719   2.704   0.641   4.740
 3238TIP3    H1 9720   2.785   0.684   4.712
 3238TIP3    H2 9721   2.657   0.708   4.790
 3239TIP3   OH2 9722   4.363   4.395   0.232
 3239TIP3    H1 9723   4.362   4.479   0.187
 3239TIP3    H2 9724   4.277   4.357   0.213
 3240TIP3   OH2 9725   2.866   5.202   1.522
 3240TIP3    H1 9726   2.961   5.196   1.509
 3240TIP3    H2 9727   2.851   5.164   1.609
 3241TIP3   OH2 9728   5.723   1.004   0.368
 3241TIP3    H1 9729   5.639   1.041   0.397
 3241TIP3    H2 9730   5.760   1.071   0.310
 3242TIP3   OH2 9731   0.687   1.189   3.100
 3242TIP3    H1 9732   0.764   1.225   3.056
 3242TIP3    H2 9733   0.626   1.169   3.029
 3243TIP3   OH2 9734   4.931   0.774   4.116
 3243TIP3    H1 9735   4.894   0.808   4.197
 3243TIP3    H2 9736   4.871   0.704   4.089
 3244TIP3   OH2 9737   0.432   4.567   2.970
 3244TIP3    H1 9738   0.403   4.520   2.892
 3244TIP3    H2 9739   0.523   4.540   2.983
 3245TIP3   OH2 9740   4.305   3.289   1.563
 3245TIP3    H1 9741   4.266   3.236   1.493
 3245TIP3    H2 9742   4.259   3.261   1.642
 3246TIP3   OH2 9743   1.881   2.811   4.729
 3246TIP3    H1 9744   1.845   2.877   4.789
 3246TIP3    H2 9745   1.955   2.774   4.777
 3247TIP3   OH2 9746   4.534   1.490   1.925
 3247TIP3    H1 9747   4.485   1.503   2.006
 3247TIP3    H2 9748   4.499   1.555   1.865
 3248TIP3   OH2 9749   1.387   4.816   5.035
 3248TIP3    H1 9750   1.406   4.819   5.129
 3248TIP3    H2 9751   1.461   4.859   4.994
 3249TIP3   OH2 9752   3.091   4.295   3.469
 3249TIP3    H1 9753   3.008   4.284   3.514
 3249TIP3    H2 9754   3.068   4.305   3.377
 3250TIP3   OH2 9755   4.605   1.087   1.471
 3250TIP3    H1 9756   4.642   1.007   1.436
 3250TIP3    H2 9757   4.601   1.146   1.396
 3251TIP3   OH2 9758   0.971   2.211   2.476
 3251TIP3    H1 9759   0.930   2.296   2.459
 3251TIP3    H2 9760   0.900   2.148   2.464
 3252TIP3   OH2 9761   4.521   2.805   0.653
 3252TIP3    H1 9762   4.435   2.780   0.687
 3252TIP3    H2 9763   4.521   2.773   0.563
 3253TIP3   OH2 9764   0.165   0.429   5.014
 3253TIP3    H1 9765   0.103   0.396   4.949
 3253TIP3    H2 9766   0.121   0.415   5.098
 3254TIP3   OH2 9767   1.178   5.338   3.704
 3254TIP3    H1 9768   1.261   5.307   3.668
 3254TIP3    H2 9769   1.198   5.426   3.737
 3255TIP3   OH2 9770   2.926   4.709   0.296
 3255TIP3    H1 9771   2.979   4.654   0.352
 3255TIP3    H2 9772   2.961   4.695   0.208
 3256TIP3   OH2 9773   1.962   0.998   1.513
 3256TIP3    H1 9774   1.867   1.000   1.525
 3256TIP3    H2 9775   1.993   1.080   1.551
 3257TIP3   OH2 9776   2.603   1.365   4.717
 3257TIP3    H1 9777   2.642   1.318   4.791
 3257TIP3    H2 9778   2.666   1.435   4.697
 3258TIP3   OH2 9779   1.602   0.790   2.531
 3258TIP3    H1 9780   1.665   0.762   2.465
 3258TIP3    H2 9781   1.520   0.748   2.505
 3259TIP3   OH2 9782   0.356   0.960   4.421
 3259TIP3    H1 9783   0.426   1.012   4.460
 3259TIP3    H2 9784   0.315   1.017   4.357
 3260TIP3   OH2 9785   5.860   0.382   5.106
 3260TIP3    H1 9786   5.919   0.451   5.137
 3260TIP3    H2 9787   5.785   0.429   5.070
 3261TIP3   OH2 9788   0.924   0.334   3.532
 3261TIP3    H1 9789   0.901   0.315   3.623
 3261TIP3    H2 9790   0.870   0.275   3.481
 3262TIP3   OH2 9791   1.316   2.678   4.876
 3262TIP3    H1 9792   1.265   2.759   4.885
 3262TIP3    H2 9793   1.310   2.656   4.783
 3263TIP3   OH2 9794   5.775   5.014   2.448
 3263TIP3    H1 9795   5.852   5.002   2.392
 3263TIP3    H2 9796   5.723   4.934   2.434
 3264TIP3   OH2 9797   2.218   5.209   2.899
 3264TIP3    H1 9798   2.171   5.155   2.964
 3264TIP3    H2 9799   2.275   5.147   2.853
 3265TIP3   OH2 9800   0.337   4.519   1.022
 3265TIP3    H1 9801   0.253   4.563   1.031
 3265TIP3    H2 9802   0.356   4.485   1.109
 3266TIP3   OH2 9803   1.056   2.948   2.078
 3266TIP3    H1 9804   1.065   2.993   2.162
 3266TIP3    H2 9805   1.031   2.859   2.101
 3267TIP3   OH2 9806   0.064   4.087   4.471
 3267TIP3    H1 9807   0.059   4.010   4.414
 3267TIP3    H2 9808   0.025   4.057   4.554
 3268TIP3   OH2 9809   2.240   5.910   0.298
 3268TIP3    H1 9810   2.166   5.945   0.248
 3268TIP3    H2 9811   2.254   5.822   0.262
 3269TIP3   OH2 9812   4.475   1.048   3.810
 3269TIP3    H1 9813   4.398   1.082   3.764
 3269TIP3    H2 9814   4.516   1.126   3.848
 3270TIP3   OH2 9815   2.801   1.933   5.095
 3270TIP3    H1 9816   2.749   1.858   5.123
 3270TIP3    H2 9817   2.868   1.895   5.037
 3271TIP3   OH2 9818   4.543   4.646   3.746
 3271TIP3    H1 9819   4.453   4.639   3.714
 3271TIP3    H2 9820   4.583   4.561   3.724
 3272TIP3   OH2 9821   1.881   2.072   4.916
 3272TIP3    H1 9822   1.854   1.994   4.868
 3272TIP3    H2 9823   1.799   2.110   4.948
 3273TIP3   OH2 9824   2.016   1.287   4.789
 3273TIP3    H1 9825   2.074   1.324   4.856
 3273TIP3    H2 9826   2.065   1.211   4.755
 3274TIP3   OH2 9827   4.413   0.640   2.478
 3274TIP3    H1 9828   4.443   0.563   2.526
 3274TIP3    H2 9829   4.402   0.707   2.545
 3275TIP3   OH2 9830   3.962   4.655   4.234
 3275TIP3    H1 9831   3.995   4.692   4.316
 3275TIP3    H2 9832   3.880   4.611   4.259
 3276TIP3   OH2 9833   1.938   1.590   5.002
 3276TIP3    H1 9834   1.952   1.519   4.939
 3276TIP3    H2 9835   2.026   1.628   5.014
 3277TIP3   OH2 9836   3.876   2.239   1.082
 3277TIP3    H1 9837   3.919   2.238   0.997
 3277TIP3    H2 9838   3.885   2.149   1.114
 3278TIP3   OH2 9839   5.132   1.594   0.236
 3278TIP3    H1 9840   5.156   1.501   0.242
 3278TIP3    H2 9841   5.198   1.631   0.178
 3279TIP3   OH2 9842   1.462   0.469   3.020
 3279TIP3    H1 9843   1.432   0.428   3.101
 3279TIP3    H2 9844   1.435   0.561   3.028
 3280TIP3   OH2 9845   5.656   3.762   3.024
 3280TIP3    H1 9846   5.596   3.763   3.099
 3280TIP3    H2 9847   5.614   3.819   2.959
 3281TIP3   OH2 9848   0.438   1.152   3.725
 3281TIP3    H1 9849   0.516   1.133   3.671
 3281TIP3    H2 9850   0.413   1.066   3.760
 3282TIP3   OH2 9851   0.035   4.921   2.924
 3282TIP3    H1 9852  -0.011   4.922   3.007
 3282TIP3    H2 9853   0.120   4.883   2.944
 3283TIP3   OH2 9854   1.912   5.771   1.090
 3283TIP3    H1 9855   1.952   5.853   1.063
 3283TIP3    H2 9856   1.982   5.722   1.133
 3284TIP3   OH2 9857   1.843  -0.015   3.913
 3284TIP3    H1 9858   1.839   0.003   4.007
 3284TIP3    H2 9859   1.769   0.032   3.876
 3285TIP3   OH2 9860   5.310   1.249   3.807
 3285TIP3    H1 9861   5.381   1.185   3.812
 3285TIP3    H2 9862   5.297   1.278   3.897
 3286TIP3   OH2 9863   2.099   0.439   1.068
 3286TIP3    H1 9864   2.188   0.439   1.033
 3286TIP3    H2 9865   2.106   0.392   1.151
 3287TIP3   OH2 9866   3.166   2.546   1.996
 3287TIP3    H1 9867   3.220   2.516   2.069
 3287TIP3    H2 9868   3.076   2.532   2.025
 3288TIP3   OH2 9869   0.272   3.222   1.434
 3288TIP3    H1 9870   0.361   3.256   1.445
 3288TIP3    H2 9871   0.259   3.219   1.340
 3289TIP3   OH2 9872   1.459   1.130   1.312
 3289TIP3    H1 9873   1.383   1.170   1.354
 3289TIP3    H2 9874   1.438   1.131   1.219
 3290TIP3   OH2 9875   5.742   3.024   1.067
 3290TIP3    H1 9876   5.679   2.990   1.131
 3290TIP3    H2 9877   5.754   3.115   1.093
 3291TIP3   OH2 9878   3.767   4.907   0.443
 3291TIP3    H1 9879   3.680   4.915   0.481
 3291TIP3    H2 9880   3.756   4.853   0.366
 3292TIP3   OH2 9881   2.975   1.751   2.658
 3292TIP3    H1 9882   2.970   1.812   2.732
 3292TIP3    H2 9883   2.915   1.786   2.593
 3293TIP3   OH2 9884   3.665   3.353   3.160
 3293TIP3    H1 9885   3.613   3.363   3.081
 3293TIP3    H2 9886   3.702   3.264   3.153
 3294TIP3   OH2 9887   5.666   2.284   1.465
 3294TIP3    H1 9888   5.578   2.248   1.478
 3294TIP3    H2 9889   5.710   2.269   1.549
 3295TIP3   OH2 9890   3.298   4.518   1.866
 3295TIP3    H1 9891   3.232   4.482   1.926
 3295TIP3    H2 9892   3.317   4.448   1.805
 3296TIP3   OH2 9893   6.262   1.160   3.000
 3296TIP3    H1 9894   6.262   1.094   2.931
 3296TIP3    H2 9895   6.202   1.228   2.969
 3297TIP3   OH2 9896   2.093   5.094   4.410
 3297TIP3    H1 9897   2.069   5.179   4.446
 3297TIP3    H2 9898   2.076   5.032   4.482
 3298TIP3   OH2 9899   5.859   5.978   4.339
 3298TIP3    H1 9900   5.884   5.939   4.422
 3298TIP3    H2 9901   5.820   6.062   4.362
 3299TIP3   OH2 9902   1.373   5.355   3.052
 3299TIP3    H1 9903   1.355   5.448   3.066
 3299TIP3    H2 9904   1.350   5.314   3.135
 3300TIP3   OH2 9905   5.073   4.279   4.396
 3300TIP3    H1 9906   5.057   4.333   4.473
 3300TIP3    H2 9907   5.118   4.202   4.429
 3301TIP3   OH2 9908   6.203   2.774   5.047
 3301TIP3    H1 9909   6.138   2.838   5.017
 3301TIP3    H2 9910   6.152   2.702   5.083
 3302TIP3   OH2 9911   5.331   3.604   1.049
 3302TIP3    H1 9912   5.263   3.572   1.108
 3302TIP3    H2 9913   5.404   3.543   1.062
 3303TIP3   OH2 9914   1.009   2.748   4.346
 3303TIP3    H1 9915   1.029   2.841   4.356
 3303TIP3    H2 9916   1.062   2.705   4.413
 3304TIP3   OH2 9917   6.066   5.796   0.157
 3304TIP3    H1 9918   6.008   5.721   0.143
 3304TIP3    H2 9919   6.148   5.757   0.187
 3305TIP3   OH2 9920   1.882   5.424   2.927
 3305TIP3    H1 9921   1.812   5.370   2.891
 3305TIP3    H2 9922   1.868   5.421   3.022
 3306TIP3   OH2 9923   3.398   3.405   2.521
 3306TIP3    H1 9924   3.359   3.488   2.494
 3306TIP3    H2 9925   3.476   3.429   2.570
 3307TIP3   OH2 9926   4.904   4.017   0.816
 3307TIP3    H1 9927   4.863   3.931   0.823
 3307TIP3    H2 9928   4.872   4.065   0.893
 3308TIP3   OH2 9929   5.263   4.725   2.851
 3308TIP3    H1 9930   5.335   4.742   2.912
 3308TIP3    H2 9931   5.285   4.775   2.773
 3309TIP3   OH2 9932   5.860   1.736   3.205
 3309TIP3    H1 9933   5.775   1.780   3.199
 3309TIP3    H2 9934   5.882   1.738   3.298
 3310TIP3   OH2 9935   5.548   5.568   3.535
 3310TIP3    H1 9936   5.513   5.640   3.587
 3310TIP3    H2 9937   5.553   5.603   3.446
 3311TIP3   OH2 9938   6.203   3.254   4.905
 3311TIP3    H1 9939   6.206   3.334   4.853
 3311TIP3    H2 9940   6.208   3.284   4.996
 3312TIP3   OH2 9941   2.204   2.065   1.116
 3312TIP3    H1 9942   2.244   2.101   1.195
 3312TIP3    H2 9943   2.139   2.003   1.148
 3313TIP3   OH2 9944   6.069   5.227   3.558
 3313TIP3    H1 9945   6.091   5.291   3.490
 3313TIP3    H2 9946   6.016   5.162   3.513
 3314TIP3   OH2 9947   4.163   1.358   1.969
 3314TIP3    H1 9948   4.222   1.283   1.972
 3314TIP3    H2 9949   4.167   1.388   1.878
 3315TIP3   OH2 9950   2.499   5.270   2.238
 3315TIP3    H1 9951   2.446   5.263   2.159
 3315TIP3    H2 9952   2.585   5.297   2.206
 3316TIP3   OH2 9953   5.565   3.203   2.231
 3316TIP3    H1 9954   5.576   3.138   2.300
 3316TIP3    H2 9955   5.499   3.263   2.267
 3317TIP3   OH2 9956   3.392   1.730   3.938
 3317TIP3    H1 9957   3.302   1.698   3.929
 3317TIP3    H2 9958   3.384   1.825   3.929
 3318TIP3   OH2 9959   6.301   1.199   0.852
 3318TIP3    H1 9960   6.326   1.109   0.835
 3318TIP3    H2 9961   6.324   1.213   0.944
 3319TIP3   OH2 9962   1.406   5.213   3.934
 3319TIP3    H1 9963   1.413   5.240   3.843
 3319TIP3    H2 9964   1.436   5.122   3.934
 3320TIP3   OH2 9965   2.352   1.410   3.682
 3320TIP3    H1 9966   2.435   1.446   3.649
 3320TIP3    H2 9967   2.291   1.483   3.680
 3321TIP3   OH2 9968   6.274   3.581   2.919
 3321TIP3    H1 9969   6.218   3.575   2.842
 3321TIP3    H2 9970   6.351   3.528   2.898
 3322TIP3   OH2 9971   2.048   2.584   3.572
 3322TIP3    H1 9972   2.010   2.502   3.606
 3322TIP3    H2 9973   2.028   2.649   3.639
 3323TIP3   OH2 9974   5.981   3.144   3.784
 3323TIP3    H1 9975   5.921   3.149   3.710
 3323TIP3    H2 9976   6.068   3.151   3.746
 3324TIP3   OH2 9977   4.582   3.954   3.477
 3324TIP3    H1 9978   4.559   4.021   3.412
 3324TIP3    H2 9979   4.653   3.905   3.435
 3325TIP3   OH2 9980   3.732   1.518   0.704
 3325TIP3    H1 9981   3.699   1.548   0.789
 3325TIP3    H2 9982   3.811   1.468   0.724
 3326TIP3   OH2 9983   1.286   4.615   4.043
 3326TIP3    H1 9984   1.375   4.586   4.024
 3326TIP3    H2 9985   1.233   4.536   4.037
 3327TIP3   OH2 9986   2.893   2.548   2.099
 3327TIP3    H1 9987   2.882   2.533   2.193
 3327TIP3    H2 9988   2.823   2.497   2.058
 3328TIP3   OH2 9989   5.228   2.374   2.136
 3328TIP3    H1 9990   5.156   2.419   2.182
 3328TIP3    H2 9991   5.296   2.365   2.203
 3329TIP3   OH2 9992   4.991   1.975   4.486
 3329TIP3    H1 9993   4.996   2.071   4.485
 3329TIP3    H2 9994   4.958   1.954   4.573
 3330TIP3   OH2 9995   0.912   5.867   0.941
 3330TIP3    H1 9996   0.990   5.813   0.931
 3330TIP3    H2 9997   0.905   5.915   0.858
 3331TIP3   OH2 9998   1.588   3.347   2.348
 3331TIP3    H1 9999   1.568   3.425   2.296
 3331TIP3    H210000   1.503   3.321   2.384
 3332TIP3   OH210001   0.644   2.130   5.182
 3332TIP3    H110002   0.598   2.083   5.252
 3332TIP3    H210003   0.725   2.081   5.169
 3333TIP3   OH210004   1.159   3.815   4.529
 3333TIP3    H110005   1.190   3.825   4.439
 3333TIP3    H210006   1.190   3.728   4.554
 3334TIP3   OH210007   3.003   1.206   1.514
 3334TIP3    H110008   3.037   1.279   1.463
 3334TIP3    H210009   2.927   1.241   1.560
 3335TIP3   OH210010   4.476   2.820   3.277
 3335TIP3    H110011   4.407   2.886   3.269
 3335TIP3    H210012   4.467   2.786   3.366
 3336TIP3   OH210013   4.531   2.508   1.360
 3336TIP3    H110014   4.568   2.556   1.434
 3336TIP3    H210015   4.606   2.471   1.315
 3337TIP3   OH210016   4.927   5.549   1.499
 3337TIP3    H110017   5.008   5.521   1.455
 3337TIP3    H210018   4.957   5.613   1.564
 3338TIP3   OH210019   1.158   2.111   2.189
 3338TIP3    H110020   1.102   2.040   2.224
 3338TIP3    H210021   1.184   2.080   2.103
 3339TIP3   OH210022   2.401   1.282   5.003
 3339TIP3    H110023   2.414   1.210   5.066
 3339TIP3    H210024   2.490   1.308   4.978
 3340TIP3   OH210025   6.284   0.375   5.158
 3340TIP3    H110026   6.219   0.327   5.210
 3340TIP3    H210027   6.233   0.418   5.090
 3341TIP3   OH210028   0.279   2.977   0.283
 3341TIP3    H110029   0.238   2.906   0.332
 3341TIP3    H210030   0.345   3.013   0.342
 3342TIP3   OH210031   5.961   5.062   2.249
 3342TIP3    H110032   5.956   5.046   2.155
 3342TIP3    H210033   6.054   5.050   2.271
 3343TIP3   OH210034   4.215   5.081   2.788
 3343TIP3    H110035   4.126   5.069   2.822
 3343TIP3    H210036   4.272   5.069   2.864
 3344TIP3   OH210037   3.693   4.174   0.334
 3344TIP3    H110038   3.679   4.174   0.429
 3344TIP3    H210039   3.717   4.265   0.313
 3345TIP3   OH210040   6.016   4.251   3.554
 3345TIP3    H110041   6.060   4.267   3.637
 3345TIP3    H210042   5.972   4.334   3.533
 3346TIP3   OH210043   5.431   2.735   0.024
 3346TIP3    H110044   5.439   2.817   0.073
 3346TIP3    H210045   5.374   2.756  -0.050
 3347TIP3   OH210046   4.727   0.596   3.260
 3347TIP3    H110047   4.740   0.665   3.194
 3347TIP3    H210048   4.806   0.542   3.254
 3348TIP3   OH210049   3.588   3.204   4.241
 3348TIP3    H110050   3.580   3.295   4.269
 3348TIP3    H210051   3.559   3.153   4.316
 3349TIP3   OH210052   4.460   5.364   4.735
 3349TIP3    H110053   4.519   5.289   4.746
 3349TIP3    H210054   4.399   5.357   4.808
 3350TIP3   OH210055   3.479   2.631   0.153
 3350TIP3    H110056   3.406   2.668   0.102
 3350TIP3    H210057   3.542   2.703   0.159
 3351TIP3   OH210058   5.574   4.598   4.687
 3351TIP3    H110059   5.540   4.656   4.618
 3351TIP3    H210060   5.661   4.632   4.706
 3352TIP3   OH210061   3.203   3.109   4.647
 3352TIP3    H110062   3.233   3.091   4.736
 3352TIP3    H210063   3.125   3.164   4.658
 3353TIP3   OH210064   4.057   4.062   2.158
 3353TIP3    H110065   4.032   4.140   2.207
 3353TIP3    H210066   4.088   4.000   2.224
 3354TIP3   OH210067   0.904   5.394   2.583
 3354TIP3    H110068   0.825   5.446   2.569
 3354TIP3    H210069   0.957   5.447   2.643
 3355TIP3   OH210070   0.800   0.015   2.457
 3355TIP3    H110071   0.814   0.023   2.363
 3355TIP3    H210072   0.888   0.011   2.495
 3356TIP3   OH210073   2.020   1.541   1.782
 3356TIP3    H110074   1.961   1.467   1.793
 3356TIP3    H210075   1.991   1.583   1.700
 3357TIP3   OH210076   2.922   4.982   4.193
 3357TIP3    H110077   2.990   4.991   4.259
 3357TIP3    H210078   2.840   4.975   4.242
 3358TIP3   OH210079   3.356   5.023   0.779
 3358TIP3    H110080   3.416   4.966   0.730
 3358TIP3    H210081   3.268   4.993   0.752
 3359TIP3   OH210082   3.772   3.549   3.332
 3359TIP3    H110083   3.773   3.502   3.415
 3359TIP3    H210084   3.724   3.491   3.272
 3360TIP3   OH210085   5.806   3.157   5.050
 3360TIP3    H110086   5.886   3.143   5.100
 3360TIP3    H210087   5.781   3.070   5.020
 3361TIP3   OH210088   5.395   0.540   2.724
 3361TIP3    H110089   5.302   0.519   2.726
 3361TIP3    H210090   5.398   0.636   2.716
 3362TIP3   OH210091   5.656   2.351   5.090
 3362TIP3    H110092   5.694   2.302   5.018
 3362TIP3    H210093   5.615   2.427   5.049
 3363TIP3   OH210094   3.163   1.643   0.211
 3363TIP3    H110095   3.127   1.729   0.190
 3363TIP3    H210096   3.093   1.581   0.188
 3364TIP3   OH210097   6.182   5.683   1.173
 3364TIP3    H110098   6.098   5.726   1.187
 3364TIP3    H210099   6.248   5.751   1.189
 3365TIP3   OH210100   5.743   3.293   0.256
 3365TIP3    H110101   5.691   3.297   0.336
 3365TIP3    H210102   5.800   3.217   0.268
 3366TIP3   OH210103   6.110   5.538   3.737
 3366TIP3    H110104   6.038   5.593   3.707
 3366TIP3    H210105   6.068   5.466   3.785
 3367TIP3   OH210106   0.601   5.908   4.744
 3367TIP3    H110107   0.555   5.852   4.806
 3367TIP3    H210108   0.532   5.951   4.694
 3368TIP3   OH210109   0.568   2.395   1.794
 3368TIP3    H110110   0.590   2.455   1.722
 3368TIP3    H210111   0.651   2.381   1.840
 3369TIP3   OH210112   2.243   4.661   0.056
 3369TIP3    H110113   2.183   4.719   0.101
 3369TIP3    H210114   2.208   4.653  -0.033
 3370TIP3   OH210115   4.170   5.889   2.237
 3370TIP3    H110116   4.183   5.877   2.143
 3370TIP3    H210117   4.111   5.963   2.244
 3371TIP3   OH210118   1.674   3.642   0.093
 3371TIP3    H110119   1.662   3.737   0.086
 3371TIP3    H210120   1.734   3.631   0.166
 3372TIP3   OH210121   5.390   4.217   0.438
 3372TIP3    H110122   5.458   4.232   0.373
 3372TIP3    H210123   5.397   4.124   0.459
 3373TIP3   OH210124   4.472   0.338   3.545
 3373TIP3    H110125   4.399   0.284   3.515
 3373TIP3    H210126   4.475   0.411   3.482
 3374TIP3   OH210127   5.461   1.996   5.125
 3374TIP3    H110128   5.447   1.903   5.145
 3374TIP3    H210129   5.555   2.008   5.138
 3375TIP3   OH210130   2.802   1.869   2.463
 3375TIP3    H110131   2.812   1.930   2.391
 3375TIP3    H210132   2.754   1.795   2.426
 3376TIP3   OH210133   5.008   5.290   1.162
 3376TIP3    H110134   4.936   5.340   1.199
 3376TIP3    H210135   5.085   5.346   1.174
 3377TIP3   OH210136   0.080   4.801   1.374
 3377TIP3    H110137   0.143   4.772   1.440
 3377TIP3    H210138   0.087   4.896   1.375
 3378TIP3   OH210139   1.497   5.641   3.695
 3378TIP3    H110140   1.534   5.553   3.682
 3378TIP3    H210141   1.405   5.633   3.670
 3379TIP3   OH210142   4.380   1.212   4.357
 3379TIP3    H110143   4.372   1.204   4.262
 3379TIP3    H210144   4.370   1.306   4.374
 3380TIP3   OH210145   4.412   4.531   1.590
 3380TIP3    H110146   4.358   4.523   1.511
 3380TIP3    H210147   4.491   4.575   1.561
 3381TIP3   OH210148   3.877   3.809   4.641
 3381TIP3    H110149   3.911   3.826   4.553
 3381TIP3    H210150   3.924   3.731   4.669
 3382TIP3   OH210151   3.458   5.065   5.098
 3382TIP3    H110152   3.452   5.155   5.067
 3382TIP3    H210153   3.486   5.072   5.189
 3383TIP3   OH210154   6.309   2.758   3.183
 3383TIP3    H110155   6.240   2.782   3.245
 3383TIP3    H210156   6.322   2.838   3.131
 3384TIP3   OH210157   0.840   4.483   1.431
 3384TIP3    H110158   0.803   4.411   1.380
 3384TIP3    H210159   0.776   4.553   1.423
 3385TIP3   OH210160   4.617   1.668   1.071
 3385TIP3    H110161   4.654   1.743   1.118
 3385TIP3    H210162   4.689   1.605   1.066
 3386TIP3   OH210163   3.431   1.336   4.316
 3386TIP3    H110164   3.341   1.336   4.283
 3386TIP3    H210165   3.476   1.399   4.260
 3387TIP3   OH210166   0.500   5.424   1.304
 3387TIP3    H110167   0.485   5.508   1.347
 3387TIP3    H210168   0.591   5.428   1.274
 3388TIP3   OH210169   2.102   5.243   1.543
 3388TIP3    H110170   2.100   5.320   1.486
 3388TIP3    H210171   2.121   5.278   1.630
 3389TIP3   OH210172   2.254   4.752   4.232
 3389TIP3    H110173   2.172   4.716   4.266
 3389TIP3    H210174   2.278   4.693   4.161
 3390TIP3   OH210175   2.540   0.061   4.349
 3390TIP3    H110176   2.554   0.089   4.439
 3390TIP3    H210177   2.527  -0.033   4.354
 3391TIP3   OH210178   2.671   0.983   1.973
 3391TIP3    H110179   2.652   0.970   2.066
 3391TIP3    H210180   2.716   1.068   1.970
 3392TIP3   OH210181   5.375   3.438   2.214
 3392TIP3    H110182   5.453   3.483   2.249
 3392TIP3    H210183   5.317   3.509   2.186
 3393TIP3   OH210184   2.146   0.451   2.376
 3393TIP3    H110185   2.112   0.363   2.358
 3393TIP3    H210186   2.111   0.473   2.462
 3394TIP3   OH210187   0.477   2.214   1.574
 3394TIP3    H110188   0.477   2.299   1.619
 3394TIP3    H210189   0.537   2.226   1.500
 3395TIP3   OH210190   3.270   1.075   5.008
 3395TIP3    H110191   3.214   1.123   5.069
 3395TIP3    H210192   3.357   1.079   5.047
 3396TIP3   OH210193   3.954  -0.025   3.186
 3396TIP3    H110194   3.964   0.060   3.228
 3396TIP3    H210195   3.884  -0.011   3.122
 3397TIP3   OH210196   3.861   5.107   4.877
 3397TIP3    H110197   3.784   5.051   4.882
 3397TIP3    H210198   3.854   5.164   4.953
 3398TIP3   OH210199   3.553   3.068   2.997
 3398TIP3    H110200   3.636   3.088   3.041
 3398TIP3    H210201   3.548   2.973   2.999
 3399TIP3   OH210202   0.614   0.799   2.603
 3399TIP3    H110203   0.594   0.814   2.511
 3399TIP3    H210204   0.528   0.788   2.644
 3400TIP3   OH210205   5.194   3.145   4.270
 3400TIP3    H110206   5.185   3.233   4.306
 3400TIP3    H210207   5.165   3.154   4.179
 3401TIP3   OH210208   3.078   1.840   4.956
 3401TIP3    H110209   3.009   1.824   4.891
 3401TIP3    H210210   3.105   1.753   4.983
 3402TIP3   OH210211   0.723   0.421   4.486
 3402TIP3    H110212   0.644   0.415   4.431
 3402TIP3    H210213   0.689   0.426   4.575
 3403TIP3   OH210214   3.427   1.304   4.597
 3403TIP3    H110215   3.436   1.321   4.503
 3403TIP3    H210216   3.507   1.257   4.620
 3404TIP3   OH210217   3.072   2.840   4.503
 3404TIP3    H110218   3.008   2.800   4.444
 3404TIP3    H210219   3.027   2.916   4.539
 3405TIP3   OH210220   2.293   5.040   3.214
 3405TIP3    H110221   2.310   5.076   3.301
 3405TIP3    H210222   2.204   5.069   3.193
 3406TIP3   OH210223   0.974   3.357   3.528
 3406TIP3    H110224   1.038   3.298   3.566
 3406TIP3    H210225   0.963   3.326   3.438
 3407TIP3   OH210226   3.618   3.769   4.066
 3407TIP3    H110227   3.611   3.839   4.001
 3407TIP3    H210228   3.710   3.740   4.060
 3408TIP3   OH210229   3.940   1.137   2.493
 3408TIP3    H110230   3.885   1.112   2.419
 3408TIP3    H210231   3.969   1.226   2.471
 3409TIP3   OH210232   3.217   4.620   4.034
 3409TIP3    H110233   3.284   4.593   3.972
 3409TIP3    H210234   3.148   4.555   4.025
 3410TIP3   OH210235   5.935   2.492   2.104
 3410TIP3    H110236   5.905   2.578   2.132
 3410TIP3    H210237   6.030   2.494   2.115
 3411TIP3   OH210238   0.405   2.247   4.698
 3411TIP3    H110239   0.323   2.281   4.662
 3411TIP3    H210240   0.393   2.254   4.793
 3412TIP3   OH210241   2.933   3.533   2.714
 3412TIP3    H110242   2.990   3.547   2.790
 3412TIP3    H210243   2.866   3.601   2.721
 3413TIP3   OH210244   0.980   1.910   0.381
 3413TIP3    H110245   1.060   1.890   0.331
 3413TIP3    H210246   1.012   1.942   0.465
 3414TIP3   OH210247   1.868   2.835   0.531
 3414TIP3    H110248   1.775   2.853   0.548
 3414TIP3    H210249   1.871   2.810   0.439
 3415TIP3   OH210250   2.484   1.944   2.231
 3415TIP3    H110251   2.436   1.906   2.304
 3415TIP3    H210252   2.534   1.872   2.195
 3416TIP3   OH210253   6.174   2.873   1.972
 3416TIP3    H110254   6.105   2.939   1.960
 3416TIP3    H210255   6.220   2.872   1.888
 3417TIP3   OH210256   3.445   0.773   3.254
 3417TIP3    H110257   3.481   0.763   3.342
 3417TIP3    H210258   3.521   0.773   3.197
 3418TIP3   OH210259   3.963   4.889   4.097
 3418TIP3    H110260   4.055   4.893   4.124
 3418TIP3    H210261   3.934   4.802   4.126
 3419TIP3   OH210262   1.011   3.669   1.253
 3419TIP3    H110263   0.944   3.737   1.259
 3419TIP3    H210264   0.963   3.592   1.221
 3420TIP3   OH210265   4.232   5.368   1.769
 3420TIP3    H110266   4.176   5.374   1.847
 3420TIP3    H210267   4.274   5.283   1.776
 3421TIP3   OH210268   0.778   1.851   0.231
 3421TIP3    H110269   0.789   1.758   0.212
 3421TIP3    H210270   0.845   1.871   0.296
 3422TIP3   OH210271   3.384   2.196   1.005
 3422TIP3    H110272   3.337   2.165   1.082
 3422TIP3    H210273   3.343   2.279   0.983
 3423TIP3   OH210274   5.340   5.170   4.865
 3423TIP3    H110275   5.274   5.115   4.908
 3423TIP3    H210276   5.356   5.240   4.927
 3424TIP3   OH210277   3.903   0.180   1.445
 3424TIP3    H110278   3.981   0.124   1.438
 3424TIP3    H210279   3.833   0.130   1.404
 3425TIP3   OH210280   1.796   2.478   3.680
 3425TIP3    H110281   1.781   2.385   3.662
 3425TIP3    H210282   1.833   2.480   3.768
 3426TIP3   OH210283   0.123   5.782   4.191
 3426TIP3    H110284   0.212   5.762   4.162
 3426TIP3    H210285   0.134   5.818   4.279
 3427TIP3   OH210286   3.624   2.696   0.496
 3427TIP3    H110287   3.599   2.637   0.425
 3427TIP3    H210288   3.556   2.763   0.496
 3428TIP3   OH210289   3.312   5.883   1.492
 3428TIP3    H110290   3.233   5.830   1.508
 3428TIP3    H210291   3.282   5.951   1.432
 3429TIP3   OH210292   1.354   1.079   4.631
 3429TIP3    H110293   1.411   1.145   4.591
 3429TIP3    H210294   1.389   1.066   4.719
 3430TIP3   OH210295   2.684   2.132   3.900
 3430TIP3    H110296   2.635   2.178   3.968
 3430TIP3    H210297   2.626   2.060   3.873
 3431TIP3   OH210298   4.610   0.992   2.731
 3431TIP3    H110299   4.628   1.007   2.639
 3431TIP3    H210300   4.573   1.075   2.762
 3432TIP3   OH210301   1.062   3.576   2.555
 3432TIP3    H110302   1.017   3.635   2.616
 3432TIP3    H210303   1.052   3.489   2.594
 3433TIP3   OH210304   3.351   4.089   1.162
 3433TIP3    H110305   3.331   4.128   1.077
 3433TIP3    H210306   3.446   4.094   1.170
 3434TIP3   OH210307   3.072   2.124   4.649
 3434TIP3    H110308   3.141   2.148   4.588
 3434TIP3    H210309   3.033   2.208   4.675
 3435TIP3   OH210310   2.838   4.292   3.876
 3435TIP3    H110311   2.772   4.244   3.926
 3435TIP3    H210312   2.899   4.325   3.942
 3436TIP3   OH210313   5.893   2.073   0.529
 3436TIP3    H110314   5.828   2.067   0.458
 3436TIP3    H210315   5.907   2.167   0.541
 3437TIP3   OH210316   0.719   5.199   1.249
 3437TIP3    H110317   0.684   5.130   1.193
 3437TIP3    H210318   0.806   5.216   1.213
 3438TIP3   OH210319   4.578   5.751   0.092
 3438TIP3    H110320   4.664   5.711   0.097
 3438TIP3    H210321   4.596   5.843   0.070
 3439TIP3   OH210322   6.199   3.896   2.890
 3439TIP3    H110323   6.136   3.961   2.861
 3439TIP3    H210324   6.170   3.871   2.978
 3440TIP3   OH210325   5.580   3.259   3.262
 3440TIP3    H110326   5.621   3.303   3.337
 3440TIP3    H210327   5.501   3.309   3.245
 3441TIP3   OH210328   5.517   3.666   0.235
 3441TIP3    H110329   5.534   3.710   0.151
 3441TIP3    H210330   5.442   3.713   0.272
 3442TIP3   OH210331   1.385   0.225   4.644
 3442TIP3    H110332   1.368   0.158   4.578
 3442TIP3    H210333   1.462   0.271   4.611
 3443TIP3   OH210334   5.335   4.319   2.844
 3443TIP3    H110335   5.353   4.232   2.808
 3443TIP3    H210336   5.358   4.380   2.774
 3444TIP3   OH210337   2.361   2.971   4.222
 3444TIP3    H110338   2.298   2.913   4.180
 3444TIP3    H210339   2.407   3.012   4.149
 3445TIP3   OH210340   2.712   2.933   4.897
 3445TIP3    H110341   2.636   2.915   4.954
 3445TIP3    H210342   2.675   2.935   4.808
 3446TIP3   OH210343   2.796   2.753   3.409
 3446TIP3    H110344   2.748   2.803   3.475
 3446TIP3    H210345   2.786   2.662   3.435
 3447TIP3   OH210346   5.274   2.583   2.825
 3447TIP3    H110347   5.341   2.622   2.881
 3447TIP3    H210348   5.252   2.500   2.868
 3448TIP3   OH210349   1.241   3.658   2.906
 3448TIP3    H110350   1.295   3.586   2.939
 3448TIP3    H210351   1.151   3.626   2.917
 3449TIP3   OH210352   3.778   3.892   3.626
 3449TIP3    H110353   3.792   3.949   3.702
 3449TIP3    H210354   3.697   3.925   3.586
 3450TIP3   OH210355   6.268   2.481   2.811
 3450TIP3    H110356   6.197   2.420   2.791
 3450TIP3    H210357   6.341   2.425   2.838
 3451TIP3   OH210358   1.743   3.595   1.481
 3451TIP3    H110359   1.806   3.561   1.417
 3451TIP3    H210360   1.663   3.609   1.430
 3452TIP3   OH210361   6.351   3.359   1.084
 3452TIP3    H110362   6.371   3.433   1.027
 3452TIP3    H210363   6.363   3.393   1.173
 3453TIP3   OH210364   0.696   2.849   2.512
 3453TIP3    H110365   0.658   2.822   2.595
 3453TIP3    H210366   0.710   2.943   2.521
 3454TIP3   OH210367   4.296   1.222   2.361
 3454TIP3    H110368   4.272   1.241   2.451
 3454TIP3    H210369   4.358   1.292   2.338
 3455TIP3   OH210370   2.489   1.894   5.128
 3455TIP3    H110371   2.425   1.960   5.102
 3455TIP3    H210372   2.532   1.931   5.206
 3456TIP3   OH210373   0.947   3.811   3.808
 3456TIP3    H110374   0.974   3.766   3.728
 3456TIP3    H210375   0.953   3.904   3.786
 3457TIP3   OH210376   3.892   5.246   2.570
 3457TIP3    H110377   3.944   5.215   2.496
 3457TIP3    H210378   3.812   5.280   2.531
 3458TIP3   OH210379   3.050   2.178   1.360
 3458TIP3    H110380   2.992   2.198   1.287
 3458TIP3    H210381   3.068   2.263   1.401
 3459TIP3   OH210382   4.058   0.326   1.703
 3459TIP3    H110383   4.000   0.250   1.696
 3459TIP3    H210384   4.125   0.310   1.637
 3460TIP3   OH210385   0.936   2.084   3.871
 3460TIP3    H110386   0.846   2.110   3.891
 3460TIP3    H210387   0.958   2.132   3.792
 3461TIP3   OH210388   0.467   1.128   2.947
 3461TIP3    H110389   0.379   1.097   2.968
 3461TIP3    H210390   0.457   1.223   2.934
 3462TIP3   OH210391   3.602   2.138   0.404
 3462TIP3    H110392   3.519   2.115   0.447
 3462TIP3    H210393   3.580   2.214   0.350
 3463TIP3   OH210394   4.365   3.432   1.142
 3463TIP3    H110395   4.329   3.491   1.208
 3463TIP3    H210396   4.423   3.487   1.090
 3464TIP3   OH210397   0.850   1.436   3.932
 3464TIP3    H110398   0.829   1.527   3.953
 3464TIP3    H210399   0.769   1.400   3.896
 3465TIP3   OH210400   1.240   2.449   5.010
 3465TIP3    H110401   1.305   2.409   5.067
 3465TIP3    H210402   1.285   2.524   4.971
 3466TIP3   OH210403   2.472   1.575   1.260
 3466TIP3    H110404   2.458   1.657   1.212
 3466TIP3    H210405   2.557   1.588   1.303
 3467TIP3   OH210406   6.097   4.616   4.394
 3467TIP3    H110407   6.177   4.578   4.428
 3467TIP3    H210408   6.029   4.553   4.415
 3468TIP3   OH210409   2.914   5.731   0.555
 3468TIP3    H110410   2.929   5.826   0.551
 3468TIP3    H210411   2.849   5.715   0.487
 3469TIP3   OH210412   0.462   0.305   5.110
 3469TIP3    H110413   0.408   0.252   5.168
 3469TIP3    H210414   0.401   0.370   5.074
 3470TIP3   OH210415   1.934   2.015   4.239
 3470TIP3    H110416   1.955   1.995   4.331
 3470TIP3    H210417   1.848   1.976   4.225
 3471TIP3   OH210418   3.087   3.031   3.983
 3471TIP3    H110419   3.058   3.019   3.893
 3471TIP3    H210420   3.126   3.118   3.984
 3472TIP3   OH210421   1.301   4.843   0.538
 3472TIP3    H110422   1.209   4.822   0.523
 3472TIP3    H210423   1.327   4.785   0.609
 3473TIP3   OH210424   1.910   5.594   4.466
 3473TIP3    H110425   1.819   5.624   4.464
 3473TIP3    H210426   1.962   5.674   4.462
 3474TIP3   OH210427   6.214   2.903   0.681
 3474TIP3    H110428   6.136   2.955   0.700
 3474TIP3    H210429   6.191   2.856   0.600
 3475TIP3   OH210430   4.241   1.225   4.008
 3475TIP3    H110431   4.156   1.182   4.009
 3475TIP3    H210432   4.297   1.167   4.059
 3476TIP3   OH210433   1.380   1.953   0.951
 3476TIP3    H110434   1.340   1.875   0.990
 3476TIP3    H210435   1.454   1.919   0.901
 3477TIP3   OH210436   1.521   0.538   0.922
 3477TIP3    H110437   1.510   0.596   0.846
 3477TIP3    H210438   1.506   0.450   0.888
 3478TIP3   OH210439   5.043   3.425   0.419
 3478TIP3    H110440   5.066   3.475   0.340
 3478TIP3    H210441   5.126   3.415   0.466
 3479TIP3   OH210442   2.664   2.531   1.935
 3479TIP3    H110443   2.585   2.563   1.892
 3479TIP3    H210444   2.638   2.447   1.974
 3480TIP3   OH210445   4.042   2.521   3.420
 3480TIP3    H110446   3.994   2.449   3.379
 3480TIP3    H210447   3.974   2.584   3.445
 3481TIP3   OH210448   5.132   4.748   4.415
 3481TIP3    H110449   5.068   4.698   4.465
 3481TIP3    H210450   5.139   4.701   4.332
 3482TIP3   OH210451   2.771   5.014   1.787
 3482TIP3    H110452   2.722   4.932   1.790
 3482TIP3    H210453   2.842   5.002   1.849
 3483TIP3   OH210454   4.977   1.862   4.881
 3483TIP3    H110455   5.021   1.783   4.912
 3483TIP3    H210456   4.897   1.830   4.838
 3484TIP3   OH210457   2.842   1.494   4.719
 3484TIP3    H110458   2.847   1.556   4.792
 3484TIP3    H210459   2.933   1.476   4.697
 3485TIP3   OH210460   5.785   0.830   1.289
 3485TIP3    H110461   5.833   0.765   1.339
 3485TIP3    H210462   5.694   0.820   1.316
 3486TIP3   OH210463   4.392   1.813   0.648
 3486TIP3    H110464   4.418   1.747   0.584
 3486TIP3    H210465   4.471   1.827   0.700
 3487TIP3   OH210466   0.958   3.180   5.035
 3487TIP3    H110467   0.948   3.176   5.130
 3487TIP3    H210468   0.876   3.144   5.001
 3488TIP3   OH210469   2.101   5.495   5.030
 3488TIP3    H110470   2.170   5.437   5.000
 3488TIP3    H210471   2.146   5.578   5.049
 3489TIP3   OH210472   3.103   3.098   1.514
 3489TIP3    H110473   3.011   3.091   1.491
 3489TIP3    H210474   3.148   3.108   1.430
 3490TIP3   OH210475   4.302   4.820   0.738
 3490TIP3    H110476   4.292   4.782   0.651
 3490TIP3    H210477   4.305   4.915   0.722
 3491TIP3   OH210478   0.567   2.694   0.367
 3491TIP3    H110479   0.661   2.684   0.353
 3491TIP3    H210480   0.559   2.735   0.453
 3492TIP3   OH210481   3.145   1.410   4.296
 3492TIP3    H110482   3.086   1.390   4.222
 3492TIP3    H210483   3.175   1.500   4.278
 3493TIP3   OH210484   1.396   2.920   1.685
 3493TIP3    H110485   1.390   3.012   1.658
 3493TIP3    H210486   1.364   2.871   1.609
 3494TIP3   OH210487   4.322   1.448   4.672
 3494TIP3    H110488   4.366   1.367   4.696
 3494TIP3    H210489   4.234   1.439   4.708
 3495TIP3   OH210490   2.873   2.920   1.755
 3495TIP3    H110491   2.841   2.830   1.756
 3495TIP3    H210492   2.843   2.956   1.672
 3496TIP3   OH210493   0.232   0.120   4.894
 3496TIP3    H110494   0.283   0.193   4.858
 3496TIP3    H210495   0.212   0.065   4.818
 3497TIP3   OH210496   3.416   4.267   0.482
 3497TIP3    H110497   3.458   4.250   0.567
 3497TIP3    H210498   3.363   4.188   0.466
 3498TIP3   OH210499   2.387   5.046   2.748
 3498TIP3    H110500   2.475   5.076   2.727
 3498TIP3    H210501   2.387   4.953   2.728
 3499TIP3   OH210502   0.896   2.544   0.843
 3499TIP3    H110503   0.984   2.547   0.806
 3499TIP3    H210504   0.889   2.625   0.894
 3500TIP3   OH210505   0.806   3.260   3.938
 3500TIP3    H110506   0.846   3.184   3.897
 3500TIP3    H210507   0.717   3.263   3.902
 3501TIP3   OH210508   1.694   5.302   3.252
 3501TIP3    H110509   1.609   5.269   3.280
 3501TIP3    H210510   1.679   5.395   3.233
 3502TIP3   OH210511   3.818   2.692   4.973
 3502TIP3    H110512   3.874   2.768   4.956
 3502TIP3    H210513   3.864   2.619   4.931
 3503TIP3   OH210514   3.870   4.204   4.865
 3503TIP3    H110515   3.940   4.269   4.863
 3503TIP3    H210516   3.850   4.192   4.958
 3504TIP3   OH210517   3.666   4.666   4.004
 3504TIP3    H110518   3.655   4.575   4.034
 3504TIP3    H210519   3.653   4.719   4.083
 3505TIP3   OH210520   1.924   3.846   1.181
 3505TIP3    H110521   1.934   3.812   1.270
 3505TIP3    H210522   1.829   3.852   1.169
 3506TIP3   OH210523   3.861   2.778   4.212
 3506TIP3    H110524   3.800   2.850   4.195
 3506TIP3    H210525   3.946   2.812   4.183
 3507TIP3   OH210526   2.353   4.231   3.335
 3507TIP3    H110527   2.366   4.190   3.421
 3507TIP3    H210528   2.301   4.309   3.353
 3508TIP3   OH210529   4.577   2.686   0.405
 3508TIP3    H110530   4.526   2.668   0.326
 3508TIP3    H210531   4.623   2.767   0.386
 3509TIP3   OH210532   0.028   4.723   3.947
 3509TIP3    H110533   0.057   4.786   3.881
 3509TIP3    H210534   0.003   4.776   4.023
 3510TIP3   OH210535   3.936   3.001   2.641
 3510TIP3    H110536   3.911   3.093   2.629
 3510TIP3    H210537   4.022   2.994   2.600
 3511TIP3   OH210538   5.459   5.991   3.930
 3511TIP3    H110539   5.481   5.901   3.952
 3511TIP3    H210540   5.480   6.041   4.009
 3512TIP3   OH210541   5.777   0.405   3.606
 3512TIP3    H110542   5.862   0.360   3.604
 3512TIP3    H210543   5.795   0.487   3.653
 3513TIP3   OH210544   1.515   5.342   2.594
 3513TIP3    H110545   1.588   5.281   2.601
 3513TIP3    H210546   1.468   5.314   2.515
 3514TIP3   OH210547   2.106   5.245   4.120
 3514TIP3    H110548   2.113   5.188   4.196
 3514TIP3    H210549   2.049   5.317   4.149
 3515TIP3   OH210550   2.551   5.080   3.511
 3515TIP3    H110551   2.613   5.007   3.511
 3515TIP3    H210552   2.558   5.117   3.599
 3516TIP3   OH210553   4.994   1.608   2.388
 3516TIP3    H110554   4.952   1.558   2.318
 3516TIP3    H210555   4.959   1.570   2.468
 3517TIP3   OH210556   6.180   2.272   1.851
 3517TIP3    H110557   6.213   2.346   1.901
 3517TIP3    H210558   6.159   2.308   1.765
 3518TIP3   OH210559   5.948   0.578   4.193
 3518TIP3    H110560   5.993   0.495   4.177
 3518TIP3    H210561   5.909   0.601   4.108
 3519TIP3   OH210562   3.272   5.390   3.545
 3519TIP3    H110563   3.194   5.355   3.502
 3519TIP3    H210564   3.277   5.343   3.628
 3520TIP3   OH210565   2.066   4.079   2.019
 3520TIP3    H110566   2.117   4.084   1.938
 3520TIP3    H210567   2.117   4.021   2.075
 3521TIP3   OH210568   4.072   4.049   5.144
 3521TIP3    H110569   4.144   4.094   5.188
 3521TIP3    H210570   4.111   4.016   5.063
 3522TIP3   OH210571   2.360   5.455   3.489
 3522TIP3    H110572   2.309   5.500   3.556
 3522TIP3    H210573   2.448   5.449   3.525
 3523TIP3   OH210574   1.772   4.010   3.976
 3523TIP3    H110575   1.793   3.975   4.062
 3523TIP3    H210576   1.686   3.974   3.956
 3524TIP3   OH210577   3.988   3.383   4.319
 3524TIP3    H110578   3.979   3.388   4.414
 3524TIP3    H210579   3.917   3.438   4.285
 3525TIP3   OH210580   2.196   0.062   2.570
 3525TIP3    H110581   2.113   0.080   2.614
 3525TIP3    H210582   2.258   0.124   2.608
 3526TIP3   OH210583   1.217   5.848   1.300
 3526TIP3    H110584   1.207   5.933   1.257
 3526TIP3    H210585   1.311   5.840   1.316
 3527TIP3   OH210586   0.328   1.905   2.379
 3527TIP3    H110587   0.401   1.845   2.397
 3527TIP3    H210588   0.369   1.978   2.331
 3528TIP3   OH210589   2.001   1.021   1.252
 3528TIP3    H110590   1.971   1.020   1.343
 3528TIP3    H210591   1.960   0.945   1.212
 3529TIP3   OH210592   5.191   4.455   0.453
 3529TIP3    H110593   5.189   4.540   0.498
 3529TIP3    H210594   5.284   4.438   0.437
 3530TIP3   OH210595   3.330   1.203   1.356
 3530TIP3    H110596   3.366   1.259   1.424
 3530TIP3    H210597   3.237   1.227   1.352
 3531TIP3   OH210598   2.233   3.348   3.236
 3531TIP3    H110599   2.224   3.440   3.213
 3531TIP3    H210600   2.170   3.334   3.306
 3532TIP3   OH210601   5.569   5.433   4.368
 3532TIP3    H110602   5.507   5.500   4.341
 3532TIP3    H210603   5.540   5.353   4.323
 3533TIP3   OH210604   4.173   2.001   3.268
 3533TIP3    H110605   4.168   1.991   3.363
 3533TIP3    H210606   4.207   1.917   3.237
 3534TIP3   OH210607   5.223   4.498   0.109
 3534TIP3    H110608   5.132   4.520   0.127
 3534TIP3    H210609   5.272   4.539   0.181
 3535TIP3   OH210610   4.182   2.297   3.535
 3535TIP3    H110611   4.165   2.391   3.521
 3535TIP3    H210612   4.244   2.295   3.607
 3536TIP3   OH210613   4.986   6.008   0.843
 3536TIP3    H110614   5.074   6.020   0.807
 3536TIP3    H210615   4.964   5.917   0.826
 3537TIP3   OH210616   3.543   5.609   3.323
 3537TIP3    H110617   3.596   5.577   3.250
 3537TIP3    H210618   3.505   5.530   3.361
 3538TIP3   OH210619   1.011   5.352   0.767
 3538TIP3    H110620   1.086   5.399   0.804
 3538TIP3    H210621   1.050   5.276   0.723
 3539TIP3   OH210622   1.625   0.247   1.527
 3539TIP3    H110623   1.583   0.332   1.515
 3539TIP3    H210624   1.623   0.206   1.440
 3540TIP3   OH210625   1.524   2.677   0.948
 3540TIP3    H110626   1.562   2.606   1.000
 3540TIP3    H210627   1.430   2.658   0.948
 3541TIP3   OH210628   0.945   0.090   1.473
 3541TIP3    H110629   0.936   0.122   1.384
 3541TIP3    H210630   0.928  -0.004   1.467
 3542TIP3   OH210631   0.033   4.715   4.779
 3542TIP3    H110632   0.074   4.661   4.711
 3542TIP3    H210633  -0.061   4.705   4.763
 3543TIP3   OH210634   5.328   4.243   0.044
 3543TIP3    H110635   5.357   4.220   0.132
 3543TIP3    H210636   5.307   4.336   0.048
 3544TIP3   OH210637   5.592   2.979   1.286
 3544TIP3    H110638   5.590   3.053   1.348
 3544TIP3    H210639   5.628   2.906   1.337
 3545TIP3   OH210640   4.699   3.292   2.292
 3545TIP3    H110641   4.789   3.265   2.314
 3545TIP3    H210642   4.698   3.296   2.196
 3546TIP3   OH210643   4.873   4.692   3.866
 3546TIP3    H110644   4.894   4.664   3.956
 3546TIP3    H210645   4.933   4.641   3.811
 3547TIP3   OH210646   4.197   3.181   2.250
 3547TIP3    H110647   4.207   3.172   2.156
 3547TIP3    H210648   4.278   3.224   2.279
 3548TIP3   OH210649   3.511   3.893   4.982
 3548TIP3    H110650   3.569   3.914   4.909
 3548TIP3    H210651   3.458   3.820   4.950
 3549TIP3   OH210652   5.535   1.065   1.108
 3549TIP3    H110653   5.486   1.072   1.026
 3549TIP3    H210654   5.468   1.074   1.176
 3550TIP3   OH210655   3.389   3.020   1.528
 3550TIP3    H110656   3.325   3.058   1.588
 3550TIP3    H210657   3.437   3.095   1.492
 3551TIP3   OH210658   2.850   0.245   4.735
 3551TIP3    H110659   2.914   0.316   4.737
 3551TIP3    H210660   2.765   0.289   4.729
 3552TIP3   OH210661   5.988   4.636   0.347
 3552TIP3    H110662   5.950   4.641   0.259
 3552TIP3    H210663   5.979   4.725   0.381
 3553TIP3   OH210664   1.738   5.606   3.495
 3553TIP3    H110665   1.719   5.700   3.505
 3553TIP3    H210666   1.755   5.596   3.401
 3554TIP3   OH210667   4.221   3.505   3.354
 3554TIP3    H110668   4.171   3.584   3.333
 3554TIP3    H210669   4.159   3.447   3.397
 3555TIP3   OH210670   1.295   3.146   1.097
 3555TIP3    H110671   1.318   3.056   1.120
 3555TIP3    H210672   1.377   3.194   1.104
 3556TIP3   OH210673   0.406   4.297   1.338
 3556TIP3    H110674   0.312   4.294   1.354
 3556TIP3    H210675   0.425   4.390   1.326
 3557TIP3   OH210676   0.250   0.478   3.510
 3557TIP3    H110677   0.307   0.497   3.436
 3557TIP3    H210678   0.189   0.552   3.513
 3558TIP3   OH210679   1.481   0.500   4.815
 3558TIP3    H110680   1.501   0.410   4.790
 3558TIP3    H210681   1.544   0.553   4.767
 3559TIP3   OH210682   2.419   2.154   0.417
 3559TIP3    H110683   2.370   2.234   0.402
 3559TIP3    H210684   2.420   2.143   0.512
 3560TIP3   OH210685   5.054   3.749   3.219
 3560TIP3    H110686   5.015   3.676   3.266
 3560TIP3    H210687   5.147   3.747   3.243
 3561TIP3   OH210688   1.088   1.856   3.391
 3561TIP3    H110689   1.008   1.817   3.426
 3561TIP3    H210690   1.144   1.868   3.468
 3562TIP3   OH210691   0.795   2.545   1.979
 3562TIP3    H110692   0.879   2.592   1.971
 3562TIP3    H210693   0.752   2.586   2.054
 3563TIP3   OH210694   5.303   3.210   0.280
 3563TIP3    H110695   5.353   3.271   0.225
 3563TIP3    H210696   5.300   3.253   0.365
 3564TIP3   OH210697   0.440   4.505   3.907
 3564TIP3    H110698   0.517   4.485   3.960
 3564TIP3    H210699   0.463   4.586   3.861
 3565TIP3   OH210700   5.217   1.250   3.294
 3565TIP3    H110701   5.181   1.297   3.219
 3565TIP3    H210702   5.156   1.177   3.309
 3566TIP3   OH210703   5.941   2.991   2.409
 3566TIP3    H110704   5.866   2.973   2.466
 3566TIP3    H210705   5.974   2.905   2.384
 3567TIP3   OH210706   5.419   2.156   1.540
 3567TIP3    H110707   5.476   2.091   1.500
 3567TIP3    H210708   5.356   2.105   1.591
 3568TIP3   OH210709   3.353   4.927   0.340
 3568TIP3    H110710   3.259   4.941   0.353
 3568TIP3    H210711   3.387   5.013   0.315
 3569TIP3   OH210712   4.221   4.946   4.170
 3569TIP3    H110713   4.223   4.983   4.258
 3569TIP3    H210714   4.219   5.023   4.112
 3570TIP3   OH210715   3.685   3.140   0.783
 3570TIP3    H110716   3.768   3.122   0.826
 3570TIP3    H210717   3.636   3.193   0.846
 3571TIP3   OH210718   2.440   3.703   1.599
 3571TIP3    H110719   2.373   3.688   1.665
 3571TIP3    H210720   2.430   3.795   1.574
 3572TIP3   OH210721   0.444   4.559   1.286
 3572TIP3    H110722   0.373   4.595   1.339
 3572TIP3    H210723   0.503   4.633   1.273
 3573TIP3   OH210724   6.055   4.499   4.736
 3573TIP3    H110725   5.970   4.490   4.779
 3573TIP3    H210726   6.118   4.472   4.804
 3574TIP3   OH210727   4.007   5.021   0.723
 3574TIP3    H110728   4.028   5.013   0.630
 3574TIP3    H210729   3.995   4.931   0.753
 3575TIP3   OH210730   0.943   5.904   3.687
 3575TIP3    H110731   1.025   5.928   3.730
 3575TIP3    H210732   0.903   5.840   3.746
 3576TIP3   OH210733   1.414   0.224   0.056
 3576TIP3    H110734   1.423   0.308   0.010
 3576TIP3    H210735   1.362   0.170  -0.003
 3577TIP3   OH210736   2.617   0.885   4.119
 3577TIP3    H110737   2.689   0.842   4.073
 3577TIP3    H210738   2.541   0.828   4.103
 3578TIP3   OH210739   5.887   0.146   3.196
 3578TIP3    H110740   5.818   0.096   3.240
 3578TIP3    H210741   5.901   0.222   3.253
 3579TIP3   OH210742   3.142   5.492   1.076
 3579TIP3    H110743   3.191   5.491   0.994
 3579TIP3    H210744   3.197   5.542   1.137
 3580TIP3   OH210745   4.805   2.831   4.475
 3580TIP3    H110746   4.895   2.862   4.487
 3580TIP3    H210747   4.754   2.911   4.463
 3581TIP3   OH210748   3.820   3.604   2.873
 3581TIP3    H110749   3.863   3.684   2.903
 3581TIP3    H210750   3.828   3.607   2.777
 3582TIP3   OH210751   0.829   5.143   0.031
 3582TIP3    H110752   0.749   5.091   0.023
 3582TIP3    H210753   0.830   5.173   0.122
 3583TIP3   OH210754   0.849   1.864   2.071
 3583TIP3    H110755   0.887   1.798   2.012
 3583TIP3    H210756   0.754   1.850   2.064
 3584TIP3   OH210757   5.925   1.900   2.893
 3584TIP3    H110758   5.892   1.818   2.857
 3584TIP3    H210759   5.952   1.951   2.816
 3585TIP3   OH210760   2.886   5.381   4.043
 3585TIP3    H110761   2.982   5.383   4.037
 3585TIP3    H210762   2.861   5.296   4.005
 3586TIP3   OH210763   2.747   1.884   0.598
 3586TIP3    H110764   2.794   1.861   0.518
 3586TIP3    H210765   2.758   1.979   0.606
 3587TIP3   OH210766   0.236   2.491   0.689
 3587TIP3    H110767   0.296   2.487   0.615
 3587TIP3    H210768   0.187   2.572   0.677
 3588TIP3   OH210769   2.327   1.665   3.446
 3588TIP3    H110770   2.363   1.746   3.413
 3588TIP3    H210771   2.322   1.607   3.370
 3589TIP3   OH210772   4.544   1.853   4.273
 3589TIP3    H110773   4.492   1.838   4.352
 3589TIP3    H210774   4.504   1.798   4.206
 3590TIP3   OH210775   4.914   0.130   1.881
 3590TIP3    H110776   4.927   0.224   1.896
 3590TIP3    H210777   4.902   0.093   1.969
 3591TIP3   OH210778   1.068   3.181   3.059
 3591TIP3    H110779   1.042   3.126   2.985
 3591TIP3    H210780   1.162   3.193   3.048
 3592TIP3   OH210781   2.191   2.829   4.479
 3592TIP3    H110782   2.266   2.883   4.454
 3592TIP3    H210783   2.126   2.891   4.511
 3593TIP3   OH210784   0.722   4.767   1.776
 3593TIP3    H110785   0.798   4.723   1.739
 3593TIP3    H210786   0.753   4.855   1.797
 3594TIP3   OH210787   3.703   4.844   1.993
 3594TIP3    H110788   3.625   4.831   2.047
 3594TIP3    H210789   3.673   4.831   1.903
 3595TIP3   OH210790   5.994   1.572   0.770
 3595TIP3    H110791   5.977   1.664   0.749
 3595TIP3    H210792   5.915   1.542   0.815
 3596TIP3   OH210793   5.575   4.884   0.553
 3596TIP3    H110794   5.588   4.905   0.461
 3596TIP3    H210795   5.534   4.962   0.590
 3597TIP3   OH210796   5.039   3.469   3.299
 3597TIP3    H110797   5.073   3.422   3.375
 3597TIP3    H210798   5.096   3.443   3.226
 3598TIP3   OH210799   6.126   1.830   4.346
 3598TIP3    H110800   6.158   1.753   4.297
 3598TIP3    H210801   6.032   1.813   4.358
 3599TIP3   OH210802   5.306   5.142   4.493
 3599TIP3    H110803   5.308   5.083   4.417
 3599TIP3    H210804   5.298   5.229   4.455
 3600TIP3   OH210805   0.112   5.423   2.259
 3600TIP3    H110806   0.039   5.361   2.262
 3600TIP3    H210807   0.120   5.454   2.350
 3601TIP3   OH210808   3.226   5.733   2.813
 3601TIP3    H110809   3.222   5.829   2.816
 3601TIP3    H210810   3.203   5.705   2.901
 3602TIP3   OH210811   1.287   2.534   3.318
 3602TIP3    H110812   1.300   2.561   3.228
 3602TIP3    H210813   1.250   2.611   3.362
 3603TIP3   OH210814   3.659   3.902   2.204
 3603TIP3    H110815   3.644   3.949   2.122
 3603TIP3    H210816   3.734   3.946   2.244
 3604TIP3   OH210817   5.754   1.672   3.515
 3604TIP3    H110818   5.667   1.645   3.487
 3604TIP3    H210819   5.807   1.592   3.509
 3605TIP3   OH210820   1.074   1.942   0.629
 3605TIP3    H110821   1.033   1.947   0.715
 3605TIP3    H210822   1.152   1.887   0.642
 3606TIP3   OH210823   3.131   3.311   2.613
 3606TIP3    H110824   3.051   3.338   2.658
 3606TIP3    H210825   3.201   3.328   2.676
 3607TIP3   OH210826   5.364   3.875   1.060
 3607TIP3    H110827   5.337   3.787   1.085
 3607TIP3    H210828   5.299   3.932   1.102
 3608TIP3   OH210829   4.827   0.324   3.464
 3608TIP3    H110830   4.742   0.360   3.441
 3608TIP3    H210831   4.837   0.248   3.407
 3609TIP3   OH210832   0.301   4.801   2.952
 3609TIP3    H110833   0.334   4.716   2.981
 3609TIP3    H210834   0.346   4.817   2.869
 3610TIP3   OH210835   3.690   5.108   1.699
 3610TIP3    H110836   3.667   5.201   1.692
 3610TIP3    H210837   3.749   5.103   1.774
 3611TIP3   OH210838   2.088   5.870   4.007
 3611TIP3    H110839   2.020   5.905   4.063
 3611TIP3    H210840   2.164   5.858   4.065
 3612TIP3   OH210841   1.042   0.599   3.563
 3612TIP3    H110842   1.019   0.559   3.646
 3612TIP3    H210843   1.039   0.528   3.499
 3613TIP3   OH210844   2.133   3.442   2.089
 3613TIP3    H110845   2.096   3.364   2.047
 3613TIP3    H210846   2.225   3.420   2.103
 3614TIP3   OH210847   2.773   5.478   2.043
 3614TIP3    H110848   2.755   5.421   1.968
 3614TIP3    H210849   2.791   5.418   2.115
 3615TIP3   OH210850   2.260   3.119   1.982
 3615TIP3    H110851   2.317   3.147   2.054
 3615TIP3    H210852   2.198   3.059   2.022
 3616TIP3   OH210853   1.450   4.080   4.814
 3616TIP3    H110854   1.392   4.124   4.752
 3616TIP3    H210855   1.530   4.134   4.814
 3617TIP3   OH210856   6.025   1.141   3.229
 3617TIP3    H110857   6.038   1.156   3.323
 3617TIP3    H210858   5.988   1.223   3.196
 3618TIP3   OH210859   5.854   5.207   1.700
 3618TIP3    H110860   5.943   5.174   1.712
 3618TIP3    H210861   5.838   5.261   1.778
 3619TIP3   OH210862   5.734   5.336   0.538
 3619TIP3    H110863   5.720   5.430   0.551
 3619TIP3    H210864   5.647   5.302   0.518
 3620TIP3   OH210865   5.537   4.141   4.372
 3620TIP3    H110866   5.458   4.108   4.416
 3620TIP3    H210867   5.604   4.075   4.390
 3621TIP3   OH210868   3.169   5.338   0.623
 3621TIP3    H110869   3.107   5.406   0.597
 3621TIP3    H210870   3.117   5.279   0.679
 3622TIP3   OH210871   1.117   3.404   2.773
 3622TIP3    H110872   1.211   3.393   2.789
 3622TIP3    H210873   1.078   3.405   2.861
 3623TIP3   OH210874   1.579   5.016   3.872
 3623TIP3    H110875   1.598   4.946   3.935
 3623TIP3    H210876   1.631   4.993   3.795
 3624TIP3   OH210877   5.956   0.644   0.221
 3624TIP3    H110878   5.927   0.673   0.307
 3624TIP3    H210879   5.888   0.584   0.191
 3625TIP3   OH210880   2.595   4.314   3.126
 3625TIP3    H110881   2.655   4.240   3.131
 3625TIP3    H210882   2.525   4.293   3.189
 3626TIP3   OH210883   3.873   0.126   0.494
 3626TIP3    H110884   3.928   0.087   0.426
 3626TIP3    H210885   3.818   0.055   0.526
 3627TIP3   OH210886   1.428   1.809   2.189
 3627TIP3    H110887   1.514   1.783   2.156
 3627TIP3    H210888   1.445   1.845   2.276
 3628TIP3   OH210889   1.695   0.500   2.565
 3628TIP3    H110890   1.788   0.518   2.573
 3628TIP3    H210891   1.658   0.526   2.649
 3629TIP3   OH210892   2.480   4.470   2.727
 3629TIP3    H110893   2.390   4.500   2.736
 3629TIP3    H210894   2.479   4.380   2.759
 3630TIP3   OH210895   5.443   4.344   4.190
 3630TIP3    H110896   5.468   4.304   4.107
 3630TIP3    H210897   5.480   4.287   4.257
 3631TIP3   OH210898   0.494   0.929   1.290
 3631TIP3    H110899   0.574   0.981   1.297
 3631TIP3    H210900   0.469   0.935   1.198
 3632TIP3   OH210901   4.635   5.704   1.472
 3632TIP3    H110902   4.612   5.725   1.563
 3632TIP3    H210903   4.723   5.740   1.462
 3633TIP3   OH210904   5.645   0.312   4.453
 3633TIP3    H110905   5.701   0.389   4.462
 3633TIP3    H210906   5.562   0.339   4.492
 3634TIP3   OH210907   6.294   0.391   2.680
 3634TIP3    H110908   6.308   0.407   2.774
 3634TIP3    H210909   6.246   0.309   2.677
 3635TIP3   OH210910   1.462   0.283   0.795
 3635TIP3    H110911   1.381   0.329   0.773
 3635TIP3    H210912   1.509   0.274   0.712
 3636TIP3   OH210913   1.594   4.731   0.655
 3636TIP3    H110914   1.671   4.729   0.712
 3636TIP3    H210915   1.545   4.808   0.684
 3637TIP3   OH210916   4.166   3.232   1.077
 3637TIP3    H110917   4.091   3.285   1.105
 3637TIP3    H210918   4.239   3.294   1.073
 3638TIP3   OH210919   1.875   1.522   0.337
 3638TIP3    H110920   1.930   1.599   0.318
 3638TIP3    H210921   1.936   1.458   0.374
 3639TIP3   OH210922   0.567   4.152   1.193
 3639TIP3    H110923   0.519   4.210   1.252
 3639TIP3    H210924   0.644   4.203   1.167
 3640TIP3   OH210925   5.448   1.233   4.379
 3640TIP3    H110926   5.453   1.294   4.305
 3640TIP3    H210927   5.386   1.274   4.439
 3641TIP3   OH210928   0.726   5.875   4.336
 3641TIP3    H110929   0.644   5.915   4.364
 3641TIP3    H210930   0.748   5.813   4.406
 3642TIP3   OH210931   1.753   2.043   2.235
 3642TIP3    H110932   1.733   1.958   2.196
 3642TIP3    H210933   1.784   2.023   2.324
 3643TIP3   OH210934   2.552   5.772   1.061
 3643TIP3    H110935   2.486   5.766   0.992
 3643TIP3    H210936   2.588   5.860   1.053
 3644TIP3   OH210937   5.846   3.611   1.794
 3644TIP3    H110938   5.903   3.650   1.861
 3644TIP3    H210939   5.850   3.672   1.721
 3645TIP3   OH210940   4.807   2.683   5.082
 3645TIP3    H110941   4.879   2.724   5.033
 3645TIP3    H210942   4.850   2.620   5.139
 3646TIP3   OH210943   3.542   4.121   2.792
 3646TIP3    H110944   3.473   4.068   2.752
 3646TIP3    H210945   3.546   4.093   2.883
 3647TIP3   OH210946   4.366   0.223   0.709
 3647TIP3    H110947   4.388   0.180   0.626
 3647TIP3    H210948   4.288   0.176   0.740
 3648TIP3   OH210949   4.160   2.326   0.284
 3648TIP3    H110950   4.219   2.251   0.286
 3648TIP3    H210951   4.218   2.401   0.268
 3649TIP3   OH210952   4.210   5.409   3.055
 3649TIP3    H110953   4.165   5.337   3.100
 3649TIP3    H210954   4.302   5.386   3.058
 3650TIP3   OH210955   6.075   5.618   4.736
 3650TIP3    H110956   5.981   5.600   4.747
 3650TIP3    H210957   6.110   5.619   4.825
 3651TIP3   OH210958   0.678   4.116   0.768
 3651TIP3    H110959   0.718   4.202   0.756
 3651TIP3    H210960   0.590   4.125   0.731
 3652TIP3   OH210961   0.710   2.141   1.911
 3652TIP3    H110962   0.619   2.150   1.941
 3652TIP3    H210963   0.715   2.051   1.879
 3653TIP3   OH210964   0.085   0.307   0.551
 3653TIP3    H110965   0.076   0.212   0.546
 3653TIP3    H210966   0.002   0.341   0.517
 3654TIP3   OH210967   1.365   5.756   3.399
 3654TIP3    H110968   1.363   5.672   3.446
 3654TIP3    H210969   1.276   5.791   3.409
 3655TIP3   OH210970   3.281   0.771   4.924
 3655TIP3    H110971   3.278   0.805   5.013
 3655TIP3    H210972   3.349   0.704   4.926
 3656TIP3   OH210973   1.407   0.042   2.460
 3656TIP3    H110974   1.334   0.089   2.418
 3656TIP3    H210975   1.484   0.096   2.443
 3657TIP3   OH210976   5.688   5.669   0.568
 3657TIP3    H110977   5.643   5.717   0.498
 3657TIP3    H210978   5.618   5.620   0.611
 3658TIP3   OH210979   6.035   4.373   1.357
 3658TIP3    H110980   6.068   4.414   1.437
 3658TIP3    H210981   5.950   4.338   1.380
 3659TIP3   OH210982   4.817   0.820   0.953
 3659TIP3    H110983   4.747   0.886   0.950
 3659TIP3    H210984   4.895   0.867   0.924
 3660TIP3   OH210985   0.664   0.172   1.989
 3660TIP3    H110986   0.750   0.138   1.964
 3660TIP3    H210987   0.623   0.200   1.907
 3661TIP3   OH210988   5.110   4.804   2.316
 3661TIP3    H110989   5.105   4.892   2.353
 3661TIP3    H210990   5.046   4.753   2.366
 3662TIP3   OH210991   3.904   1.257   2.740
 3662TIP3    H110992   3.947   1.262   2.655
 3662TIP3    H210993   3.816   1.291   2.724
 3663TIP3   OH210994   1.719   5.767   4.376
 3663TIP3    H110995   1.627   5.784   4.361
 3663TIP3    H210996   1.757   5.761   4.288
 3664TIP3   OH210997   6.051   4.773   2.200
 3664TIP3    H110998   6.103   4.695   2.219
 3664TIP3    H210999   6.113   4.834   2.161
 3665TIP3   OH211000   4.285   1.271   0.661
 3665TIP3    H111001   4.239   1.208   0.605
 3665TIP3    H211002   4.229   1.281   0.737
 3666TIP3   OH211003   3.080   0.183   3.970
 3666TIP3    H111004   3.064   0.116   3.903
 3666TIP3    H211005   3.053   0.142   4.052
 3667TIP3   OH211006   3.422   2.797   4.023
 3667TIP3    H111007   3.485   2.772   3.955
 3667TIP3    H211008   3.424   2.726   4.086
 3668TIP3   OH211009   2.454   0.675   1.643
 3668TIP3    H111010   2.435   0.753   1.696
 3668TIP3    H211011   2.372   0.625   1.643
 3669TIP3   OH211012   3.891   4.142   4.477
 3669TIP3    H111013   3.863   4.227   4.510
 3669TIP3    H211014   3.816   4.084   4.494
 3670TIP3   OH211015   1.701   1.391   4.401
 3670TIP3    H111016   1.694   1.357   4.312
 3670TIP3    H211017   1.723   1.314   4.454
 3671TIP3   OH211018   0.074   1.646   2.469
 3671TIP3    H111019   0.002   1.586   2.448
 3671TIP3    H211020   0.150   1.589   2.481
 3672TIP3   OH211021   3.021   3.446   0.366
 3672TIP3    H111022   3.045   3.422   0.455
 3672TIP3    H211023   3.104   3.471   0.325
 3673TIP3   OH211024   2.430   0.101   0.978
 3673TIP3    H111025   2.391   0.172   1.028
 3673TIP3    H211026   2.439   0.137   0.889
 3674TIP3   OH211027   3.302   4.784   4.997
 3674TIP3    H111028   3.382   4.795   5.048
 3674TIP3    H211029   3.277   4.873   4.971
 3675TIP3   OH211030   3.652   2.174   1.604
 3675TIP3    H111031   3.684   2.209   1.521
 3675TIP3    H211032   3.636   2.252   1.658
 3676TIP3   OH211033   0.288   2.970   2.911
 3676TIP3    H111034   0.273   2.985   3.004
 3676TIP3    H211035   0.244   3.042   2.867
 3677TIP3   OH211036   0.879   4.830   2.173
 3677TIP3    H111037   0.843   4.881   2.100
 3677TIP3    H211038   0.962   4.873   2.194
 3678TIP3   OH211039   5.628   4.146   1.368
 3678TIP3    H111040   5.628   4.188   1.282
 3678TIP3    H211041   5.536   4.121   1.382
 3679TIP3   OH211042   5.196   0.527   4.750
 3679TIP3    H111043   5.290   0.520   4.736
 3679TIP3    H211044   5.184   0.516   4.844
 3680TIP3   OH211045   0.525   3.822   2.026
 3680TIP3    H111046   0.437   3.790   2.047
 3680TIP3    H211047   0.521   3.844   1.933
 3681TIP3   OH211048   2.729   5.555   2.529
 3681TIP3    H111049   2.701   5.542   2.620
 3681TIP3    H211050   2.773   5.640   2.530
 3682TIP3   OH211051   1.264   2.243   0.821
 3682TIP3    H111052   1.287   2.186   0.748
 3682TIP3    H211053   1.250   2.329   0.780
 3683TIP3   OH211054   2.211   4.806   0.798
 3683TIP3    H111055   2.132   4.857   0.779
 3683TIP3    H211056   2.283   4.863   0.769
 3684TIP3   OH211057   0.579   0.222   2.311
 3684TIP3    H111058   0.582   0.179   2.397
 3684TIP3    H211059   0.588   0.315   2.331
 3685TIP3   OH211060   4.354   2.491   4.896
 3685TIP3    H111061   4.432   2.493   4.840
 3685TIP3    H211062   4.372   2.557   4.963
 3686TIP3   OH211063   3.690   5.884   0.854
 3686TIP3    H111064   3.604   5.865   0.892
 3686TIP3    H211065   3.681   5.857   0.762
 3687TIP3   OH211066   5.366   2.524   0.880
 3687TIP3    H111067   5.401   2.457   0.938
 3687TIP3    H211068   5.317   2.476   0.813
 3688TIP3   OH211069   4.226   0.693   0.959
 3688TIP3    H111070   4.300   0.640   0.929
 3688TIP3    H211071   4.159   0.628   0.982
 3689TIP3   OH211072   3.189   3.718   5.161
 3689TIP3    H111073   3.258   3.669   5.118
 3689TIP3    H211074   3.113   3.708   5.104
 3690TIP3   OH211075   2.586   2.094   1.225
 3690TIP3    H111076   2.586   2.090   1.130
 3690TIP3    H211077   2.497   2.122   1.248
 3691TIP3   OH211078   6.163   4.962   3.663
 3691TIP3    H111079   6.229   4.942   3.729
 3691TIP3    H211080   6.123   5.044   3.693
 3692TIP3   OH211081   3.534   4.004   0.209
 3692TIP3    H111082   3.608   4.047   0.251
 3692TIP3    H211083   3.553   3.911   0.214
 3693TIP3   OH211084   4.251   5.681   0.697
 3693TIP3    H111085   4.263   5.603   0.751
 3693TIP3    H211086   4.317   5.674   0.628
 3694TIP3   OH211087   0.124   3.802   4.339
 3694TIP3    H111088   0.219   3.800   4.350
 3694TIP3    H211089   0.110   3.796   4.245
 3695TIP3   OH211090   0.819   0.394   0.457
 3695TIP3    H111091   0.728   0.390   0.429
 3695TIP3    H211092   0.815   0.390   0.552
 3696TIP3   OH211093   3.478   2.042   1.448
 3696TIP3    H111094   3.458   1.964   1.500
 3696TIP3    H211095   3.530   2.097   1.506
 3697TIP3   OH211096   2.444   2.852   1.567
 3697TIP3    H111097   2.416   2.784   1.629
 3697TIP3    H211098   2.445   2.933   1.618
 3698TIP3   OH211099   5.032   5.808   1.677
 3698TIP3    H111100   5.063   5.831   1.765
 3698TIP3    H211101   5.112   5.793   1.627
 3699TIP3   OH211102   3.786   2.643   3.041
 3699TIP3    H111103   3.746   2.611   2.960
 3699TIP3    H211104   3.722   2.705   3.076
 3700TIP3   OH211105   1.951   0.073   4.439
 3700TIP3    H111106   1.898  -0.004   4.417
 3700TIP3    H211107   1.948   0.077   4.535
 3701TIP3   OH211108   3.586   0.572   0.665
 3701TIP3    H111109   3.628   0.646   0.621
 3701TIP3    H211110   3.634   0.495   0.633
 3702TIP3   OH211111   0.101   3.700   4.048
 3702TIP3    H111112   0.103   3.605   4.047
 3702TIP3    H211113   0.021   3.724   4.002
 3703TIP3   OH211114   3.151   0.144   2.230
 3703TIP3    H111115   3.084   0.207   2.201
 3703TIP3    H211116   3.191   0.186   2.306
 3704TIP3   OH211117   0.527   2.837   1.355
 3704TIP3    H111118   0.540   2.749   1.317
 3704TIP3    H211119   0.590   2.841   1.427
 3705TIP3   OH211120   2.473   3.444   2.096
 3705TIP3    H111121   2.435   3.435   2.009
 3705TIP3    H211122   2.543   3.378   2.099
 3706TIP3   OH211123   1.599   3.741   1.226
 3706TIP3    H111124   1.548   3.661   1.215
 3706TIP3    H211125   1.538   3.802   1.268
 3707TIP3   OH211126   5.390   5.825   2.235
 3707TIP3    H111127   5.435   5.741   2.247
 3707TIP3    H211128   5.437   5.866   2.163
 3708TIP3   OH211129   5.649   3.603   3.345
 3708TIP3    H111130   5.582   3.565   3.288
 3708TIP3    H211131   5.662   3.538   3.414
 3709TIP3   OH211132   1.820   3.980   1.990
 3709TIP3    H111133   1.898   4.035   1.996
 3709TIP3    H211134   1.824   3.924   2.067
 3710TIP3   OH211135   3.256   2.028   0.807
 3710TIP3    H111136   3.328   2.081   0.839
 3710TIP3    H211137   3.204   2.008   0.885
 3711TIP3   OH211138   2.347   1.863   2.458
 3711TIP3    H111139   2.270   1.918   2.445
 3711TIP3    H211140   2.314   1.774   2.456
 3712TIP3   OH211141   2.211   3.849   4.191
 3712TIP3    H111142   2.194   3.834   4.284
 3712TIP3    H211143   2.303   3.826   4.179
 3713TIP3   OH211144   1.462   2.672   4.063
 3713TIP3    H111145   1.551   2.669   4.029
 3713TIP3    H211146   1.414   2.609   4.010
 3714TIP3   OH211147   1.655   0.711   1.229
 3714TIP3    H111148   1.715   0.752   1.167
 3714TIP3    H211149   1.666   0.617   1.214
 3715TIP3   OH211150   0.897   2.318   1.780
 3715TIP3    H111151   0.966   2.320   1.847
 3715TIP3    H211152   0.830   2.260   1.817
 3716TIP3   OH211153   3.986   1.226   1.479
 3716TIP3    H111154   3.917   1.163   1.499
 3716TIP3    H211155   4.067   1.183   1.506
 3717TIP3   OH211156   1.682   5.264   4.598
 3717TIP3    H111157   1.748   5.315   4.644
 3717TIP3    H211158   1.668   5.312   4.516
 3718TIP3   OH211159   3.128   5.950   0.855
 3718TIP3    H111160   3.141   5.856   0.848
 3718TIP3    H211161   3.036   5.961   0.877
 3719TIP3   OH211162   5.897   1.421   2.253
 3719TIP3    H111163   5.982   1.450   2.220
 3719TIP3    H211164   5.880   1.478   2.328
 3720TIP3   OH211165   5.609   2.564   4.349
 3720TIP3    H111166   5.524   2.547   4.309
 3720TIP3    H211167   5.672   2.546   4.280
 3721TIP3   OH211168   1.277   0.485   0.113
 3721TIP3    H111169   1.195   0.436   0.103
 3721TIP3    H211170   1.252   0.562   0.165
 3722TIP3   OH211171   1.638   2.945   1.909
 3722TIP3    H111172   1.684   2.997   1.844
 3722TIP3    H211173   1.694   2.948   1.987
 3723TIP3   OH211174   0.791   3.594   3.938
 3723TIP3    H111175   0.819   3.504   3.920
 3723TIP3    H211176   0.850   3.648   3.886
 3724TIP3   OH211177   1.290   4.618   2.698
 3724TIP3    H111178   1.227   4.596   2.629
 3724TIP3    H211179   1.278   4.712   2.712
 3725TIP3   OH211180   3.208   4.561   1.498
 3725TIP3    H111181   3.216   4.485   1.555
 3725TIP3    H211182   3.254   4.537   1.418
 3726TIP3   OH211183   4.776   5.441   1.302
 3726TIP3    H111184   4.744   5.525   1.268
 3726TIP3    H211185   4.820   5.464   1.384
 3727TIP3   OH211186   3.931   2.258   3.389
 3727TIP3    H111187   3.999   2.239   3.454
 3727TIP3    H211188   3.863   2.303   3.438
 3728TIP3   OH211189   0.269   5.143   0.522
 3728TIP3    H111190   0.251   5.070   0.462
 3728TIP3    H211191   0.213   5.214   0.492
 3729TIP3   OH211192   5.921   4.002   1.865
 3729TIP3    H111193   5.900   4.069   1.930
 3729TIP3    H211194   5.849   4.007   1.802
 3730TIP3   OH211195   0.692   5.677   1.438
 3730TIP3    H111196   0.756   5.699   1.370
 3730TIP3    H211197   0.738   5.618   1.497
 3731TIP3   OH211198   5.492   3.720   0.862
 3731TIP3    H111199   5.536   3.802   0.843
 3731TIP3    H211200   5.448   3.736   0.946
 3732TIP3   OH211201   2.915   4.064   2.042
 3732TIP3    H111202   2.970   4.006   1.990
 3732TIP3    H211203   2.919   4.028   2.131
 3733TIP3   OH211204   3.484   1.311   1.880
 3733TIP3    H111205   3.554   1.346   1.936
 3733TIP3    H211206   3.528   1.243   1.827
 3734TIP3   OH211207   4.891   0.346   0.733
 3734TIP3    H111208   4.829   0.288   0.688
 3734TIP3    H211209   4.977   0.311   0.710
 3735TIP3   OH211210   5.684   3.858   3.748
 3735TIP3    H111211   5.720   3.792   3.807
 3735TIP3    H211212   5.682   3.938   3.800
 3736TIP3   OH211213   4.113   3.177   1.756
 3736TIP3    H111214   4.021   3.198   1.742
 3736TIP3    H211215   4.116   3.082   1.759
 3737TIP3   OH211216   3.482   0.323   0.969
 3737TIP3    H111217   3.454   0.276   0.890
 3737TIP3    H211218   3.401   0.340   1.017
 3738TIP3   OH211219   5.933   1.964  -0.057
 3738TIP3    H111220   5.876   1.933   0.013
 3738TIP3    H211221   5.980   2.038  -0.019
 3739TIP3   OH211222   2.553   2.214   5.217
 3739TIP3    H111223   2.640   2.212   5.177
 3739TIP3    H211224   2.501   2.270   5.159
 3740TIP3   OH211225   0.608   5.679   2.292
 3740TIP3    H111226   0.518   5.692   2.264
 3740TIP3    H211227   0.651   5.763   2.275
 3741TIP3   OH211228   0.209   5.570   5.126
 3741TIP3    H111229   0.122   5.610   5.129
 3741TIP3    H211230   0.263   5.626   5.182
 3742TIP3   OH211231   3.536   4.815   1.724
 3742TIP3    H111232   3.552   4.721   1.730
 3742TIP3    H211233   3.597   4.845   1.657
 3743TIP3   OH211234   5.412   2.245   1.812
 3743TIP3    H111235   5.467   2.245   1.733
 3743TIP3    H211236   5.357   2.322   1.802
 3744TIP3   OH211237   4.854   2.944   3.054
 3744TIP3    H111238   4.825   2.993   3.132
 3744TIP3    H211239   4.922   2.885   3.087
 3745TIP3   OH211240   0.759   3.331   4.200
 3745TIP3    H111241   0.669   3.305   4.216
 3745TIP3    H211242   0.773   3.312   4.107
 3746TIP3   OH211243   3.028   5.735   2.092
 3746TIP3    H111244   3.010   5.817   2.046
 3746TIP3    H211245   2.941   5.701   2.115
 3747TIP3   OH211246   2.853   0.023   2.201
 3747TIP3    H111247   2.775   0.033   2.257
 3747TIP3    H211248   2.890   0.111   2.197
 3748TIP3   OH211249   4.136   5.154   0.055
 3748TIP3    H111250   4.087   5.075   0.036
 3748TIP3    H211251   4.098   5.188   0.135
 3749TIP3   OH211252   1.627   1.734   1.675
 3749TIP3    H111253   1.716   1.709   1.653
 3749TIP3    H211254   1.602   1.677   1.747
 3750TIP3   OH211255   0.559   4.914   2.520
 3750TIP3    H111256   0.553   4.831   2.471
 3750TIP3    H211257   0.616   4.969   2.466
 3751TIP3   OH211258   1.756   2.975   2.152
 3751TIP3    H111259   1.749   2.930   2.236
 3751TIP3    H211260   1.688   3.043   2.156
 3752TIP3   OH211261   4.433   2.973   2.745
 3752TIP3    H111262   4.414   2.879   2.747
 3752TIP3    H211263   4.386   3.009   2.820
 3753TIP3   OH211264   2.241   2.412   3.122
 3753TIP3    H111265   2.200   2.446   3.201
 3753TIP3    H211266   2.207   2.467   3.051
 3754TIP3   OH211267   2.903   0.352   0.592
 3754TIP3    H111268   2.875   0.281   0.649
 3754TIP3    H211269   2.924   0.310   0.509
 3755TIP3   OH211270   0.775   2.032   2.335
 3755TIP3    H111271   0.858   1.993   2.307
 3755TIP3    H211272   0.732   2.057   2.254
 3756TIP3   OH211273   5.791   4.852   4.386
 3756TIP3    H111274   5.715   4.877   4.438
 3756TIP3    H211275   5.829   4.935   4.357
 3757TIP3   OH211276   5.162   0.769   0.486
 3757TIP3    H111277   5.124   0.752   0.572
 3757TIP3    H211278   5.256   0.758   0.500
 3758TIP3   OH211279   0.236   3.426   2.652
 3758TIP3    H111280   0.202   3.389   2.734
 3758TIP3    H211281   0.297   3.360   2.619
 3759TIP3   OH211282   3.239   4.695   3.154
 3759TIP3    H111283   3.211   4.741   3.074
 3759TIP3    H211284   3.307   4.635   3.124
 3760TIP3   OH211285   3.755   2.887   2.114
 3760TIP3    H111286   3.750   2.849   2.026
 3760TIP3    H211287   3.844   2.919   2.121
 3761TIP3   OH211288   3.774   0.410   1.779
 3761TIP3    H111289   3.854   0.375   1.741
 3761TIP3    H211290   3.717   0.334   1.789
 3762TIP3   OH211291   1.264   0.782   2.685
 3762TIP3    H111292   1.185   0.764   2.634
 3762TIP3    H211293   1.336   0.756   2.628
 3763TIP3   OH211294   1.209   5.641   3.668
 3763TIP3    H111295   1.165   5.685   3.595
 3763TIP3    H211296   1.181   5.689   3.745
 3764TIP3   OH211297   1.869   1.757   2.717
 3764TIP3    H111298   1.853   1.737   2.809
 3764TIP3    H211299   1.849   1.675   2.671
 3765TIP3   OH211300   1.487   2.087   3.953
 3765TIP3    H111301   1.551   2.086   3.883
 3765TIP3    H211302   1.491   1.999   3.990
 3766TIP3   OH211303   1.630   5.700   0.155
 3766TIP3    H111304   1.550   5.656   0.129
 3766TIP3    H211305   1.635   5.689   0.250
 3767TIP3   OH211306   1.498   0.774   4.838
 3767TIP3    H111307   1.439   0.821   4.897
 3767TIP3    H211308   1.474   0.682   4.849
 3768TIP3   OH211309   5.533   2.052   4.854
 3768TIP3    H111310   5.473   2.036   4.927
 3768TIP3    H211311   5.620   2.037   4.891
 3769TIP3   OH211312   1.517   1.608   0.121
 3769TIP3    H111313   1.509   1.512   0.125
 3769TIP3    H211314   1.474   1.631   0.038
 3770TIP3   OH211315   6.129   3.877   2.537
 3770TIP3    H111316   6.211   3.922   2.556
 3770TIP3    H211317   6.145   3.831   2.454
 3771TIP3   OH211318   2.658   1.316   4.991
 3771TIP3    H111319   2.686   1.402   5.021
 3771TIP3    H211320   2.737   1.262   4.993
 3772TIP3   OH211321   5.342   5.780   1.790
 3772TIP3    H111322   5.280   5.709   1.773
 3772TIP3    H211323   5.428   5.741   1.775
 3773TIP3   OH211324   5.638   2.947   2.016
 3773TIP3    H111325   5.691   3.012   2.062
 3773TIP3    H211326   5.634   2.979   1.926
 3774TIP3   OH211327   0.291   1.262   4.412
 3774TIP3    H111328   0.335   1.347   4.401
 3774TIP3    H211329   0.269   1.235   4.323
 3775TIP3   OH211330   3.430   2.319   0.058
 3775TIP3    H111331   3.373   2.257   0.103
 3775TIP3    H211332   3.429   2.397   0.113
 3776TIP3   OH211333   3.294   5.392   3.849
 3776TIP3    H111334   3.271   5.406   3.941
 3776TIP3    H211335   3.312   5.298   3.843
 3777TIP3   OH211336   5.457   3.810   0.020
 3777TIP3    H111337   5.517   3.869  -0.025
 3777TIP3    H211338   5.398   3.868   0.068
 3778TIP3   OH211339   1.403   0.157   5.098
 3778TIP3    H111340   1.431   0.125   5.012
 3778TIP3    H211341   1.311   0.133   5.104
 3779TIP3   OH211342   0.369   0.147   3.833
 3779TIP3    H111343   0.440   0.175   3.776
 3779TIP3    H211344   0.408   0.082   3.891
 3780TIP3   OH211345   1.168   2.354   3.690
 3780TIP3    H111346   1.079   2.386   3.705
 3780TIP3    H211347   1.196   2.323   3.776
 3781TIP3   OH211348   4.457   2.485   4.479
 3781TIP3    H111349   4.474   2.522   4.565
 3781TIP3    H211350   4.530   2.517   4.425
 3782TIP3   OH211351   1.387   2.918   2.035
 3782TIP3    H111352   1.306   2.896   2.081
 3782TIP3    H211353   1.427   2.987   2.088
 3783TIP3   OH211354   0.568   2.029   0.778
 3783TIP3    H111355   0.547   1.982   0.697
 3783TIP3    H211356   0.561   1.962   0.847
 3784TIP3   OH211357   5.433   0.196   4.714
 3784TIP3    H111358   5.458   0.266   4.654
 3784TIP3    H211359   5.355   0.157   4.675
 3785TIP3   OH211360   0.061   1.040   0.054
 3785TIP3    H111361   0.060   0.965   0.113
 3785TIP3    H211362  -0.019   1.032   0.002
 3786TIP3   OH211363   4.655   2.884   1.163
 3786TIP3    H111364   4.646   2.979   1.150
 3786TIP3    H211365   4.656   2.873   1.258
 3787TIP3   OH211366   4.231   5.800   2.484
 3787TIP3    H111367   4.309   5.746   2.472
 3787TIP3    H211368   4.209   5.831   2.396
 3788TIP3   OH211369   1.285   1.658   0.267
 3788TIP3    H111370   1.263   1.750   0.252
 3788TIP3    H211371   1.358   1.640   0.207
 3789TIP3   OH211372   0.357   1.115   0.919
 3789TIP3    H111373   0.343   1.156   0.834
 3789TIP3    H211374   0.283   1.144   0.972
 3790TIP3   OH211375   3.103   5.631   3.461
 3790TIP3    H111376   3.045   5.608   3.388
 3790TIP3    H211377   3.186   5.588   3.440
 3791TIP3   OH211378   4.834   4.910   4.143
 3791TIP3    H111379   4.921   4.937   4.114
 3791TIP3    H211380   4.825   4.820   4.112
 3792TIP3   OH211381   2.047   1.853   5.165
 3792TIP3    H111382   2.043   1.839   5.070
 3792TIP3    H211383   1.961   1.890   5.187
 3793TIP3   OH211384   5.686   1.909   0.705
 3793TIP3    H111385   5.685   1.860   0.787
 3793TIP3    H211386   5.738   1.987   0.725
 3794TIP3   OH211387   1.807   4.590   3.868
 3794TIP3    H111388   1.865   4.661   3.894
 3794TIP3    H211389   1.865   4.528   3.823
 3795TIP3   OH211390   0.894   3.749   5.032
 3795TIP3    H111391   0.860   3.673   4.985
 3795TIP3    H211392   0.816   3.790   5.071
 3796TIP3   OH211393   0.177   2.297   2.573
 3796TIP3    H111394   0.216   2.382   2.550
 3796TIP3    H211395   0.252   2.243   2.600
 3797TIP3   OH211396   5.699   4.589   3.740
 3797TIP3    H111397   5.752   4.668   3.738
 3797TIP3    H211398   5.614   4.618   3.775
 3798TIP3   OH211399   4.137   0.551   4.426
 3798TIP3    H111400   4.155   0.458   4.412
 3798TIP3    H211401   4.042   0.558   4.423
 3799TIP3   OH211402   6.249   5.260   3.876
 3799TIP3    H111403   6.154   5.250   3.870
 3799TIP3    H211404   6.277   5.279   3.786
 3800TIP3   OH211405   6.339   4.232   3.206
 3800TIP3    H111406   6.410   4.170   3.223
 3800TIP3    H211407   6.263   4.193   3.250
 3801TIP3   OH211408   5.701   1.575   0.503
 3801TIP3    H111409   5.621   1.619   0.475
 3801TIP3    H211410   5.682   1.482   0.495
 3802TIP3   OH211411   5.394   2.819   2.023
 3802TIP3    H111412   5.381   2.764   2.100
 3802TIP3    H211413   5.481   2.857   2.035
 3803TIP3   OH211414   3.660   1.093   2.241
 3803TIP3    H111415   3.753   1.069   2.237
 3803TIP3    H211416   3.616   1.026   2.189
 3804TIP3   OH211417   0.399   4.180   4.126
 3804TIP3    H111418   0.463   4.251   4.119
 3804TIP3    H211419   0.435   4.121   4.192
 3805TIP3   OH211420   1.626   4.613   1.417
 3805TIP3    H111421   1.616   4.697   1.460
 3805TIP3    H211422   1.721   4.601   1.411
 3806TIP3   OH211423   0.402   2.181   0.470
 3806TIP3    H111424   0.475   2.120   0.462
 3806TIP3    H211425   0.340   2.137   0.528
 3807TIP3   OH211426   2.844   5.473   1.332
 3807TIP3    H111427   2.788   5.456   1.407
 3807TIP3    H211428   2.928   5.434   1.355
 3808TIP3   OH211429   6.313   4.841   4.438
 3808TIP3    H111430   6.265   4.896   4.499
 3808TIP3    H211431   6.308   4.753   4.476
 3809TIP3   OH211432   2.784   4.098   3.153
 3809TIP3    H111433   2.811   4.067   3.239
 3809TIP3    H211434   2.862   4.139   3.117
 3810TIP3   OH211435   4.826   2.304   4.389
 3810TIP3    H111436   4.884   2.328   4.461
 3810TIP3    H211437   4.761   2.374   4.385
 3811TIP3   OH211438   2.683   2.348   1.280
 3811TIP3    H111439   2.754   2.365   1.218
 3811TIP3    H211440   2.650   2.262   1.255
 3812TIP3   OH211441   3.963   0.436   0.817
 3812TIP3    H111442   3.996   0.403   0.901
 3812TIP3    H211443   3.870   0.453   0.834
 3813TIP3   OH211444   5.425   2.951   0.191
 3813TIP3    H111445   5.425   2.883   0.259
 3813TIP3    H211446   5.355   3.011   0.216
 3814TIP3   OH211447   6.299   1.979   3.435
 3814TIP3    H111448   6.213   2.010   3.409
 3814TIP3    H211449   6.334   1.937   3.356
 3815TIP3   OH211450   4.335   1.110   0.281
 3815TIP3    H111451   4.410   1.068   0.324
 3815TIP3    H211452   4.368   1.195   0.254
 3816TIP3   OH211453   0.702   4.233   4.536
 3816TIP3    H111454   0.764   4.182   4.484
 3816TIP3    H211455   0.712   4.201   4.625
 3817TIP3   OH211456   0.428   2.799   2.326
 3817TIP3    H111457   0.423   2.735   2.397
 3817TIP3    H211458   0.337   2.810   2.298
 3818TIP3   OH211459   5.483   3.942   4.603
 3818TIP3    H111460   5.452   3.854   4.625
 3818TIP3    H211461   5.578   3.938   4.615
 3819TIP3   OH211462   5.239   5.173   3.979
 3819TIP3    H111463   5.170   5.137   4.035
 3819TIP3    H211464   5.250   5.263   4.009
 3820TIP3   OH211465   2.749   1.319   1.203
 3820TIP3    H111466   2.665   1.273   1.201
 3820TIP3    H211467   2.789   1.292   1.286
 3821TIP3   OH211468   0.473   4.496   0.644
 3821TIP3    H111469   0.520   4.462   0.568
 3821TIP3    H211470   0.401   4.546   0.607
 3822TIP3   OH211471   6.067   3.615   0.417
 3822TIP3    H111472   6.049   3.644   0.506
 3822TIP3    H211473   5.983   3.622   0.372
 3823TIP3   OH211474   5.075   0.497   2.753
 3823TIP3    H111475   5.018   0.571   2.771
 3823TIP3    H211476   5.046   0.464   2.668
 3824TIP3   OH211477   0.133   4.790   0.671
 3824TIP3    H111478   0.203   4.830   0.620
 3824TIP3    H211479   0.113   4.709   0.625
 3825TIP3   OH211480   3.166   3.456   2.257
 3825TIP3    H111481   3.134   3.522   2.318
 3825TIP3    H211482   3.106   3.382   2.269
 3826TIP3   OH211483   1.989   4.192   1.347
 3826TIP3    H111484   2.035   4.276   1.346
 3826TIP3    H211485   1.901   4.213   1.315
 3827TIP3   OH211486   1.772   4.371   3.496
 3827TIP3    H111487   1.768   4.377   3.592
 3827TIP3    H211488   1.865   4.360   3.476
 3828TIP3   OH211489   6.024   4.194   5.069
 3828TIP3    H111490   6.007   4.100   5.071
 3828TIP3    H211491   5.988   4.227   5.152
 3829TIP3   OH211492   2.927   2.176   2.045
 3829TIP3    H111493   3.006   2.190   1.993
 3829TIP3    H211494   2.870   2.249   2.022
 3830TIP3   OH211495   3.672   3.052   4.495
 3830TIP3    H111496   3.577   3.062   4.486
 3830TIP3    H211497   3.686   2.957   4.490
 3831TIP3   OH211498   5.297   1.838   3.299
 3831TIP3    H111499   5.267   1.929   3.307
 3831TIP3    H211500   5.216   1.787   3.290
 3832TIP3   OH211501   0.218   0.511   1.602
 3832TIP3    H111502   0.173   0.430   1.625
 3832TIP3    H211503   0.293   0.514   1.660
 3833TIP3   OH211504   1.016   1.653   1.946
 3833TIP3    H111505   1.086   1.590   1.962
 3833TIP3    H211506   0.951   1.604   1.897
 3834TIP3   OH211507   5.841   0.829   0.747
 3834TIP3    H111508   5.779   0.827   0.674
 3834TIP3    H211509   5.800   0.774   0.814
 3835TIP3   OH211510   2.533   0.120   3.328
 3835TIP3    H111511   2.536   0.079   3.242
 3835TIP3    H211512   2.465   0.187   3.321
 3836TIP3   OH211513   6.149   0.814   2.097
 3836TIP3    H111514   6.176   0.793   2.007
 3836TIP3    H211515   6.053   0.809   2.095
 3837TIP3   OH211516   6.013   1.109   2.729
 3837TIP3    H111517   5.996   1.015   2.730
 3837TIP3    H211518   5.949   1.145   2.668
 3838TIP3   OH211519   4.240   3.947   0.457
 3838TIP3    H111520   4.209   3.922   0.370
 3838TIP3    H211521   4.335   3.957   0.446
 3839TIP3   OH211522   1.308   3.800   5.170
 3839TIP3    H111523   1.306   3.756   5.085
 3839TIP3    H211524   1.325   3.892   5.149
 3840TIP3   OH211525   3.559   1.356   4.902
 3840TIP3    H111526   3.574   1.285   4.839
 3840TIP3    H211527   3.470   1.386   4.883
 3841TIP3   OH211528   5.640   4.540   2.019
 3841TIP3    H111529   5.732   4.533   2.046
 3841TIP3    H211530   5.639   4.502   1.930
 3842TIP3   OH211531   5.015   3.912   4.387
 3842TIP3    H111532   4.958   3.854   4.437
 3842TIP3    H211533   4.956   3.954   4.324
 3843TIP3   OH211534   3.676   0.175   1.856
 3843TIP3    H111535   3.702   0.145   1.943
 3843TIP3    H211536   3.599   0.122   1.835
 3844TIP3   OH211537   3.484   0.169   2.858
 3844TIP3    H111538   3.483   0.235   2.789
 3844TIP3    H211539   3.415   0.197   2.919
 3845TIP3   OH211540   0.374   0.174   2.087
 3845TIP3    H111541   0.298   0.137   2.133
 3845TIP3    H211542   0.366   0.268   2.102
 3846TIP3   OH211543   1.775   5.610   2.022
 3846TIP3    H111544   1.835   5.535   2.023
 3846TIP3    H211545   1.703   5.584   2.079
 3847TIP3   OH211546   4.986   0.464   3.216
 3847TIP3    H111547   5.016   0.391   3.270
 3847TIP3    H211548   4.977   0.428   3.128
 3848TIP3   OH211549   5.871   4.413   4.948
 3848TIP3    H111550   5.958   4.377   4.964
 3848TIP3    H211551   5.817   4.337   4.925
 3849TIP3   OH211552   3.092   1.044   1.980
 3849TIP3    H111553   3.004   1.080   1.988
 3849TIP3    H211554   3.107   1.041   1.885
 3850TIP3   OH211555   2.801   3.258   2.721
 3850TIP3    H111556   2.800   3.345   2.681
 3850TIP3    H211557   2.830   3.272   2.811
 3851TIP3   OH211558   6.018   3.104   0.680
 3851TIP3    H111559   6.028   3.194   0.651
 3851TIP3    H211560   5.970   3.110   0.763
 3852TIP3   OH211561   0.508   3.759   0.426
 3852TIP3    H111562   0.413   3.771   0.417
 3852TIP3    H211563   0.527   3.684   0.370
 3853TIP3   OH211564   0.594   1.065   1.706
 3853TIP3    H111565   0.615   0.973   1.723
 3853TIP3    H211566   0.678   1.107   1.694
 3854TIP3   OH211567   1.353   1.272   3.311
 3854TIP3    H111568   1.317   1.360   3.321
 3854TIP3    H211569   1.302   1.232   3.242
 3855TIP3   OH211570   0.231   5.593   4.472
 3855TIP3    H111571   0.205   5.511   4.430
 3855TIP3    H211572   0.291   5.565   4.541
 3856TIP3   OH211573   3.844   2.694   2.299
 3856TIP3    H111574   3.813   2.771   2.252
 3856TIP3    H211575   3.921   2.665   2.250
 3857TIP3   OH211576   2.837   1.179   4.835
 3857TIP3    H111577   2.826   1.208   4.745
 3857TIP3    H211578   2.904   1.111   4.831
 3858TIP3   OH211579   4.876   1.678   5.143
 3858TIP3    H111580   4.882   1.593   5.185
 3858TIP3    H211581   4.966   1.698   5.115
 3859TIP3   OH211582   5.675   0.820   0.954
 3859TIP3    H111583   5.657   0.903   0.998
 3859TIP3    H211584   5.602   0.809   0.893
 3860TIP3   OH211585   3.549   2.816   1.165
 3860TIP3    H111586   3.529   2.753   1.095
 3860TIP3    H211587   3.643   2.828   1.160
 3861TIP3   OH211588   2.775   4.645   3.363
 3861TIP3    H111589   2.795   4.553   3.383
 3861TIP3    H211590   2.710   4.640   3.293
 3862TIP3   OH211591   0.238   1.589   2.061
 3862TIP3    H111592   0.177   1.652   2.098
 3862TIP3    H211593   0.196   1.560   1.980
 3863TIP3   OH211594   4.778   0.586   2.544
 3863TIP3    H111595   4.759   0.609   2.635
 3863TIP3    H211596   4.813   0.666   2.506
 3864TIP3   OH211597   2.858   2.712   3.935
 3864TIP3    H111598   2.796   2.645   3.964
 3864TIP3    H211599   2.905   2.672   3.863
 3865TIP3   OH211600   1.908   0.333   1.421
 3865TIP3    H111601   1.854   0.365   1.493
 3865TIP3    H211602   1.998   0.343   1.452
 3866TIP3   OH211603   0.700   5.875   1.761
 3866TIP3    H111604   0.636   5.874   1.832
 3866TIP3    H211605   0.726   5.966   1.753
 3867TIP3   OH211606   1.143   4.807   0.261
 3867TIP3    H111607   1.129   4.890   0.305
 3867TIP3    H211608   1.089   4.812   0.182
 3868TIP3   OH211609   2.245   1.530   3.211
 3868TIP3    H111610   2.264   1.582   3.132
 3868TIP3    H211611   2.244   1.440   3.180
 3869TIP3   OH211612   4.897   1.607   0.520
 3869TIP3    H111613   4.905   1.698   0.547
 3869TIP3    H211614   4.974   1.564   0.557
 3870TIP3   OH211615   6.065   0.887   0.172
 3870TIP3    H111616   6.159   0.871   0.169
 3870TIP3    H211617   6.027   0.802   0.193
 3871TIP3   OH211618   2.243   2.564   4.518
 3871TIP3    H111619   2.177   2.564   4.588
 3871TIP3    H211620   2.221   2.640   4.464
 3872TIP3   OH211621   1.139   3.346   0.993
 3872TIP3    H111622   1.173   3.430   1.025
 3872TIP3    H211623   1.190   3.280   1.039
 3873TIP3   OH211624   0.858   2.413   2.283
 3873TIP3    H111625   0.874   2.337   2.227
 3873TIP3    H211626   0.813   2.476   2.227
 3874TIP3   OH211627   1.862   1.478   3.044
 3874TIP3    H111628   1.869   1.413   2.974
 3874TIP3    H211629   1.768   1.484   3.062
 3875TIP3   OH211630   1.163   3.987   1.271
 3875TIP3    H111631   1.119   3.906   1.246
 3875TIP3    H211632   1.167   4.038   1.190
 3876TIP3   OH211633   0.761   3.550   2.631
 3876TIP3    H111634   0.703   3.540   2.707
 3876TIP3    H211635   0.834   3.602   2.664
 3877TIP3   OH211636   3.872   4.993   3.844
 3877TIP3    H111637   3.829   4.913   3.814
 3877TIP3    H211638   3.933   4.963   3.912
 3878TIP3   OH211639   5.295   2.841   2.486
 3878TIP3    H111640   5.267   2.932   2.492
 3878TIP3    H211641   5.343   2.836   2.403
 3879TIP3   OH211642   3.974   4.378   2.911
 3879TIP3    H111643   3.988   4.473   2.910
 3879TIP3    H211644   3.882   4.368   2.932
 3880TIP3   OH211645   3.129   2.221   1.870
 3880TIP3    H111646   3.142   2.259   1.783
 3880TIP3    H211647   3.182   2.141   1.869
 3881TIP3   OH211648   0.307   0.918   0.697
 3881TIP3    H111649   0.318   0.969   0.778
 3881TIP3    H211650   0.342   0.975   0.628
 3882TIP3   OH211651   3.014   3.844   0.766
 3882TIP3    H111652   2.927   3.806   0.769
 3882TIP3    H211653   3.061   3.793   0.700
 3883TIP3   OH211654   0.164   5.649   1.107
 3883TIP3    H111655   0.205   5.717   1.159
 3883TIP3    H211656   0.237   5.597   1.073
 3884TIP3   OH211657   5.857   5.069   2.822
 3884TIP3    H111658   5.865   5.160   2.852
 3884TIP3    H211659   5.948   5.042   2.806
 3885TIP3   OH211660   5.040   2.175   3.957
 3885TIP3    H111661   4.994   2.094   3.937
 3885TIP3    H211662   4.989   2.215   4.027
 3886TIP3   OH211663   1.738   3.405   3.091
 3886TIP3    H111664   1.688   3.415   3.172
 3886TIP3    H211665   1.829   3.399   3.120
 3887TIP3   OH211666   3.067   1.484   4.559
 3887TIP3    H111667   3.107   1.466   4.473
 3887TIP3    H211668   3.126   1.547   4.599
 3888TIP3   OH211669   4.534   1.861   1.742
 3888TIP3    H111670   4.625   1.892   1.733
 3888TIP3    H211671   4.493   1.923   1.802
 3889TIP3   OH211672   5.409   3.205   1.745
 3889TIP3    H111673   5.384   3.296   1.757
 3889TIP3    H211674   5.332   3.155   1.773
 3890TIP3   OH211675   0.491   1.896   0.550
 3890TIP3    H111676   0.398   1.874   0.562
 3890TIP3    H211677   0.534   1.811   0.542
 3891TIP3   OH211678   2.359   0.815   2.284
 3891TIP3    H111679   2.263   0.825   2.281
 3891TIP3    H211680   2.374   0.750   2.353
 3892TIP3   OH211681   5.773   2.306   2.679
 3892TIP3    H111682   5.680   2.286   2.686
 3892TIP3    H211683   5.777   2.401   2.664
 3893TIP3   OH211684   4.993   3.213   2.566
 3893TIP3    H111685   4.976   3.298   2.606
 3893TIP3    H211686   4.965   3.149   2.632
 3894TIP3   OH211687   2.498   3.614   4.615
 3894TIP3    H111688   2.532   3.688   4.666
 3894TIP3    H211689   2.574   3.558   4.601
 3895TIP3   OH211690   6.206   2.439   2.499
 3895TIP3    H111691   6.265   2.367   2.474
 3895TIP3    H211692   6.155   2.403   2.572
 3896TIP3   OH211693   4.069   3.497   2.728
 3896TIP3    H111694   4.040   3.586   2.747
 3896TIP3    H211695   3.992   3.443   2.746
 3897TIP3   OH211696   4.584   4.140   4.948
 3897TIP3    H111697   4.572   4.060   5.000
 3897TIP3    H211698   4.581   4.211   5.012
 3898TIP3   OH211699   3.303   0.090   4.262
 3898TIP3    H111700   3.233   0.154   4.254
 3898TIP3    H211701   3.379   0.132   4.221
 3899TIP3   OH211702   0.877   5.068   4.799
 3899TIP3    H111703   0.836   5.005   4.859
 3899TIP3    H211704   0.804   5.121   4.768
 3900TIP3   OH211705   0.327   2.790   1.550
 3900TIP3    H111706   0.408   2.809   1.502
 3900TIP3    H211707   0.343   2.705   1.591
 3901TIP3   OH211708   0.941   0.035   4.874
 3901TIP3    H111709   0.918  -0.005   4.958
 3901TIP3    H211710   0.978   0.120   4.897
 3902TIP3   OH211711   0.131   4.412   3.024
 3902TIP3    H111712   0.072   4.391   3.097
 3902TIP3    H211713   0.084   4.477   2.973
 3903TIP3   OH211714   6.197   2.544   1.369
 3903TIP3    H111715   6.157   2.477   1.313
 3903TIP3    H211716   6.138   2.619   1.361
 3904TIP3   OH211717   2.150   0.591   0.101
 3904TIP3    H111718   2.174   0.641   0.179
 3904TIP3    H211719   2.213   0.520   0.098
 3905TIP3   OH211720   0.106   1.020   4.685
 3905TIP3    H111721   0.183   0.963   4.681
 3905TIP3    H211722   0.053   0.996   4.610
 3906TIP3   OH211723   4.980   0.726   2.061
 3906TIP3    H111724   4.950   0.650   2.110
 3906TIP3    H211725   4.994   0.694   1.972
 3907TIP3   OH211726   5.743   2.886   1.620
 3907TIP3    H111727   5.821   2.840   1.651
 3907TIP3    H211728   5.722   2.843   1.537
 3908TIP3   OH211729   5.686   4.721   3.195
 3908TIP3    H111730   5.688   4.640   3.143
 3908TIP3    H211731   5.694   4.791   3.131
 3909TIP3   OH211732   3.780   1.347   1.603
 3909TIP3    H111733   3.739   1.320   1.521
 3909TIP3    H211734   3.871   1.317   1.596
 3910TIP3   OH211735   3.039   1.901   4.151
 3910TIP3    H111736   2.964   1.881   4.208
 3910TIP3    H211737   3.001   1.949   4.078
 3911TIP3   OH211738   2.165   0.150   1.651
 3911TIP3    H111739   2.161   0.054   1.656
 3911TIP3    H211740   2.157   0.179   1.742
 3912TIP3   OH211741   2.269   5.629   4.811
 3912TIP3    H111742   2.240   5.655   4.898
 3912TIP3    H211743   2.310   5.543   4.824
 3913TIP3   OH211744   3.537   1.000   1.364
 3913TIP3    H111745   3.461   1.058   1.371
 3913TIP3    H211746   3.501   0.912   1.367
 3914TIP3   OH211747   4.756   0.023   2.504
 3914TIP3    H111748   4.741   0.104   2.552
 3914TIP3    H211749   4.821   0.046   2.438
 3915TIP3   OH211750   0.831   5.845   2.495
 3915TIP3    H111751   0.905   5.805   2.450
 3915TIP3    H211752   0.804   5.779   2.559
 3916TIP3   OH211753   4.439   2.857   0.961
 3916TIP3    H111754   4.519   2.858   1.014
 3916TIP3    H211755   4.370   2.832   1.022
 3917TIP3   OH211756   0.841   3.410   1.910
 3917TIP3    H111757   0.838   3.332   1.966
 3917TIP3    H211758   0.761   3.458   1.931
 3918TIP3   OH211759   0.498   5.692   0.673
 3918TIP3    H111760   0.552   5.699   0.752
 3918TIP3    H211761   0.537   5.619   0.625
 3919TIP3   OH211762   2.183   3.881   3.268
 3919TIP3    H111763   2.143   3.925   3.193
 3919TIP3    H211764   2.122   3.896   3.340
 3920TIP3   OH211765   2.419   5.688   2.827
 3920TIP3    H111766   2.330   5.653   2.826
 3920TIP3    H211767   2.408   5.783   2.823
 3921TIP3   OH211768   3.696   1.883   0.954
 3921TIP3    H111769   3.682   1.788   0.960
 3921TIP3    H211770   3.661   1.917   1.036
 3922TIP3   OH211771   4.017   0.766   1.986
 3922TIP3    H111772   4.038   0.673   1.973
 3922TIP3    H211773   4.009   0.801   1.897
 3923TIP3   OH211774   3.066   0.595   1.556
 3923TIP3    H111775   3.054   0.522   1.495
 3923TIP3    H211776   3.139   0.568   1.612
 3924TIP3   OH211777   4.847   5.300   2.901
 3924TIP3    H111778   4.774   5.294   2.839
 3924TIP3    H211779   4.826   5.235   2.968
 3925TIP3   OH211780   3.515   2.167   3.316
 3925TIP3    H111781   3.576   2.102   3.350
 3925TIP3    H211782   3.542   2.249   3.357
 3926TIP3   OH211783   5.657   2.247   0.107
 3926TIP3    H111784   5.594   2.319   0.099
 3926TIP3    H211785   5.685   2.231   0.017
 3927TIP3   OH211786   5.853   3.358   1.870
 3927TIP3    H111787   5.861   3.452   1.855
 3927TIP3    H211788   5.765   3.346   1.906
 3928TIP3   OH211789   2.939   0.480   4.616
 3928TIP3    H111790   2.865   0.511   4.565
 3928TIP3    H211791   3.016   0.497   4.560
 3929TIP3   OH211792   6.328   0.886   0.807
 3929TIP3    H111793   6.348   0.832   0.883
 3929TIP3    H211794   6.236   0.910   0.818
 3930TIP3   OH211795   3.425   4.440   0.166
 3930TIP3    H111796   3.345   4.483   0.137
 3930TIP3    H211797   3.406   4.346   0.159
 3931TIP3   OH211798   3.420   1.358   1.587
 3931TIP3    H111799   3.405   1.336   1.679
 3931TIP3    H211800   3.510   1.328   1.570
 3932TIP3   OH211801   4.038   5.939   3.354
 3932TIP3    H111802   4.019   6.020   3.401
 3932TIP3    H211803   4.121   5.909   3.392
 3933TIP3   OH211804   2.193   3.183   0.371
 3933TIP3    H111805   2.134   3.150   0.439
 3933TIP3    H211806   2.176   3.128   0.295
 3934TIP3   OH211807   0.884   2.727   2.376
 3934TIP3    H111808   0.850   2.653   2.326
 3934TIP3    H211809   0.813   2.751   2.436
 3935TIP3   OH211810   1.418   2.107   0.173
 3935TIP3    H111811   1.504   2.149   0.179
 3935TIP3    H211812   1.431   2.021   0.214
 3936TIP3   OH211813   6.145   1.093   2.034
 3936TIP3    H111814   6.155   1.074   1.941
 3936TIP3    H211815   6.135   1.007   2.075
 3937TIP3   OH211816   5.108   0.931   3.931
 3937TIP3    H111817   5.199   0.931   3.959
 3937TIP3    H211818   5.068   0.857   3.977
 3938TIP3   OH211819   4.037   3.969   3.694
 3938TIP3    H111820   4.092   3.958   3.616
 3938TIP3    H211821   3.990   4.051   3.678
 3939TIP3   OH211822   0.235   1.321   3.861
 3939TIP3    H111823   0.291   1.366   3.925
 3939TIP3    H211824   0.150   1.314   3.903
 3940TIP3   OH211825   4.747   1.188   4.969
 3940TIP3    H111826   4.731   1.280   4.989
 3940TIP3    H211827   4.808   1.190   4.895
 3941TIP3   OH211828   6.075   3.046   1.274
 3941TIP3    H111829   6.102   3.075   1.187
 3941TIP3    H211830   6.002   3.103   1.298
 3942TIP3   OH211831   2.809   4.002   1.710
 3942TIP3    H111832   2.754   4.073   1.678
 3942TIP3    H211833   2.749   3.927   1.719
 3943TIP3   OH211834   5.113   1.823   1.867
 3943TIP3    H111835   5.193   1.870   1.890
 3943TIP3    H211836   5.104   1.755   1.934
 3944TIP3   OH211837   0.403   5.827   3.505
 3944TIP3    H111838   0.426   5.740   3.474
 3944TIP3    H211839   0.475   5.883   3.475
 3945TIP3   OH211840   0.205   0.717   4.472
 3945TIP3    H111841   0.294   0.743   4.450
 3945TIP3    H211842   0.156   0.800   4.473
 3946TIP3   OH211843   5.272   0.768   3.492
 3946TIP3    H111844   5.338   0.703   3.514
 3946TIP3    H211845   5.316   0.852   3.504
 3947TIP3   OH211846   3.666   5.069   0.201
 3947TIP3    H111847   3.589   5.125   0.190
 3947TIP3    H211848   3.677   5.026   0.115
 3948TIP3   OH211849   1.060   3.109   3.325
 3948TIP3    H111850   1.154   3.116   3.341
 3948TIP3    H211851   1.045   3.163   3.247
 3949TIP3   OH211852   0.336   5.305   1.104
 3949TIP3    H111853   0.394   5.334   1.174
 3949TIP3    H211854   0.332   5.380   1.044
 3950TIP3   OH211855   3.944   1.538   0.067
 3950TIP3    H111856   3.902   1.466   0.114
 3950TIP3    H211857   3.871   1.586   0.027
 3951TIP3   OH211858   2.059   4.317   4.544
 3951TIP3    H111859   2.098   4.402   4.524
 3951TIP3    H211860   2.077   4.302   4.636
 3952TIP3   OH211861   0.500   2.712   4.700
 3952TIP3    H111862   0.444   2.635   4.704
 3952TIP3    H211863   0.498   2.749   4.788
 3953TIP3   OH211864   2.729   2.336   4.963
 3953TIP3    H111865   2.822   2.353   4.977
 3953TIP3    H211866   2.685   2.413   4.997
 3954TIP3   OH211867   0.478   0.480   3.732
 3954TIP3    H111868   0.530   0.538   3.675
 3954TIP3    H211869   0.387   0.501   3.711
 3955TIP3   OH211870   2.989   5.895   3.379
 3955TIP3    H111871   3.008   5.809   3.417
 3955TIP3    H211872   2.956   5.876   3.291
 3956TIP3   OH211873   5.916   4.062   4.555
 3956TIP3    H111874   5.845   4.003   4.528
 3956TIP3    H211875   5.903   4.141   4.503
 3957TIP3   OH211876   2.515   5.305   2.574
 3957TIP3    H111877   2.573   5.357   2.630
 3957TIP3    H211878   2.571   5.276   2.502
 3958TIP3   OH211879   2.407   1.925   0.932
 3958TIP3    H111880   2.393   2.020   0.940
 3958TIP3    H211881   2.394   1.892   1.021
 3959TIP3   OH211882   3.229   1.990   2.937
 3959TIP3    H111883   3.280   2.001   2.856
 3959TIP3    H211884   3.267   2.054   2.997
 3960TIP3   OH211885   2.907   0.561   0.139
 3960TIP3    H111886   2.939   0.642   0.181
 3960TIP3    H211887   2.978   0.499   0.151
 3961TIP3   OH211888   2.172   4.420   1.345
 3961TIP3    H111889   2.263   4.431   1.318
 3961TIP3    H211890   2.169   4.450   1.436
 3962TIP3   OH211891   4.019   2.311   0.817
 3962TIP3    H111892   4.070   2.369   0.760
 3962TIP3    H211893   4.085   2.263   0.868
 3963TIP3   OH211894   0.601   0.904   4.711
 3963TIP3    H111895   0.668   0.844   4.679
 3963TIP3    H211896   0.522   0.851   4.718
 3964TIP3   OH211897   3.910   4.286   1.811
 3964TIP3    H111898   3.917   4.195   1.841
 3964TIP3    H211899   3.923   4.339   1.890
 3965TIP3   OH211900   5.902   2.812   1.032
 3965TIP3    H111901   5.937   2.806   0.943
 3965TIP3    H211902   5.831   2.876   1.025
 3966TIP3   OH211903   5.455   2.671   3.714
 3966TIP3    H111904   5.514   2.610   3.757
 3966TIP3    H211905   5.382   2.680   3.774
 3967TIP3   OH211906   3.786   3.130   3.382
 3967TIP3    H111907   3.704   3.083   3.397
 3967TIP3    H211908   3.813   3.159   3.469
 3968TIP3   OH211909   6.195   5.214   4.760
 3968TIP3    H111910   6.143   5.259   4.827
 3968TIP3    H211911   6.280   5.200   4.801
 3969TIP3   OH211912   5.328   4.244   3.895
 3969TIP3    H111913   5.276   4.167   3.918
 3969TIP3    H211914   5.270   4.298   3.840
 3970TIP3   OH211915   1.884   4.088   3.367
 3970TIP3    H111916   1.933   4.012   3.396
 3970TIP3    H211917   1.939   4.163   3.391
 3971TIP3   OH211918   5.105   0.169   0.122
 3971TIP3    H111919   5.053   0.099   0.082
 3971TIP3    H211920   5.041   0.222   0.170
 3972TIP3   OH211921   4.647   0.274   3.833
 3972TIP3    H111922   4.624   0.182   3.824
 3972TIP3    H211923   4.632   0.311   3.745
 3973TIP3   OH211924   4.101   0.166   2.732
 3973TIP3    H111925   4.156   0.237   2.765
 3973TIP3    H211926   4.014   0.205   2.723
 3974TIP3   OH211927   2.963   5.634   4.236
 3974TIP3    H111928   2.912   5.644   4.316
 3974TIP3    H211929   2.919   5.564   4.188
 3975TIP3   OH211930   3.180   4.716   4.535
 3975TIP3    H111931   3.116   4.682   4.597
 3975TIP3    H211932   3.239   4.769   4.588
 3976TIP3   OH211933   1.745   2.390   2.860
 3976TIP3    H111934   1.715   2.305   2.830
 3976TIP3    H211935   1.667   2.433   2.893
 3977TIP3   OH211936   3.787   4.852   5.125
 3977TIP3    H111937   3.720   4.808   5.176
 3977TIP3    H211938   3.770   4.945   5.137
 3978TIP3   OH211939   6.375   4.924   0.399
 3978TIP3    H111940   6.292   4.937   0.443
 3978TIP3    H211941   6.397   4.832   0.415
 3979TIP3   OH211942   3.425   1.574   2.438
 3979TIP3    H111943   3.341   1.590   2.480
 3979TIP3    H211944   3.484   1.639   2.477
 3980TIP3   OH211945   3.038   4.121   2.838
 3980TIP3    H111946   2.994   4.202   2.864
 3980TIP3    H211947   3.077   4.088   2.919
 3981TIP3   OH211948   1.645   3.692   4.988
 3981TIP3    H111949   1.634   3.779   5.026
 3981TIP3    H211950   1.640   3.706   4.893
 3982TIP3   OH211951   4.051   3.454   3.776
 3982TIP3    H111952   4.064   3.549   3.777
 3982TIP3    H211953   4.112   3.421   3.842
 3983TIP3   OH211954   2.889   5.812   3.139
 3983TIP3    H111955   2.885   5.906   3.119
 3983TIP3    H211956   2.812   5.775   3.096
 3984TIP3   OH211957   0.366   4.395   4.973
 3984TIP3    H111958   0.272   4.380   4.985
 3984TIP3    H211959   0.399   4.415   5.060
 3985TIP3   OH211960   3.632   5.673   2.591
 3985TIP3    H111961   3.643   5.623   2.510
 3985TIP3    H211962   3.718   5.670   2.633
 3986TIP3   OH211963   3.277   0.442   4.060
 3986TIP3    H111964   3.227   0.385   4.001
 3986TIP3    H211965   3.366   0.408   4.058
 3987TIP3   OH211966   1.568   4.275   4.030
 3987TIP3    H111967   1.544   4.351   3.978
 3987TIP3    H211968   1.556   4.303   4.121
 3988TIP3   OH211969   3.754   0.854   1.201
 3988TIP3    H111970   3.671   0.897   1.182
 3988TIP3    H211971   3.733   0.787   1.266
 3989TIP3   OH211972   4.961   0.293   1.173
 3989TIP3    H111973   4.934   0.314   1.263
 3989TIP3    H211974   4.888   0.242   1.138
 3990TIP3   OH211975   4.638   2.619   1.575
 3990TIP3    H111976   4.712   2.677   1.556
 3990TIP3    H211977   4.639   2.608   1.670
 3991TIP3   OH211978   5.239   1.946   0.768
 3991TIP3    H111979   5.211   2.005   0.698
 3991TIP3    H211980   5.327   1.918   0.742
 3992TIP3   OH211981   0.378   5.579   3.377
 3992TIP3    H111982   0.429   5.509   3.336
 3992TIP3    H211983   0.294   5.538   3.399
 3993TIP3   OH211984   1.152   4.673   3.804
 3993TIP3    H111985   1.185   4.688   3.892
 3993TIP3    H211986   1.141   4.578   3.798
 3994TIP3   OH211987   5.586   5.445   1.373
 3994TIP3    H111988   5.667   5.408   1.338
 3994TIP3    H211989   5.594   5.433   1.468
 3995TIP3   OH211990   2.187   2.588   0.604
 3995TIP3    H111991   2.100   2.575   0.642
 3995TIP3    H211992   2.243   2.609   0.678
 3996TIP3   OH211993   3.263   2.336   4.799
 3996TIP3    H111994   3.335   2.289   4.757
 3996TIP3    H211995   3.299   2.367   4.882
 3997TIP3   OH211996   0.075   3.340   2.869
 3997TIP3    H111997   0.059   3.325   2.962
 3997TIP3    H211998   0.101   3.255   2.835
 3998TIP3   OH211999   3.563   4.622   4.774
 3998TIP3    H112000   3.535   4.563   4.704
 3998TIP3    H212001   3.521   4.705   4.753
 3999TIP3   OH212002   3.879   0.583   3.414
 3999TIP3    H112003   3.944   0.586   3.484
 3999TIP3    H212004   3.913   0.642   3.347
 4000TIP3   OH212005   5.114   4.421   0.976
 4000TIP3    H112006   5.022   4.411   0.952
 4000TIP3    H212007   5.113   4.427   1.071
 4001TIP3   OH212008   0.173   2.962   4.894
 4001TIP3    H112009   0.098   2.954   4.835
 4001TIP3    H212010   0.185   3.057   4.903
 4002TIP3   OH212011   2.965   1.574   2.945
 4002TIP3    H112012   2.890   1.634   2.948
 4002TIP3    H212013   3.033   1.619   2.995
 4003TIP3   OH212014   2.672   1.179   3.692
 4003TIP3    H112015   2.730   1.103   3.701
 4003TIP3    H212016   2.697   1.237   3.764
 4004TIP3   OH212017   2.517   0.738   0.428
 4004TIP3    H112018   2.584   0.676   0.458
 4004TIP3    H212019   2.440   0.717   0.481
 4005TIP3   OH212020   5.048   5.643   1.227
 4005TIP3    H112021   5.143   5.627   1.232
 4005TIP3    H212022   5.023   5.609   1.141
 4006TIP3   OH212023   2.047   1.053   4.491
 4006TIP3    H112024   2.079   1.036   4.580
 4006TIP3    H212025   2.116   1.106   4.451
 4007TIP3   OH212026   3.939   1.259   5.126
 4007TIP3    H112027   3.990   1.300   5.196
 4007TIP3    H212028   3.943   1.322   5.053
 4008TIP3   OH212029   0.428   1.745   2.677
 4008TIP3    H112030   0.360   1.800   2.637
 4008TIP3    H212031   0.455   1.686   2.607
 4009TIP3   OH212032   6.356   5.310   5.016
 4009TIP3    H112033   6.305   5.390   5.000
 4009TIP3    H212034   6.299   5.257   5.072
 4010TIP3   OH212035   1.634   2.604   1.581
 4010TIP3    H112036   1.542   2.613   1.556
 4010TIP3    H212037   1.675   2.557   1.508
 4011TIP3   OH212038   5.244   3.761   4.385
 4011TIP3    H112039   5.283   3.749   4.299
 4011TIP3    H212040   5.155   3.792   4.367
 4012TIP3   OH212041   5.935   1.939   1.316
 4012TIP3    H112042   5.873   1.866   1.318
 4012TIP3    H212043   5.934   1.968   1.224
 4013TIP3   OH212044   6.334   2.806   1.153
 4013TIP3    H112045   6.402   2.807   1.220
 4013TIP3    H212046   6.367   2.863   1.084
 4014TIP3   OH212047   0.301   0.131   2.371
 4014TIP3    H112048   0.302   0.201   2.435
 4014TIP3    H212049   0.212   0.132   2.335
 4015TIP3   OH212050   5.588   5.124   1.624
 4015TIP3    H112051   5.677   5.153   1.642
 4015TIP3    H212052   5.538   5.205   1.613
 4016TIP3   OH212053   2.771   2.653   1.218
 4016TIP3    H112054   2.780   2.722   1.151
 4016TIP3    H212055   2.688   2.610   1.198
 4017TIP3   OH212056   1.926   3.611   3.365
 4017TIP3    H112057   1.838   3.645   3.380
 4017TIP3    H212058   1.945   3.559   3.443
 4018TIP3   OH212059   4.119   1.146   4.424
 4018TIP3    H112060   4.108   1.058   4.388
 4018TIP3    H212061   4.213   1.162   4.417
 4019TIP3   OH212062   4.258   2.393   2.298
 4019TIP3    H112063   4.304   2.458   2.352
 4019TIP3    H212064   4.166   2.400   2.325
 4020TIP3   OH212065   0.162   0.529   4.087
 4020TIP3    H112066   0.122   0.480   4.016
 4020TIP3    H212067   0.231   0.582   4.045
 4021TIP3   OH212068   4.203   1.623   3.226
 4021TIP3    H112069   4.220   1.547   3.170
 4021TIP3    H212070   4.287   1.644   3.265
 4022TIP3   OH212071   0.794   3.941   2.937
 4022TIP3    H112072   0.793   4.033   2.912
 4022TIP3    H212073   0.735   3.899   2.876
 4023TIP3   OH212074   5.569   5.145   4.244
 4023TIP3    H112075   5.539   5.194   4.169
 4023TIP3    H212076   5.519   5.063   4.241
 4024TIP3   OH212077   0.328   0.959   3.928
 4024TIP3    H112078   0.233   0.970   3.931
 4024TIP3    H212079   0.349   0.901   4.001
 4025TIP3   OH212080   0.158   5.065   2.014
 4025TIP3    H112081   0.167   5.075   1.919
 4025TIP3    H212082   0.197   5.145   2.050
 4026TIP3   OH212083   5.848   5.373   2.432
 4026TIP3    H112084   5.790   5.347   2.361
 4026TIP3    H212085   5.817   5.323   2.508
 4027TIP3   OH212086   1.222   1.886   2.016
 4027TIP3    H112087   1.267   1.861   2.097
 4027TIP3    H212088   1.170   1.810   1.992
 4028TIP3   OH212089   2.061   1.995   0.480
 4028TIP3    H112090   2.119   1.988   0.556
 4028TIP3    H212091   2.076   2.084   0.447
 4029TIP3   OH212092   5.318   2.154   2.620
 4029TIP3    H112093   5.357   2.227   2.668
 4029TIP3    H212094   5.260   2.112   2.684
 4030TIP3   OH212095   4.101   3.366   0.252
 4030TIP3    H112096   4.074   3.383   0.162
 4030TIP3    H212097   4.081   3.273   0.266
 4031TIP3   OH212098   0.801   0.635   2.711
 4031TIP3    H112099   0.751   0.561   2.745
 4031TIP3    H212100   0.737   0.704   2.697
 4032TIP3   OH212101   3.925   0.893   3.548
 4032TIP3    H112102   3.843   0.904   3.500
 4032TIP3    H212103   3.905   0.829   3.615
 4033TIP3   OH212104   2.570   0.389   4.652
 4033TIP3    H112105   2.479   0.416   4.638
 4033TIP3    H212106   2.618   0.472   4.661
 4034TIP3   OH212107   3.103   2.418   1.470
 4034TIP3    H112108   3.111   2.422   1.566
 4034TIP3    H212109   3.183   2.459   1.438
 4035TIP3   OH212110   4.472   0.597   0.063
 4035TIP3    H112111   4.522   0.552   0.131
 4035TIP3    H212112   4.456   0.684   0.099
 4036TIP3   OH212113   3.250   3.931   2.202
 4036TIP3    H112114   3.181   3.931   2.267
 4036TIP3    H212115   3.317   3.990   2.237
 4037TIP3   OH212116   1.027   4.773   4.140
 4037TIP3    H112117   1.040   4.678   4.137
 4037TIP3    H212118   1.107   4.810   4.104
 4038TIP3   OH212119   5.191   1.765   0.448
 4038TIP3    H112120   5.226   1.851   0.424
 4038TIP3    H212121   5.155   1.731   0.366
 4039TIP3   OH212122   4.608   2.614   1.105
 4039TIP3    H112123   4.626   2.707   1.115
 4039TIP3    H212124   4.574   2.587   1.190
 4040TIP3   OH212125   6.296   0.277   3.296
 4040TIP3    H112126   6.230   0.290   3.228
 4040TIP3    H212127   6.248   0.284   3.378
 4041TIP3   OH212128   1.995   4.548   0.203
 4041TIP3    H112129   2.068   4.540   0.265
 4041TIP3    H212130   1.952   4.629   0.227
 4042TIP3   OH212131   0.541   1.495   0.275
 4042TIP3    H112132   0.586   1.477   0.193
 4042TIP3    H212133   0.490   1.415   0.292
 4043TIP3   OH212134   2.707   1.478   3.165
 4043TIP3    H112135   2.789   1.430   3.168
 4043TIP3    H212136   2.640   1.409   3.162
 4044TIP3   OH212137   3.957   2.129   4.026
 4044TIP3    H112138   3.869   2.157   4.001
 4044TIP3    H212139   3.944   2.063   4.094
 4045TIP3   OH212140   5.477   4.105   1.913
 4045TIP3    H112141   5.484   4.122   2.007
 4045TIP3    H212142   5.568   4.100   1.882
 4046TIP3   OH212143   1.078   5.843   2.951
 4046TIP3    H112144   1.162   5.834   2.996
 4046TIP3    H212145   1.045   5.754   2.942
 4047TIP3   OH212146   1.930   1.027   0.805
 4047TIP3    H112147   2.023   1.034   0.785
 4047TIP3    H212148   1.910   0.934   0.795
 4048TIP3   OH212149   5.254   1.665   0.016
 4048TIP3    H112150   5.278   1.595  -0.045
 4048TIP3    H212151   5.297   1.743  -0.019
 4049TIP3   OH212152   3.195   4.831   1.309
 4049TIP3    H112153   3.228   4.899   1.249
 4049TIP3    H212154   3.200   4.872   1.395
 4050TIP3   OH212155   1.078   0.083   1.745
 4050TIP3    H112156   1.031   0.094   1.663
 4050TIP3    H212157   1.094  -0.011   1.752
 4051TIP3   OH212158   3.201   5.018   5.222
 4051TIP3    H112159   3.279   5.055   5.180
 4051TIP3    H212160   3.132   5.028   5.158
 4052TIP3   OH212161   4.089   4.663   0.250
 4052TIP3    H112162   4.042   4.591   0.209
 4052TIP3    H212163   4.026   4.736   0.249
 4053TIP3   OH212164   6.041   2.762   1.276
 4053TIP3    H112165   6.003   2.761   1.188
 4053TIP3    H212166   6.091   2.844   1.279
 4054TIP3   OH212167   3.813   5.356   1.106
 4054TIP3    H112168   3.782   5.421   1.042
 4054TIP3    H212169   3.734   5.312   1.136
 4055TIP3   OH212170   5.398   0.544   2.001
 4055TIP3    H112171   5.342   0.592   2.062
 4055TIP3    H212172   5.439   0.612   1.948
 4056TIP3   OH212173   4.051   2.964   5.154
 4056TIP3    H112174   3.979   2.924   5.203
 4056TIP3    H212175   4.049   2.921   5.069
 4057TIP3   OH212176   4.774   1.062   0.297
 4057TIP3    H112177   4.802   1.147   0.264
 4057TIP3    H212178   4.855   1.012   0.311
 4058TIP3   OH212179   5.022   0.023   3.769
 4058TIP3    H112180   5.071   0.102   3.793
 4058TIP3    H212181   5.090  -0.042   3.753
 4059TIP3   OH212182   6.043   4.346   2.365
 4059TIP3    H112183   6.083   4.432   2.358
 4059TIP3    H212184   6.082   4.307   2.442
 4060TIP3   OH212185   4.445   3.522   1.583
 4060TIP3    H112186   4.381   3.451   1.579
 4060TIP3    H212187   4.526   3.484   1.548
 4061TIP3   OH212188   5.404   2.948   1.088
 4061TIP3    H112189   5.340   2.882   1.116
 4061TIP3    H212190   5.467   2.952   1.160
 4062TIP3   OH212191   3.661   0.797   2.780
 4062TIP3    H112192   3.614   0.831   2.704
 4062TIP3    H212193   3.713   0.724   2.746
 4063TIP3   OH212194   4.312   5.923   4.142
 4063TIP3    H112195   4.293   5.921   4.049
 4063TIP3    H212196   4.226   5.927   4.184
 4064TIP3   OH212197   5.409   0.816   2.742
 4064TIP3    H112198   5.390   0.786   2.830
 4064TIP3    H212199   5.427   0.910   2.752
 4065TIP3   OH212200   5.403   0.293   2.852
 4065TIP3    H112201   5.413   0.376   2.805
 4065TIP3    H212202   5.484   0.284   2.902
 4066TIP3   OH212203   4.660   3.455   0.275
 4066TIP3    H112204   4.715   3.401   0.331
 4066TIP3    H212205   4.571   3.422   0.289
 4067TIP3   OH212206   2.839   4.196   3.607
 4067TIP3    H112207   2.788   4.249   3.668
 4067TIP3    H212208   2.882   4.131   3.661
 4068TIP3   OH212209   0.384   1.445   0.565
 4068TIP3    H112210   0.428   1.530   0.571
 4068TIP3    H212211   0.411   1.412   0.479
 4069TIP3   OH212212   2.335   2.344   2.214
 4069TIP3    H112213   2.390   2.278   2.256
 4069TIP3    H212214   2.379   2.427   2.235
 4070TIP3   OH212215   5.470   4.595   1.190
 4070TIP3    H112216   5.393   4.639   1.153
 4070TIP3    H212217   5.452   4.592   1.284
 4071TIP3   OH212218   5.912   5.296   4.516
 4071TIP3    H112219   5.999   5.330   4.535
 4071TIP3    H212220   5.854   5.371   4.526
 4072TIP3   OH212221   1.784   5.190   2.545
 4072TIP3    H112222   1.738   5.209   2.464
 4072TIP3    H212223   1.876   5.199   2.523
 4073TIP3   OH212224   2.378   2.759   4.978
 4073TIP3    H112225   2.386   2.850   5.005
 4073TIP3    H212226   2.305   2.725   5.029
 4074TIP3   OH212227   0.924   2.304   0.580
 4074TIP3    H112228   0.889   2.235   0.635
 4074TIP3    H212229   0.986   2.351   0.636
 4075TIP3   OH212230   0.915   5.752   0.333
 4075TIP3    H112231   0.846   5.778   0.394
 4075TIP3    H212232   0.925   5.828   0.275
 4076TIP3   OH212233   5.852   1.842   4.060
 4076TIP3    H112234   5.810   1.923   4.088
 4076TIP3    H212235   5.818   1.826   3.972
 4077TIP3   OH212236   2.413   4.484   1.196
 4077TIP3    H112237   2.486   4.463   1.138
 4077TIP3    H212238   2.368   4.557   1.154
 4078TIP3   OH212239   1.375   2.046   1.257
 4078TIP3    H112240   1.401   2.121   1.204
 4078TIP3    H212241   1.322   1.992   1.198
 4079TIP3   OH212242   5.726   0.822   4.517
 4079TIP3    H112243   5.702   0.915   4.520
 4079TIP3    H212244   5.760   0.802   4.604
 4080TIP3   OH212245   1.896   1.719   1.596
 4080TIP3    H112246   1.913   1.805   1.558
 4080TIP3    H212247   1.941   1.657   1.537
 4081TIP3   OH212248   1.496   5.842   2.483
 4081TIP3    H112249   1.590   5.862   2.490
 4081TIP3    H212250   1.479   5.780   2.554
 4082TIP3   OH212251   4.229   3.481   4.257
 4082TIP3    H112252   4.242   3.549   4.191
 4082TIP3    H212253   4.135   3.462   4.254
 4083TIP3   OH212254   0.191   2.825   2.479
 4083TIP3    H112255   0.178   2.730   2.484
 4083TIP3    H212256   0.256   2.843   2.547
 4084TIP3   OH212257   5.534   3.023   0.562
 4084TIP3    H112258   5.597   3.091   0.538
 4084TIP3    H212259   5.541   3.017   0.657
 4085TIP3   OH212260   0.539   3.634   1.325
 4085TIP3    H112261   0.622   3.682   1.324
 4085TIP3    H212262   0.484   3.682   1.387
 4086TIP3   OH212263   1.920   3.552   3.653
 4086TIP3    H112264   1.861   3.624   3.673
 4086TIP3    H212265   2.004   3.577   3.693
 4087TIP3   OH212266   4.609   1.345   4.525
 4087TIP3    H112267   4.538   1.310   4.471
 4087TIP3    H212268   4.674   1.377   4.463
 4088TIP3   OH212269   1.811   0.944   0.252
 4088TIP3    H112270   1.866   1.009   0.295
 4088TIP3    H212271   1.737   0.994   0.218
 4089TIP3   OH212272   2.694   5.742   0.763
 4089TIP3    H112273   2.756   5.765   0.693
 4089TIP3    H212274   2.743   5.758   0.844
 4090TIP3   OH212275   5.920   2.299   5.198
 4090TIP3    H112276   5.952   2.254   5.120
 4090TIP3    H212277   5.839   2.341   5.170
 4091TIP3   OH212278   4.578   0.135   0.036
 4091TIP3    H112279   4.602   0.045   0.016
 4091TIP3    H212280   4.621   0.187  -0.032
 4092TIP3   OH212281   1.085   5.713   0.721
 4092TIP3    H112282   1.121   5.625   0.728
 4092TIP3    H212283   1.092   5.735   0.628
 4093TIP3   OH212284   5.137   0.008   1.740
 4093TIP3    H112285   5.066   0.002   1.676
 4093TIP3    H212286   5.191   0.081   1.711
 4094TIP3   OH212287   2.613   0.466   1.874
 4094TIP3    H112288   2.545   0.401   1.856
 4094TIP3    H212289   2.566   0.543   1.903
 4095TIP3   OH212290   5.100   0.418   5.003
 4095TIP3    H112291   5.011   0.394   5.030
 4095TIP3    H212292   5.154   0.405   5.081
 4096TIP3   OH212293   3.640   3.822   1.071
 4096TIP3    H112294   3.563   3.770   1.048
 4096TIP3    H212295   3.713   3.778   1.027
 4097TIP3   OH212296   6.095   1.332   1.235
 4097TIP3    H112297   6.094   1.241   1.206
 4097TIP3    H212298   6.024   1.374   1.187
 4098TIP3   OH212299   3.557   4.326   3.689
 4098TIP3    H112300   3.504   4.248   3.672
 4098TIP3    H212301   3.565   4.368   3.604
 4099TIP3   OH212302   2.422   0.553   3.629
 4099TIP3    H112303   2.483   0.538   3.557
 4099TIP3    H212304   2.455   0.500   3.701
 4100TIP3   OH212305   3.787   3.386   3.593
 4100TIP3    H112306   3.746   3.312   3.638
 4100TIP3    H212307   3.776   3.460   3.653
 4101TIP3   OH212308   5.786   1.687   2.802
 4101TIP3    H112309   5.737   1.605   2.807
 4101TIP3    H212310   5.753   1.730   2.723
 4102TIP3   OH212311   4.495   1.486   1.373
 4102TIP3    H112312   4.473   1.458   1.462
 4102TIP3    H212313   4.569   1.546   1.384
 4103TIP3   OH212314   6.120   1.504   0.524
 4103TIP3    H112315   6.114   1.597   0.546
 4103TIP3    H212316   6.068   1.461   0.591
 4104TIP3   OH212317   3.322   3.539   1.808
 4104TIP3    H112318   3.290   3.471   1.748
 4104TIP3    H212319   3.261   3.536   1.882
 4105TIP3   OH212320   2.315   4.446   0.211
 4105TIP3    H112321   2.334   4.384   0.141
 4105TIP3    H212322   2.291   4.527   0.166
 4106TIP3   OH212323   2.413   4.096   1.583
 4106TIP3    H112324   2.393   4.175   1.534
 4106TIP3    H212325   2.491   4.118   1.635
 4107TIP3   OH212326   2.284   0.250   1.422
 4107TIP3    H112327   2.241   0.176   1.464
 4107TIP3    H212328   2.353   0.276   1.483
 4108TIP3   OH212329   6.262   1.710   1.952
 4108TIP3    H112330   6.327   1.725   2.021
 4108TIP3    H212331   6.190   1.770   1.974
 4109TIP3   OH212332   1.498   1.997   1.946
 4109TIP3    H112333   1.407   1.969   1.940
 4109TIP3    H212334   1.509   2.025   2.037
 4110TIP3   OH212335   4.996   3.423   3.667
 4110TIP3    H112336   4.998   3.503   3.720
 4110TIP3    H212337   4.917   3.433   3.613
 4111TIP3   OH212338   1.789   2.904   2.430
 4111TIP3    H112339   1.744   2.831   2.472
 4111TIP3    H212340   1.880   2.876   2.422
 4112TIP3   OH212341   2.122   0.449   3.943
 4112TIP3    H112342   2.216   0.452   3.959
 4112TIP3    H212343   2.093   0.540   3.947
 4113TIP3   OH212344   2.180   2.227   4.509
 4113TIP3    H112345   2.105   2.287   4.510
 4113TIP3    H212346   2.216   2.236   4.421
 4114TIP3   OH212347   0.064   1.881   4.304
 4114TIP3    H112348   0.102   1.799   4.272
 4114TIP3    H212349  -0.014   1.853   4.352
 4115TIP3   OH212350   3.241   2.570   2.765
 4115TIP3    H112351   3.303   2.525   2.823
 4115TIP3    H212352   3.236   2.659   2.800
 4116TIP3   OH212353   1.434   4.085   0.951
 4116TIP3    H112354   1.530   4.086   0.954
 4116TIP3    H212355   1.408   4.139   1.026
 4117TIP3   OH212356   0.357   4.399   2.083
 4117TIP3    H112357   0.429   4.394   2.020
 4117TIP3    H212358   0.359   4.316   2.130
 4118TIP3   OH212359   0.210   3.293   3.255
 4118TIP3    H112360   0.137   3.349   3.226
 4118TIP3    H212361   0.282   3.354   3.271
 4119TIP3   OH212362   1.775   5.229   1.060
 4119TIP3    H112363   1.849   5.275   1.099
 4119TIP3    H212364   1.787   5.138   1.086
 4120TIP3   OH212365   2.052   4.625   1.191
 4120TIP3    H112366   2.092   4.548   1.231
 4120TIP3    H212367   2.106   4.642   1.113
 4121TIP3   OH212368   2.975   3.042   2.754
 4121TIP3    H112369   2.942   3.003   2.674
 4121TIP3    H212370   2.918   3.118   2.769
 4122TIP3   OH212371   2.301   2.686   3.627
 4122TIP3    H112372   2.360   2.624   3.583
 4122TIP3    H212373   2.214   2.664   3.593
 4123TIP3   OH212374   0.392   1.622   3.786
 4123TIP3    H112375   0.417   1.552   3.846
 4123TIP3    H212376   0.430   1.701   3.825
 4124TIP3   OH212377   5.692   4.205   2.274
 4124TIP3    H112378   5.754   4.246   2.214
 4124TIP3    H212379   5.704   4.251   2.357
 4125TIP3   OH212380   5.046   2.936   0.376
 4125TIP3    H112381   5.066   2.986   0.297
 4125TIP3    H212382   5.126   2.942   0.429
 4126TIP3   OH212383   4.672   0.715   2.773
 4126TIP3    H112384   4.599   0.682   2.825
 4126TIP3    H212385   4.642   0.801   2.741
 4127TIP3   OH212386   5.590   5.362   0.884
 4127TIP3    H112387   5.554   5.350   0.972
 4127TIP3    H212388   5.625   5.276   0.860
 4128TIP3   OH212389   3.811   3.580   2.592
 4128TIP3    H112390   3.809   3.494   2.550
 4128TIP3    H212391   3.782   3.640   2.523
 4129TIP3   OH212392   3.985   4.675   2.415
 4129TIP3    H112393   3.907   4.659   2.362
 4129TIP3    H212394   4.020   4.588   2.433
 4130TIP3   OH212395   4.204   4.196   1.935
 4130TIP3    H112396   4.269   4.212   2.003
 4130TIP3    H212397   4.124   4.176   1.983
 4131TIP3   OH212398   3.995   1.387   2.383
 4131TIP3    H112399   3.952   1.408   2.300
 4131TIP3    H212400   4.079   1.432   2.379
 4132TIP3   OH212401   5.190   2.569   2.324
 4132TIP3    H112402   5.174   2.638   2.389
 4132TIP3    H212403   5.229   2.497   2.374
 4133TIP3   OH212404   3.572   4.620   1.256
 4133TIP3    H112405   3.559   4.705   1.299
 4133TIP3    H212406   3.508   4.620   1.185
 4134TIP3   OH212407   2.542   3.484   0.364
 4134TIP3    H112408   2.570   3.569   0.398
 4134TIP3    H212409   2.496   3.504   0.283
 4135TIP3   OH212410   0.075   1.370   4.856
 4135TIP3    H112411  -0.004   1.386   4.804
 4135TIP3    H212412   0.141   1.345   4.791
 4136TIP3   OH212413   0.902   1.626   4.210
 4136TIP3    H112414   0.982   1.678   4.206
 4136TIP3    H212415   0.922   1.557   4.273
 4137TIP3   OH212416   1.562   0.276   4.294
 4137TIP3    H112417   1.595   0.322   4.372
 4137TIP3    H212418   1.558   0.343   4.226
 4138TIP3   OH212419   3.252   4.502   1.217
 4138TIP3    H112420   3.205   4.455   1.148
 4138TIP3    H212421   3.211   4.589   1.219
 4139TIP3   OH212422   4.566   1.807   3.850
 4139TIP3    H112423   4.648   1.758   3.842
 4139TIP3    H212424   4.591   1.890   3.892
 4140TIP3   OH212425   5.730   1.519   0.863
 4140TIP3    H112426   5.701   1.439   0.819
 4140TIP3    H212427   5.650   1.558   0.897
 4141TIP3   OH212428   2.628   5.682   3.061
 4141TIP3    H112429   2.558   5.685   2.996
 4141TIP3    H212430   2.672   5.598   3.045
 4142TIP3   OH212431   2.505   0.060   0.108
 4142TIP3    H112432   2.439   0.049   0.175
 4142TIP3    H212433   2.583   0.017   0.143
 4143TIP3   OH212434   4.952   2.607   3.947
 4143TIP3    H112435   4.917   2.695   3.937
 4143TIP3    H212436   4.875   2.550   3.945
 4144TIP3   OH212437   3.841   2.790   0.782
 4144TIP3    H112438   3.842   2.696   0.803
 4144TIP3    H212439   3.872   2.795   0.692
 4145TIP3   OH212440   2.123   3.725   3.935
 4145TIP3    H112441   2.140   3.755   4.024
 4145TIP3    H212442   2.034   3.689   3.938
 4146TIP3   OH212443   4.413   4.020   4.069
 4146TIP3    H112444   4.402   4.000   4.162
 4146TIP3    H212445   4.374   4.106   4.057
 4147TIP3   OH212446   1.379   4.079   4.011
 4147TIP3    H112447   1.434   4.156   4.026
 4147TIP3    H212448   1.326   4.072   4.091
 4148TIP3   OH212449   4.421   4.916   3.578
 4148TIP3    H112450   4.360   4.878   3.515
 4148TIP3    H212451   4.366   4.939   3.653
 4149TIP3   OH212452   4.379   2.009   5.104
 4149TIP3    H112453   4.302   2.033   5.156
 4149TIP3    H212454   4.370   1.914   5.090
 4150TIP3   OH212455   2.569   4.781   1.893
 4150TIP3    H112456   2.546   4.699   1.937
 4150TIP3    H212457   2.488   4.807   1.848
 4151TIP3   OH212458   4.205   1.443   0.385
 4151TIP3    H112459   4.128   1.458   0.440
 4151TIP3    H212460   4.273   1.417   0.446
 4152TIP3   OH212461   3.571   3.859   2.577
 4152TIP3    H112462   3.545   3.778   2.533
 4152TIP3    H212463   3.543   3.929   2.517
 4153TIP3   OH212464   6.159   4.841   1.067
 4153TIP3    H112465   6.132   4.906   1.132
 4153TIP3    H212466   6.247   4.868   1.041
 4154TIP3   OH212467   2.560   1.744   3.119
 4154TIP3    H112468   2.593   1.764   3.032
 4154TIP3    H212469   2.585   1.653   3.134
 4155TIP3   OH212470   0.474   5.521   3.719
 4155TIP3    H112471   0.398   5.467   3.742
 4155TIP3    H212472   0.545   5.484   3.771
 4156TIP3   OH212473   0.688   1.639   1.552
 4156TIP3    H112474   0.742   1.571   1.592
 4156TIP3    H212475   0.739   1.719   1.563
 4157TIP3   OH212476   0.990   0.797   2.822
 4157TIP3    H112477   0.936   0.738   2.769
 4157TIP3    H212478   1.080   0.775   2.798
 4158TIP3   OH212479   1.052   3.228   4.784
 4158TIP3    H112480   1.000   3.161   4.740
 4158TIP3    H212481   1.022   3.227   4.875
 4159TIP3   OH212482   0.403   5.611   1.487
 4159TIP3    H112483   0.371   5.591   1.574
 4159TIP3    H212484   0.494   5.640   1.500
 4160TIP3   OH212485   1.085   4.315   2.823
 4160TIP3    H112486   1.054   4.378   2.759
 4160TIP3    H212487   1.036   4.235   2.803
 4161TIP3   OH212488   0.489   4.728   1.564
 4161TIP3    H112489   0.483   4.786   1.488
 4161TIP3    H212490   0.542   4.775   1.627
 4162TIP3   OH212491   0.826   1.562   0.189
 4162TIP3    H112492   0.763   1.492   0.169
 4162TIP3    H212493   0.899   1.517   0.232
 4163TIP3   OH212494   1.447   2.656   1.238
 4163TIP3    H112495   1.390   2.726   1.209
 4163TIP3    H212496   1.420   2.580   1.187
 4164TIP3   OH212497   4.392   5.930   5.100
 4164TIP3    H112498   4.469   5.893   5.142
 4164TIP3    H212499   4.427   5.985   5.029
 4165TIP3   OH212500   5.330   4.312   1.237
 4165TIP3    H112501   5.242   4.350   1.241
 4165TIP3    H212502   5.331   4.264   1.154
 4166TIP3   OH212503   0.912   4.598   0.571
 4166TIP3    H112504   0.831   4.613   0.523
 4166TIP3    H212505   0.930   4.505   0.556
 4167TIP3   OH212506   2.917   0.517   4.114
 4167TIP3    H112507   2.847   0.514   4.049
 4167TIP3    H212508   2.877   0.483   4.194
 4168TIP3   OH212509   2.701   3.970   3.771
 4168TIP3    H112510   2.630   3.942   3.829
 4168TIP3    H212511   2.780   3.940   3.814
 4169TIP3   OH212512   0.307   3.807   3.742
 4169TIP3    H112513   0.311   3.837   3.833
 4169TIP3    H212514   0.385   3.751   3.732
 4170TIP3   OH212515   6.160   1.594   4.878
 4170TIP3    H112516   6.195   1.557   4.958
 4170TIP3    H212517   6.078   1.547   4.863
 4171TIP3   OH212518   2.485   1.954   3.830
 4171TIP3    H112519   2.394   1.969   3.857
 4171TIP3    H212520   2.494   2.003   3.748
 4172TIP3   OH212521   0.789   1.032   3.827
 4172TIP3    H112522   0.867   1.021   3.772
 4172TIP3    H212523   0.722   1.063   3.766
 4173TIP3   OH212524   4.295   2.185   1.708
 4173TIP3    H112525   4.276   2.116   1.644
 4173TIP3    H212526   4.209   2.221   1.729
 4174TIP3   OH212527   2.782   3.167   3.230
 4174TIP3    H112528   2.744   3.167   3.142
 4174TIP3    H212529   2.865   3.119   3.220
 4175TIP3   OH212530   1.856   1.717   4.010
 4175TIP3    H112531   1.846   1.664   3.931
 4175TIP3    H212532   1.868   1.654   4.080
 4176TIP3   OH212533   1.486   1.695   4.417
 4176TIP3    H112534   1.442   1.752   4.479
 4176TIP3    H212535   1.576   1.690   4.449
 4177TIP3   OH212536   3.085   2.752   1.405
 4177TIP3    H112537   3.035   2.771   1.484
 4177TIP3    H212538   3.176   2.745   1.434
 4178TIP3   OH212539   1.572   0.655   0.043
 4178TIP3    H112540   1.644   0.710   0.011
 4178TIP3    H212541   1.600   0.566   0.023
 4179TIP3   OH212542   6.147   0.260   0.819
 4179TIP3    H112543   6.197   0.341   0.808
 4179TIP3    H212544   6.077   0.267   0.754
 4180TIP3   OH212545   2.438   0.756   4.550
 4180TIP3    H112546   2.436   0.833   4.494
 4180TIP3    H212547   2.517   0.766   4.602
 4181TIP3   OH212548   1.234   4.482   2.177
 4181TIP3    H112549   1.210   4.390   2.178
 4181TIP3    H212550   1.328   4.483   2.191
 4182TIP3   OH212551   1.805   4.310   3.782
 4182TIP3    H112552   1.893   4.280   3.759
 4182TIP3    H212553   1.789   4.271   3.868
 4183TIP3   OH212554   4.479   3.301   2.768
 4183TIP3    H112555   4.476   3.386   2.724
 4183TIP3    H212556   4.499   3.239   2.698
 4184TIP3   OH212557   2.652   3.455   1.376
 4184TIP3    H112558   2.662   3.520   1.307
 4184TIP3    H212559   2.664   3.371   1.332
 4185TIP3   OH212560   5.819   3.315   0.834
 4185TIP3    H112561   5.766   3.390   0.860
 4185TIP3    H212562   5.877   3.349   0.766
 4186TIP3   OH212563   0.802   1.458   0.585
 4186TIP3    H112564   0.855   1.393   0.632
 4186TIP3    H212565   0.861   1.495   0.520
 4187TIP3   OH212566   1.893   2.123   3.115
 4187TIP3    H112567   1.967   2.140   3.057
 4187TIP3    H212568   1.871   2.209   3.151
 4188TIP3   OH212569   5.438   4.397   4.551
 4188TIP3    H112570   5.442   4.442   4.467
 4188TIP3    H212571   5.478   4.457   4.614
 4189TIP3   OH212572   3.980   0.269   3.650
 4189TIP3    H112573   4.055   0.213   3.627
 4189TIP3    H212574   3.904   0.219   3.622
 4190TIP3   OH212575   0.754   0.383   1.741
 4190TIP3    H112576   0.791   0.457   1.789
 4190TIP3    H212577   0.831   0.339   1.703
 4191TIP3   OH212578   2.670   4.533   4.695
 4191TIP3    H112579   2.713   4.591   4.631
 4191TIP3    H212580   2.713   4.554   4.778
 4192TIP3   OH212581   2.657   3.823   4.358
 4192TIP3    H112582   2.736   3.844   4.408
 4192TIP3    H212583   2.586   3.869   4.404
 4193TIP3   OH212584   0.391   3.142   2.496
 4193TIP3    H112585   0.318   3.155   2.436
 4193TIP3    H212586   0.405   3.047   2.497
 4194TIP3   OH212587   5.199   3.616   0.783
 4194TIP3    H112588   5.226   3.633   0.873
 4194TIP3    H212589   5.244   3.682   0.731
 4195TIP3   OH212590   1.879   0.470   0.730
 4195TIP3    H112591   1.804   0.502   0.680
 4195TIP3    H212592   1.952   0.475   0.669
 4196TIP3   OH212593   2.865   0.772   3.943
 4196TIP3    H112594   2.813   0.692   3.951
 4196TIP3    H212595   2.956   0.741   3.943
 4197TIP3   OH212596   6.312   3.097   2.595
 4197TIP3    H112597   6.291   3.188   2.573
 4197TIP3    H212598   6.294   3.048   2.514
 4198TIP3   OH212599   3.756   1.289   4.003
 4198TIP3    H112600   3.675   1.335   3.984
 4198TIP3    H212601   3.737   1.238   4.082
 4199TIP3   OH212602   4.673   4.912   4.358
 4199TIP3    H112603   4.722   4.936   4.280
 4199TIP3    H212604   4.607   4.851   4.327
 4200TIP3   OH212605   6.164   0.891   0.491
 4200TIP3    H112606   6.245   0.936   0.513
 4200TIP3    H212607   6.179   0.799   0.514
 4201TIP3   OH212608   2.480   5.169   3.759
 4201TIP3    H112609   2.427   5.244   3.784
 4201TIP3    H212610   2.423   5.093   3.775
 4202TIP3   OH212611   3.589   4.452   2.740
 4202TIP3    H112612   3.597   4.531   2.687
 4202TIP3    H212613   3.495   4.446   2.759
 4203TIP3   OH212614   3.979   0.389   0.199
 4203TIP3    H112615   4.051   0.377   0.260
 4203TIP3    H212616   3.943   0.301   0.186
 4204TIP3   OH212617   4.125   0.944   1.796
 4204TIP3    H112618   4.136   0.999   1.718
 4204TIP3    H212619   4.210   0.903   1.809
 4205TIP3   OH212620   2.567   1.733   4.849
 4205TIP3    H112621   2.657   1.710   4.826
 4205TIP3    H212622   2.536   1.785   4.774
 4206TIP3   OH212623   3.850   0.960   5.085
 4206TIP3    H112624   3.938   0.932   5.110
 4206TIP3    H212625   3.863   1.046   5.045
 4207TIP3   OH212626   1.412   3.064   4.398
 4207TIP3    H112627   1.345   3.133   4.401
 4207TIP3    H212628   1.402   3.024   4.312
 4208TIP3   OH212629   1.104   3.992   4.870
 4208TIP3    H112630   1.017   3.998   4.908
 4208TIP3    H212631   1.162   4.030   4.936
 4209TIP3   OH212632   6.301   4.116   2.064
 4209TIP3    H112633   6.243   4.054   2.108
 4209TIP3    H212634   6.352   4.062   2.003
 4210TIP3   OH212635   4.085   5.035   4.393
 4210TIP3    H112636   4.002   5.081   4.375
 4210TIP3    H212637   4.059   4.946   4.414
 4211TIP3   OH212638   1.158   4.760   1.968
 4211TIP3    H112639   1.086   4.757   1.905
 4211TIP3    H212640   1.228   4.708   1.927
 4212TIP3   OH212641   1.469   0.970   3.004
 4212TIP3    H112642   1.558   0.986   2.971
 4212TIP3    H212643   1.482   0.953   3.098
 4213TIP3   OH212644   6.228   0.809   5.058
 4213TIP3    H112645   6.267   0.832   4.974
 4213TIP3    H212646   6.134   0.807   5.041
 4214TIP3   OH212647   5.464   1.238   3.398
 4214TIP3    H112648   5.429   1.323   3.423
 4214TIP3    H212649   5.400   1.204   3.335
 4215TIP3   OH212650   2.894   3.381   2.975
 4215TIP3    H112651   2.966   3.441   2.997
 4215TIP3    H212652   2.817   3.420   3.017
 4216TIP3   OH212653   3.383   3.217   1.974
 4216TIP3    H112654   3.368   3.298   2.024
 4216TIP3    H212655   3.346   3.148   2.029
 4217TIP3   OH212656   5.431   1.617   0.398
 4217TIP3    H112657   5.367   1.686   0.415
 4217TIP3    H212658   5.393   1.539   0.439
 4218TIP3   OH212659   1.229   2.380   2.961
 4218TIP3    H112660   1.150   2.358   2.913
 4218TIP3    H212661   1.300   2.342   2.909
 4219TIP3   OH212662   4.291   2.569   3.519
 4219TIP3    H112663   4.197   2.562   3.501
 4219TIP3    H212664   4.305   2.661   3.539
 4220TIP3   OH212665   6.104   0.223   4.884
 4220TIP3    H112666   6.081   0.309   4.917
 4220TIP3    H212667   6.146   0.240   4.799
 4221TIP3   OH212668   3.097   3.415   0.952
 4221TIP3    H112669   3.082   3.332   0.995
 4221TIP3    H212670   3.095   3.480   1.022
 4222TIP3   OH212671   6.095   1.686   3.955
 4222TIP3    H112672   6.008   1.684   3.995
 4222TIP3    H212673   6.147   1.625   4.006
 4223TIP3   OH212674   2.497   1.887   1.915
 4223TIP3    H112675   2.409   1.900   1.879
 4223TIP3    H212676   2.535   1.974   1.916
 4224TIP3   OH212677   6.289   5.193   1.081
 4224TIP3    H112678   6.238   5.143   1.146
 4224TIP3    H212679   6.299   5.280   1.119
 4225TIP3   OH212680   4.889   0.306   0.273
 4225TIP3    H112681   4.910   0.365   0.345
 4225TIP3    H212682   4.856   0.227   0.315
 4226TIP3   OH212683   1.612   3.383   0.834
 4226TIP3    H112684   1.578   3.472   0.835
 4226TIP3    H212685   1.548   3.332   0.886
 4227TIP3   OH212686   4.362   1.311   5.003
 4227TIP3    H112687   4.443   1.362   5.004
 4227TIP3    H212688   4.368   1.258   4.923
 4228TIP3   OH212689   1.574   5.746   1.601
 4228TIP3    H112690   1.622   5.790   1.671
 4228TIP3    H212691   1.642   5.714   1.542
 4229TIP3   OH212692   2.687   3.068   0.291
 4229TIP3    H112693   2.598   3.096   0.269
 4229TIP3    H212694   2.731   3.148   0.321
 4230TIP3   OH212695   6.374   5.422   2.540
 4230TIP3    H112696   6.378   5.383   2.627
 4230TIP3    H212697   6.284   5.453   2.531
 4231TIP3   OH212698   1.034   5.584   2.773
 4231TIP3    H112699   1.118   5.600   2.729
 4231TIP3    H212700   1.058   5.561   2.863
 4232TIP3   OH212701   5.626   3.285   3.785
 4232TIP3    H112702   5.580   3.347   3.842
 4232TIP3    H212703   5.647   3.211   3.843
 4233TIP3   OH212704   0.220   3.769   0.398
 4233TIP3    H112705   0.172   3.852   0.409
 4233TIP3    H212706   0.157   3.711   0.354
 4234TIP3   OH212707   1.561   2.038   1.529
 4234TIP3    H112708   1.472   2.007   1.515
 4234TIP3    H212709   1.617   1.962   1.511
 4235TIP3   OH212710   1.454   1.599   3.544
 4235TIP3    H112711   1.472   1.676   3.598
 4235TIP3    H212712   1.534   1.586   3.493
 4236TIP3   OH212713   2.284   1.841   4.429
 4236TIP3    H112714   2.200   1.816   4.391
 4236TIP3    H212715   2.309   1.920   4.382
 4237TIP3   OH212716   4.921   1.937   3.910
 4237TIP3    H112717   4.892   1.918   3.999
 4237TIP3    H212718   4.851   1.903   3.854
 4238TIP3   OH212719   2.275   3.004   3.499
 4238TIP3    H112720   2.251   2.920   3.459
 4238TIP3    H212721   2.298   3.059   3.424
 4239TIP3   OH212722   5.424   1.668   2.843
 4239TIP3    H112723   5.498   1.622   2.805
 4239TIP3    H212724   5.441   1.760   2.827
 4240TIP3   OH212725   1.379   0.112   1.750
 4240TIP3    H112726   1.285   0.103   1.767
 4240TIP3    H212727   1.410   0.171   1.818
 4241TIP3   OH212728   0.628   2.826   1.976
 4241TIP3    H112729   0.648   2.831   2.070
 4241TIP3    H212730   0.597   2.913   1.954
 4242TIP3   OH212731   6.082   1.245   0.680
 4242TIP3    H112732   6.024   1.177   0.646
 4242TIP3    H212733   6.159   1.197   0.710
 4243TIP3   OH212734   5.378   0.367   2.220
 4243TIP3    H112735   5.387   0.448   2.270
 4243TIP3    H212736   5.422   0.385   2.137
 4244TIP3   OH212737   4.506   5.338   2.424
 4244TIP3    H112738   4.506   5.264   2.485
 4244TIP3    H212739   4.428   5.325   2.370
 4245TIP3   OH212740   4.195   1.367   3.109
 4245TIP3    H112741   4.183   1.274   3.126
 4245TIP3    H212742   4.122   1.390   3.051
 4246TIP3   OH212743   4.875   1.295   0.214
 4246TIP3    H112744   4.890   1.302   0.308
 4246TIP3    H212745   4.950   1.339   0.174
 4247TIP3   OH212746   1.502   5.008   2.788
 4247TIP3    H112747   1.539   4.923   2.812
 4247TIP3    H212748   1.459   4.993   2.704
 4248TIP3   OH212749   0.182   5.927   0.243
 4248TIP3    H112750   0.159   5.892   0.157
 4248TIP3    H212751   0.176   5.852   0.302
 4249TIP3   OH212752   0.616   0.170   2.612
 4249TIP3    H112753   0.573   0.099   2.660
 4249TIP3    H212754   0.681   0.125   2.558
 4250TIP3   OH212755   2.718   0.229   0.836
 4250TIP3    H112756   2.766   0.296   0.886
 4250TIP3    H212757   2.631   0.267   0.822
 4251TIP3   OH212758   5.215   3.450   1.678
 4251TIP3    H112759   5.168   3.369   1.698
 4251TIP3    H212760   5.196   3.508   1.751
 4252TIP3   OH212761   3.476   1.649   1.787
 4252TIP3    H112762   3.401   1.613   1.834
 4252TIP3    H212763   3.524   1.700   1.853
 4253TIP3   OH212764   5.852   3.119   3.526
 4253TIP3    H112765   5.926   3.128   3.466
 4253TIP3    H212766   5.825   3.027   3.518
 4254TIP3   OH212767   1.753   3.753   3.750
 4254TIP3    H112768   1.811   3.829   3.757
 4254TIP3    H212769   1.679   3.772   3.807
 4255TIP3   OH212770   4.973   0.201   4.774
 4255TIP3    H112771   5.057   0.161   4.748
 4255TIP3    H212772   4.927   0.216   4.692
 4256TIP3   OH212773   2.192   3.698   4.960
 4256TIP3    H112774   2.261   3.654   5.012
 4256TIP3    H212775   2.115   3.695   5.016
 4257TIP3   OH212776   3.057   1.862   4.541
 4257TIP3    H112777   3.105   1.809   4.605
 4257TIP3    H212778   3.085   1.952   4.559
 4258TIP3   OH212779   2.957   4.572   1.348
 4258TIP3    H112780   2.997   4.485   1.353
 4258TIP3    H212781   3.021   4.630   1.390
 4259TIP3   OH212782   2.894   1.237   2.772
 4259TIP3    H112783   2.808   1.247   2.814
 4259TIP3    H212784   2.908   1.319   2.726
 4260TIP3   OH212785   2.623   2.893   4.642
 4260TIP3    H112786   2.541   2.921   4.600
 4260TIP3    H212787   2.626   2.799   4.625
 4261TIP3   OH212788   0.667   3.823   4.427
 4261TIP3    H112789   0.739   3.764   4.406
 4261TIP3    H212790   0.614   3.776   4.491
 4262TIP3   OH212791   1.056   0.620   1.517
 4262TIP3    H112792   0.963   0.611   1.498
 4262TIP3    H212793   1.096   0.633   1.431
 4263TIP3   OH212794   4.411   4.059   3.241
 4263TIP3    H112795   4.468   3.986   3.213
 4263TIP3    H212796   4.323   4.029   3.221
 4264TIP3   OH212797   5.310   4.255   0.697
 4264TIP3    H112798   5.339   4.239   0.607
 4264TIP3    H212799   5.215   4.250   0.692
 4265TIP3   OH212800   4.537   4.782   3.989
 4265TIP3    H112801   4.571   4.723   4.056
 4265TIP3    H212802   4.546   4.734   3.907
 4266TIP3   OH212803   1.506   3.001   1.311
 4266TIP3    H112804   1.543   2.959   1.389
 4266TIP3    H212805   1.418   3.028   1.338
 4267TIP3   OH212806   4.838   4.024   1.898
 4267TIP3    H112807   4.835   3.929   1.912
 4267TIP3    H212808   4.766   4.059   1.951
 4268TIP3   OH212809   4.868   5.218   3.871
 4268TIP3    H112810   4.795   5.266   3.909
 4268TIP3    H212811   4.937   5.284   3.861
 4269TIP3   OH212812   3.466   1.917   4.696
 4269TIP3    H112813   3.498   1.827   4.703
 4269TIP3    H212814   3.388   1.919   4.751
 4270TIP3   OH212815   0.075   2.284   3.502
 4270TIP3    H112816   0.043   2.195   3.486
 4270TIP3    H212817   0.052   2.301   3.594
 4271TIP3   OH212818   1.177   2.166   3.413
 4271TIP3    H112819   1.200   2.075   3.392
 4271TIP3    H212820   1.165   2.208   3.328
 4272TIP3   OH212821   4.102   4.253   0.187
 4272TIP3    H112822   4.050   4.302   0.123
 4272TIP3    H212823   4.055   4.171   0.198
 4273TIP3   OH212824   6.215   3.942   4.155
 4273TIP3    H112825   6.212   3.851   4.126
 4273TIP3    H212826   6.187   3.939   4.246
 4274TIP3   OH212827   0.102   3.477   1.855
 4274TIP3    H112828   0.110   3.381   1.860
 4274TIP3    H212829   0.008   3.493   1.859
 4275TIP3   OH212830   0.724   0.132   3.475
 4275TIP3    H112831   0.644   0.177   3.501
 4275TIP3    H212832   0.722   0.049   3.522
 4276TIP3   OH212833   6.081   1.410   0.166
 4276TIP3    H112834   6.049   1.448   0.084
 4276TIP3    H212835   6.152   1.468   0.193
 4277TIP3   OH212836   4.696   1.800   2.078
 4277TIP3    H112837   4.777   1.818   2.125
 4277TIP3    H212838   4.715   1.824   1.987
 4278TIP3   OH212839   1.041   5.348   1.629
 4278TIP3    H112840   1.057   5.439   1.605
 4278TIP3    H212841   0.946   5.339   1.629
 4279TIP3   OH212842   2.407   4.953   0.686
 4279TIP3    H112843   2.396   5.006   0.607
 4279TIP3    H212844   2.501   4.932   0.687
 4280TIP3   OH212845   6.068   0.942   0.854
 4280TIP3    H112846   6.017   0.896   0.787
 4280TIP3    H212847   6.024   0.921   0.936
 4281TIP3   OH212848   1.065   0.809   2.507
 4281TIP3    H112849   0.979   0.850   2.495
 4281TIP3    H212850   1.072   0.746   2.436
 4282TIP3   OH212851   1.843   3.273   2.321
 4282TIP3    H112852   1.830   3.234   2.235
 4282TIP3    H212853   1.758   3.309   2.345
 4283TIP3   OH212854   3.035   0.667   0.557
 4283TIP3    H112855   2.967   0.620   0.606
 4283TIP3    H212856   3.109   0.607   0.555
 4284TIP3   OH212857   0.036   4.702   2.600
 4284TIP3    H112858   0.060   4.793   2.617
 4284TIP3    H212859   0.115   4.663   2.563
 4285TIP3   OH212860   3.277   2.025   4.848
 4285TIP3    H112861   3.223   2.096   4.813
 4285TIP3    H212862   3.214   1.965   4.888
 4286TIP3   OH212863   5.076   0.689   0.782
 4286TIP3    H112864   5.021   0.636   0.840
 4286TIP3    H212865   5.163   0.686   0.824
 4287TIP3   OH212866   5.345   4.999   0.952
 4287TIP3    H112867   5.390   5.029   1.031
 4287TIP3    H212868   5.362   4.904   0.949
 4288TIP3   OH212869   1.961   2.550   5.179
 4288TIP3    H112870   2.021   2.602   5.125
 4288TIP3    H212871   1.919   2.614   5.237
 4289TIP3   OH212872   4.220   0.519   1.502
 4289TIP3    H112873   4.179   0.603   1.479
 4289TIP3    H212874   4.215   0.515   1.598
 4290TIP3   OH212875   3.626   1.608   2.749
 4290TIP3    H112876   3.687   1.674   2.714
 4290TIP3    H212877   3.674   1.526   2.741
 4291TIP3   OH212878   3.300   2.128   3.561
 4291TIP3    H112879   3.306   2.218   3.529
 4291TIP3    H212880   3.312   2.074   3.483
 4292TIP3   OH212881   5.248   0.699   2.156
 4292TIP3    H112882   5.268   0.780   2.203
 4292TIP3    H212883   5.163   0.716   2.115
 4293TIP3   OH212884   0.441   3.108   0.481
 4293TIP3    H112885   0.534   3.133   0.482
 4293TIP3    H212886   0.394   3.191   0.486
 4294TIP3   OH212887   2.298   3.460   4.081
 4294TIP3    H112888   2.357   3.388   4.061
 4294TIP3    H212889   2.352   3.538   4.074
 4295TIP3   OH212890   0.932   0.948   0.361
 4295TIP3    H112891   0.977   0.974   0.442
 4295TIP3    H212892   0.925   1.030   0.311
 4296TIP3   OH212893   2.263   5.975   0.901
 4296TIP3    H112894   2.335   5.959   0.840
 4296TIP3    H212895   2.287   5.928   0.980
 4297TIP3   OH212896   3.946   3.724   0.514
 4297TIP3    H112897   3.943   3.783   0.438
 4297TIP3    H212898   3.874   3.663   0.499
 4298TIP3   OH212899   5.266   2.295   4.341
 4298TIP3    H112900   5.249   2.236   4.267
 4298TIP3    H212901   5.204   2.267   4.408
 4299TIP3   OH212902   0.405   4.260   3.008
 4299TIP3    H112903   0.430   4.240   3.098
 4299TIP3    H212904   0.335   4.325   3.017
 4300TIP3   OH212905   5.927   4.207   2.080
 4300TIP3    H112906   5.959   4.134   2.133
 4300TIP3    H212907   6.007   4.250   2.049
 4301TIP3   OH212908   6.306   3.370   2.560
 4301TIP3    H112909   6.253   3.426   2.617
 4301TIP3    H212910   6.397   3.389   2.586
 4302TIP3   OH212911   2.277   3.127   5.059
 4302TIP3    H112912   2.265   3.218   5.034
 4302TIP3    H212913   2.191   3.100   5.092
 4303TIP3   OH212914   3.524   5.755   1.340
 4303TIP3    H112915   3.616   5.766   1.367
 4303TIP3    H212916   3.474   5.805   1.404
 4304TIP3   OH212917   5.467   1.705   4.288
 4304TIP3    H112918   5.482   1.792   4.250
 4304TIP3    H212919   5.376   1.708   4.318
 4305TIP3   OH212920   4.125   4.141   1.356
 4305TIP3    H112921   4.031   4.151   1.365
 4305TIP3    H212922   4.150   4.201   1.286
 4306TIP3   OH212923   6.030   5.860   0.484
 4306TIP3    H112924   5.984   5.900   0.558
 4306TIP3    H212925   5.975   5.878   0.408
 4307TIP3   OH212926   4.215   5.312   2.614
 4307TIP3    H112927   4.230   5.393   2.663
 4307TIP3    H212928   4.224   5.243   2.680
 4308TIP3   OH212929   3.638   3.771   3.131
 4308TIP3    H112930   3.671   3.725   3.208
 4308TIP3    H212931   3.626   3.702   3.066
 4309TIP3   OH212932   3.201   5.948   0.371
 4309TIP3    H112933   3.142   5.913   0.436
 4309TIP3    H212934   3.182   6.042   0.369
 4310TIP3   OH212935   2.485   0.665   2.072
 4310TIP3    H112936   2.425   0.593   2.050
 4310TIP3    H212937   2.430   0.729   2.116
 4311TIP3   OH212938   3.253   2.746   4.959
 4311TIP3    H112939   3.252   2.660   5.001
 4311TIP3    H212940   3.255   2.727   4.865
 4312TIP3   OH212941   4.182   3.253   4.704
 4312TIP3    H112942   4.152   3.212   4.623
 4312TIP3    H212943   4.107   3.246   4.764
 4313TIP3   OH212944   3.454   4.553   2.121
 4313TIP3    H112945   3.451   4.505   2.039
 4313TIP3    H212946   3.383   4.515   2.174
 4314TIP3   OH212947   2.381   5.745   4.034
 4314TIP3    H112948   2.369   5.707   3.947
 4314TIP3    H212949   2.475   5.736   4.051
 4315TIP3   OH212950   3.323   3.827   0.106
 4315TIP3    H112951   3.238   3.871   0.110
 4315TIP3    H212952   3.310   3.755   0.045
 4316TIP3   OH212953   6.224   4.663   1.271
 4316TIP3    H112954   6.197   4.714   1.194
 4316TIP3    H212955   6.307   4.701   1.298
 4317TIP3   OH212956   3.701   0.713   0.422
 4317TIP3    H112957   3.761   0.749   0.488
 4317TIP3    H212958   3.758   0.691   0.348
 4318TIP3   OH212959   4.243   4.911   0.236
 4318TIP3    H112960   4.232   4.896   0.142
 4318TIP3    H212961   4.277   4.828   0.270
 4319TIP3   OH212962   2.366   4.767   3.270
 4319TIP3    H112963   2.369   4.861   3.257
 4319TIP3    H212964   2.379   4.754   3.364
 4320TIP3   OH212965   3.724   1.700   3.714
 4320TIP3    H112966   3.715   1.783   3.761
 4320TIP3    H212967   3.774   1.721   3.636
 4321TIP3   OH212968   2.318   2.449   0.411
 4321TIP3    H112969   2.315   2.463   0.316
 4321TIP3    H212970   2.257   2.514   0.447
 4322TIP3   OH212971   1.485   4.386   1.474
 4322TIP3    H112972   1.537   4.465   1.466
 4322TIP3    H212973   1.547   4.318   1.499
 4323TIP3   OH212974   3.293   2.894   0.203
 4323TIP3    H112975   3.273   2.823   0.263
 4323TIP3    H212976   3.297   2.972   0.258
 4324TIP3   OH212977   0.370   1.952   0.092
 4324TIP3    H112978   0.285   1.987   0.119
 4324TIP3    H212979   0.434   2.017   0.123
 4325TIP3   OH212980   6.233   0.371   1.119
 4325TIP3    H112981   6.290   0.383   1.043
 4325TIP3    H212982   6.160   0.318   1.087
 4326TIP3   OH212983   6.235   4.185   1.485
 4326TIP3    H112984   6.165   4.235   1.526
 4326TIP3    H212985   6.275   4.135   1.556
 4327TIP3   OH212986   3.377   3.312   0.523
 4327TIP3    H112987   3.424   3.251   0.581
 4327TIP3    H212988   3.347   3.382   0.581
 4328TIP3   OH212989   6.347   0.258   1.948
 4328TIP3    H112990   6.340   0.350   1.921
 4328TIP3    H212991   6.259   0.223   1.936
 4329TIP3   OH212992   2.278   5.682   1.771
 4329TIP3    H112993   2.319   5.705   1.855
 4329TIP3    H212994   2.250   5.591   1.782
 4330TIP3   OH212995   2.688   0.922   2.245
 4330TIP3    H112996   2.782   0.903   2.250
 4330TIP3    H212997   2.646   0.838   2.259
 4331TIP3   OH212998   1.107   0.367   1.297
 4331TIP3    H112999   1.156   0.338   1.374
 4331TIP3    H213000   1.137   0.457   1.282
 4332TIP3   OH213001   5.275   5.742   2.703
 4332TIP3    H113002   5.270   5.817   2.644
 4332TIP3    H213003   5.359   5.753   2.748
 4333TIP3   OH213004   0.372   4.847   0.490
 4333TIP3    H113005   0.462   4.844   0.522
 4333TIP3    H213006   0.380   4.871   0.398
 4334TIP3   OH213007   3.193   2.380   0.448
 4334TIP3    H113008   3.196   2.321   0.523
 4334TIP3    H213009   3.105   2.368   0.412
 4335TIP3   OH213010   1.193   0.090   3.050
 4335TIP3    H113011   1.133   0.138   2.993
 4335TIP3    H213012   1.146   0.080   3.132
 4336TIP3   OH213013   6.282   2.167   0.695
 4336TIP3    H113014   6.189   2.160   0.719
 4336TIP3    H213015   6.313   2.241   0.747
 4337TIP3   OH213016   5.627   3.281   2.671
 4337TIP3    H113017   5.608   3.351   2.734
 4337TIP3    H213018   5.612   3.200   2.719
 4338TIP3   OH213019   0.877   0.887   3.051
 4338TIP3    H113020   0.927   0.877   2.970
 4338TIP3    H213021   0.930   0.945   3.105
 4339TIP3   OH213022   0.794   5.750   3.839
 4339TIP3    H113023   0.808   5.783   3.928
 4339TIP3    H213024   0.826   5.660   3.841
 4340TIP3   OH213025   4.872   4.622   4.509
 4340TIP3    H113026   4.864   4.647   4.601
 4340TIP3    H213027   4.786   4.641   4.471
 4341TIP3   OH213028   2.470   0.404   1.574
 4341TIP3    H113029   2.389   0.432   1.532
 4341TIP3    H213030   2.507   0.484   1.611
 4342TIP3   OH213031   0.949   1.900   0.857
 4342TIP3    H113032   0.926   1.932   0.945
 4342TIP3    H213033   0.935   1.806   0.862
 4343TIP3   OH213034   5.618   4.016   3.954
 4343TIP3    H113035   5.530   3.980   3.966
 4343TIP3    H213036   5.670   3.976   4.024
 4344TIP3   OH213037   1.709   0.912   1.583
 4344TIP3    H113038   1.679   1.002   1.598
 4344TIP3    H213039   1.628   0.861   1.574
 4345TIP3   OH213040   5.669   2.815   3.881
 4345TIP3    H113041   5.681   2.723   3.857
 4345TIP3    H213042   5.590   2.816   3.934
 4346TIP3   OH213043   0.480   5.306   5.067
 4346TIP3    H113044   0.571   5.328   5.047
 4346TIP3    H213045   0.431   5.336   4.991
 4347TIP3   OH213046   5.469   3.403   0.152
 4347TIP3    H113047   5.457   3.489   0.192
 4347TIP3    H213048   5.545   3.367   0.197
 4348TIP3   OH213049   5.589   1.354   3.675
 4348TIP3    H113050   5.558   1.280   3.726
 4348TIP3    H213051   5.667   1.384   3.722
 4349TIP3   OH213052   3.972   2.417   4.810
 4349TIP3    H113053   4.042   2.352   4.817
 4349TIP3    H213054   3.921   2.389   4.734
 4350TIP3   OH213055   3.614   1.775   3.340
 4350TIP3    H113056   3.629   1.793   3.247
 4350TIP3    H213057   3.650   1.851   3.386
 4351TIP3   OH213058   4.580   1.485   5.062
 4351TIP3    H113059   4.570   1.452   5.151
 4351TIP3    H213060   4.586   1.580   5.073
 4352TIP3   OH213061   1.027   2.958   1.625
 4352TIP3    H113062   1.059   2.989   1.710
 4352TIP3    H213063   1.095   2.983   1.563
 4353TIP3   OH213064   4.464   1.650   3.314
 4353TIP3    H113065   4.439   1.649   3.407
 4353TIP3    H213066   4.526   1.723   3.307
 4354TIP3   OH213067   0.343   0.879   1.042
 4354TIP3    H113068   0.340   0.960   0.992
 4354TIP3    H213069   0.409   0.826   0.997
 4355TIP3   OH213070   5.856   2.740   4.096
 4355TIP3    H113071   5.927   2.721   4.035
 4355TIP3    H213072   5.778   2.742   4.042
 4356TIP3   OH213073   4.551   3.303   1.325
 4356TIP3    H113074   4.565   3.393   1.295
 4356TIP3    H213075   4.509   3.313   1.410
 4357TIP3   OH213076   5.440   4.647   1.485
 4357TIP3    H113077   5.393   4.721   1.523
 4357TIP3    H213078   5.532   4.671   1.491
 4358TIP3   OH213079   0.664   5.930   3.257
 4358TIP3    H113080   0.592   5.934   3.193
 4358TIP3    H213081   0.700   6.019   3.257
 4359TIP3   OH213082   4.801   5.850   0.467
 4359TIP3    H113083   4.757   5.900   0.398
 4359TIP3    H213084   4.892   5.843   0.437
 4360TIP3   OH213085   0.883   4.049   3.663
 4360TIP3    H113086   0.885   4.066   3.569
 4360TIP3    H213087   0.805   3.996   3.677
 4361TIP3   OH213088   0.769   4.044   2.220
 4361TIP3    H113089   0.718   3.990   2.280
 4361TIP3    H213090   0.859   4.036   2.251
 4362TIP3   OH213091   1.488   2.928   2.464
 4362TIP3    H113092   1.528   2.844   2.489
 4362TIP3    H213093   1.394   2.912   2.468
 4363TIP3   OH213094   5.339   3.855   5.022
 4363TIP3    H113095   5.385   3.789   5.074
 4363TIP3    H213096   5.358   3.938   5.066
 4364TIP3   OH213097   1.612   5.613   2.869
 4364TIP3    H113098   1.657   5.529   2.885
 4364TIP3    H213099   1.647   5.671   2.936
 4365TIP3   OH213100   2.318   5.685   0.146
 4365TIP3    H113101   2.297   5.712   0.057
 4365TIP3    H213102   2.301   5.590   0.147
 4366TIP3   OH213103   2.891   1.316   0.879
 4366TIP3    H113104   2.835   1.378   0.832
 4366TIP3    H213105   2.860   1.318   0.969
 4367TIP3   OH213106   4.624   3.618   2.602
 4367TIP3    H113107   4.650   3.526   2.600
 4367TIP3    H213108   4.705   3.664   2.626
 4368TIP3   OH213109   0.033   0.943   1.595
 4368TIP3    H113110  -0.041   0.993   1.631
 4368TIP3    H213111   0.097   0.941   1.666
 4369TIP3   OH213112   3.265   0.515   0.592
 4369TIP3    H113113   3.304   0.551   0.672
 4369TIP3    H213114   3.321   0.548   0.522
 4370TIP3   OH213115   2.734   5.657   0.371
 4370TIP3    H113116   2.714   5.570   0.336
 4370TIP3    H213117   2.773   5.704   0.298
 4371TIP3   OH213118   1.533   1.970   5.119
 4371TIP3    H113119   1.455   2.020   5.094
 4371TIP3    H213120   1.554   1.918   5.042
 4372TIP3   OH213121   4.239   0.369   0.348
 4372TIP3    H113122   4.252   0.275   0.355
 4372TIP3    H213123   4.327   0.404   0.332
 4373TIP3   OH213124   1.209   0.799   4.674
 4373TIP3    H113125   1.145   0.791   4.745
 4373TIP3    H213126   1.251   0.884   4.689
 4374TIP3   OH213127   2.281   5.573   0.812
 4374TIP3    H113128   2.222   5.550   0.740
 4374TIP3    H213129   2.225   5.574   0.889
 4375TIP3   OH213130   5.042   5.465   3.848
 4375TIP3    H113131   5.136   5.456   3.830
 4375TIP3    H213132   5.030   5.559   3.865
 4376TIP3   OH213133   5.111   2.439   4.954
 4376TIP3    H113134   5.186   2.389   4.921
 4376TIP3    H213135   5.036   2.379   4.944
 4377TIP3   OH213136   0.907   2.976   3.527
 4377TIP3    H113137   0.822   2.963   3.485
 4377TIP3    H213138   0.958   3.027   3.465
 4378TIP3   OH213139   1.472   4.282   0.499
 4378TIP3    H113140   1.440   4.251   0.584
 4378TIP3    H213141   1.392   4.304   0.450
 4379TIP3   OH213142   5.333   4.716   0.276
 4379TIP3    H113143   5.343   4.803   0.316
 4379TIP3    H213144   5.354   4.655   0.347
 4380TIP3   OH213145   2.322   3.579   4.327
 4380TIP3    H113146   2.414   3.561   4.310
 4380TIP3    H213147   2.276   3.540   4.253
 4381TIP3   OH213148   0.342   1.439   3.584
 4381TIP3    H113149   0.335   1.518   3.637
 4381TIP3    H213150   0.349   1.470   3.494
 4382TIP3   OH213151   5.111   4.889   3.159
 4382TIP3    H113152   5.153   4.804   3.173
 4382TIP3    H213153   5.126   4.938   3.239
 4383TIP3   OH213154   5.843   5.128   0.311
 4383TIP3    H113155   5.853   5.162   0.222
 4383TIP3    H213156   5.816   5.204   0.363
 4384TIP3   OH213157   0.460   3.635   1.684
 4384TIP3    H113158   0.529   3.701   1.678
 4384TIP3    H213159   0.386   3.674   1.636
 4385TIP3   OH213160   6.256   3.915   5.043
 4385TIP3    H113161   6.191   3.944   4.978
 4385TIP3    H213162   6.271   3.993   5.097
 4386TIP3   OH213163   1.794   2.956   4.956
 4386TIP3    H113164   1.769   3.022   5.022
 4386TIP3    H213165   1.873   2.915   4.991
 4387TIP3   OH213166   0.013   5.275   1.769
 4387TIP3    H113167   0.102   5.262   1.736
 4387TIP3    H213168   0.006   5.370   1.782
 4388TIP3   OH213169   5.355   3.185   2.779
 4388TIP3    H113170   5.306   3.259   2.815
 4388TIP3    H213171   5.295   3.145   2.716
 4389TIP3   OH213172   2.343   0.493   0.963
 4389TIP3    H113173   2.380   0.451   1.041
 4389TIP3    H213174   2.417   0.543   0.926
 4390TIP3   OH213175   2.199   1.129   2.224
 4390TIP3    H113176   2.187   1.159   2.134
 4390TIP3    H213177   2.294   1.125   2.235
 4391TIP3   OH213178   3.772   5.079   4.107
 4391TIP3    H113179   3.762   5.066   4.013
 4391TIP3    H213180   3.838   5.015   4.133
 4392TIP3   OH213181   2.610   0.570   3.429
 4392TIP3    H113182   2.651   0.484   3.423
 4392TIP3    H213183   2.647   0.619   3.355
 4393TIP3   OH213184   0.241   4.966   3.552
 4393TIP3    H113185   0.280   4.978   3.465
 4393TIP3    H213186   0.293   4.897   3.592
 4394TIP3   OH213187   3.681   0.146   1.027
 4394TIP3    H113188   3.611   0.210   1.013
 4394TIP3    H213189   3.740   0.188   1.089
 4395TIP3   OH213190   3.010   5.221   0.803
 4395TIP3    H113191   2.916   5.232   0.816
 4395TIP3    H213192   3.043   5.199   0.890
 4396TIP3   OH213193   0.654   4.126   1.984
 4396TIP3    H113194   0.631   4.034   1.994
 4396TIP3    H213195   0.698   4.150   2.066
 4397TIP3   OH213196   5.228   1.060   1.790
 4397TIP3    H113197   5.134   1.066   1.807
 4397TIP3    H213198   5.256   1.151   1.778
 4398TIP3   OH213199   3.319   2.390   3.018
 4398TIP3    H113200   3.305   2.442   3.097
 4398TIP3    H213201   3.333   2.301   3.051
 4399TIP3   OH213202   2.859   2.578   1.497
 4399TIP3    H113203   2.942   2.549   1.458
 4399TIP3    H213204   2.804   2.598   1.422
 4400TIP3   OH213205   2.361   3.957   3.493
 4400TIP3    H113206   2.337   3.910   3.573
 4400TIP3    H213207   2.290   3.938   3.432
 4401TIP3   OH213208   0.142   1.738   3.897
 4401TIP3    H113209   0.104   1.738   3.809
 4401TIP3    H213210   0.223   1.686   3.888
 4402TIP3   OH213211   4.826   5.093   5.106
 4402TIP3    H113212   4.761   5.056   5.047
 4402TIP3    H213213   4.822   5.187   5.090
 4403TIP3   OH213214   2.746   2.929   0.579
 4403TIP3    H113215   2.697   2.968   0.507
 4403TIP3    H213216   2.702   2.959   0.658
 4404TIP3   OH213217   3.644   2.192   2.662
 4404TIP3    H113218   3.638   2.100   2.690
 4404TIP3    H213219   3.737   2.205   2.644
 4405TIP3   OH213220   2.594   2.896   2.801
 4405TIP3    H113221   2.650   2.821   2.779
 4405TIP3    H213222   2.610   2.959   2.730
 4406TIP3   OH213223   1.315   3.604   4.598
 4406TIP3    H113224   1.337   3.519   4.560
 4406TIP3    H213225   1.389   3.660   4.574
 4407TIP3   OH213226   3.546   5.587   1.981
 4407TIP3    H113227   3.578   5.649   1.916
 4407TIP3    H213228   3.591   5.505   1.961
 4408TIP3   OH213229   0.754   2.945   2.231
 4408TIP3    H113230   0.722   2.967   2.319
 4408TIP3    H213231   0.838   2.902   2.245
 4409TIP3   OH213232   2.564   0.564   1.325
 4409TIP3    H113233   2.625   0.577   1.397
 4409TIP3    H213234   2.580   0.475   1.296
 4410TIP3   OH213235   1.998   2.999   3.086
 4410TIP3    H113236   2.086   3.011   3.050
 4410TIP3    H213237   1.987   3.072   3.146
 4411TIP3   OH213238   0.817   3.858   1.231
 4411TIP3    H113239   0.748   3.882   1.169
 4411TIP3    H213240   0.816   3.928   1.297
 4412TIP3   OH213241   3.887   2.325   3.133
 4412TIP3    H113242   3.907   2.317   3.226
 4412TIP3    H213243   3.792   2.322   3.128
 4413TIP3   OH213244   0.576   2.377   4.117
 4413TIP3    H113245   0.536   2.333   4.041
 4413TIP3    H213246   0.591   2.306   4.179
 4414TIP3   OH213247   5.674   1.544   1.446
 4414TIP3    H113248   5.752   1.489   1.452
 4414TIP3    H213249   5.604   1.485   1.418
 4415TIP3   OH213250   2.905   2.696   4.300
 4415TIP3    H113251   2.924   2.653   4.217
 4415TIP3    H213252   2.837   2.641   4.340
 4416TIP3   OH213253   2.718   3.851   0.062
 4416TIP3    H113254   2.675   3.887  -0.016
 4416TIP3    H213255   2.734   3.759   0.041
 4417TIP3   OH213256   4.574   2.684   2.604
 4417TIP3    H113257   4.638   2.744   2.641
 4417TIP3    H213258   4.515   2.663   2.676
 4418TIP3   OH213259   1.116   0.779   3.746
 4418TIP3    H113260   1.071   0.857   3.712
 4418TIP3    H213261   1.110   0.715   3.675
 4419TIP3   OH213262   4.148   2.966   1.064
 4419TIP3    H113263   4.199   2.926   1.134
 4419TIP3    H213264   4.176   3.058   1.062
 4420TIP3   OH213265   0.252   0.701   3.783
 4420TIP3    H113266   0.287   0.774   3.732
 4420TIP3    H213267   0.286   0.715   3.871
 4421TIP3   OH213268   0.700   5.819   0.464
 4421TIP3    H113269   0.672   5.844   0.552
 4421TIP3    H213270   0.620   5.784   0.423
 4422TIP3   OH213271   1.987   0.656   1.395
 4422TIP3    H113272   1.969   0.677   1.303
 4422TIP3    H213273   1.927   0.584   1.415
 4423TIP3   OH213274   0.250   1.652   2.875
 4423TIP3    H113275   0.166   1.640   2.830
 4423TIP3    H213276   0.309   1.684   2.806
 4424TIP3   OH213277   2.339   1.408   4.671
 4424TIP3    H113278   2.293   1.335   4.632
 4424TIP3    H213279   2.429   1.377   4.681
 4425TIP3   OH213280   4.273   3.997   1.713
 4425TIP3    H113281   4.281   3.941   1.636
 4425TIP3    H213282   4.313   3.946   1.784
 4426TIP3   OH213283   2.450  -0.002   5.055
 4426TIP3    H113284   2.440   0.093   5.049
 4426TIP3    H213285   2.424  -0.034   4.968
 4427TIP3   OH213286   0.906   4.263   2.526
 4427TIP3    H113287   0.965   4.336   2.543
 4427TIP3    H213288   0.849   4.293   2.456
 4428TIP3   OH213289   3.613   1.221   0.703
 4428TIP3    H113290   3.668   1.158   0.750
 4428TIP3    H213291   3.583   1.173   0.626
 4429TIP3   OH213292   4.413   5.056   0.617
 4429TIP3    H113293   4.488   4.997   0.611
 4429TIP3    H213294   4.442   5.127   0.674
 4430TIP3   OH213295   3.979   1.459   2.931
 4430TIP3    H113296   3.913   1.470   3.000
 4430TIP3    H213297   3.948   1.384   2.880
 4431TIP3   OH213298   2.949   2.168   0.045
 4431TIP3    H113299   2.969   2.143   0.135
 4431TIP3    H213300   2.860   2.136   0.030
 4432TIP3   OH213301   5.651   3.070   1.781
 4432TIP3    H113302   5.603   3.138   1.734
 4432TIP3    H213303   5.674   3.006   1.713
 4433TIP3   OH213304   2.155   3.355   4.860
 4433TIP3    H113305   2.097   3.431   4.870
 4433TIP3    H213306   2.207   3.374   4.783
 4434TIP3   OH213307   1.218   1.917   3.643
 4434TIP3    H113308   1.293   1.898   3.698
 4434TIP3    H213309   1.142   1.905   3.700
 4435TIP3   OH213310   3.030   1.033   1.249
 4435TIP3    H113311   2.984   1.091   1.310
 4435TIP3    H213312   2.984   1.045   1.166
 4436TIP3   OH213313   0.181   3.678   3.392
 4436TIP3    H113314   0.191   3.760   3.441
 4436TIP3    H213315   0.104   3.636   3.430
 4437TIP3   OH213316   1.924   3.194   3.288
 4437TIP3    H113317   1.864   3.134   3.333
 4437TIP3    H213318   1.954   3.253   3.356
 4438TIP3   OH213319   1.714   2.454   1.047
 4438TIP3    H113320   1.658   2.376   1.046
 4438TIP3    H213321   1.803   2.419   1.043
 4439TIP3   OH213322   3.664   0.241   4.657
 4439TIP3    H113323   3.740   0.264   4.710
 4439TIP3    H213324   3.600   0.207   4.719
 4440TIP3   OH213325   2.533   2.183   0.958
 4440TIP3    H113326   2.591   2.241   0.909
 4440TIP3    H213327   2.488   2.240   1.020
 4441TIP3   OH213328   5.159   4.550   3.520
 4441TIP3    H113329   5.063   4.550   3.516
 4441TIP3    H213330   5.183   4.643   3.517
 4442TIP3   OH213331   3.817   1.055   3.809
 4442TIP3    H113332   3.804   0.968   3.846
 4442TIP3    H213333   3.745   1.065   3.746
 4443TIP3   OH213334   3.040   4.150   1.675
 4443TIP3    H113335   3.090   4.130   1.596
 4443TIP3    H213336   2.974   4.081   1.680
 4444TIP3   OH213337   3.905   1.883   5.004
 4444TIP3    H113338   3.917   1.932   5.086
 4444TIP3    H213339   3.810   1.885   4.989
 4445TIP3   OH213340   5.815   4.223   3.165
 4445TIP3    H113341   5.807   4.210   3.260
 4445TIP3    H213342   5.811   4.136   3.128
 4446TIP3   OH213343   5.602   4.893   1.830
 4446TIP3    H113344   5.530   4.899   1.892
 4446TIP3    H213345   5.582   4.958   1.763
 4447TIP3   OH213346   4.893   2.763   1.782
 4447TIP3    H113347   4.982   2.790   1.805
 4447TIP3    H213348   4.844   2.768   1.864
 4448TIP3   OH213349   3.243   0.571   3.545
 4448TIP3    H113350   3.304   0.634   3.507
 4448TIP3    H213351   3.299   0.504   3.585
 4449TIP3   OH213352   2.106   5.652   2.458
 4449TIP3    H113353   2.098   5.701   2.540
 4449TIP3    H213354   2.199   5.631   2.451
 4450TIP3   OH213355   2.220   0.750   3.591
 4450TIP3    H113356   2.205   0.744   3.685
 4450TIP3    H213357   2.305   0.709   3.577
 4451TIP3   OH213358   0.866   4.111   5.035
 4451TIP3    H113359   0.922   4.173   5.081
 4451TIP3    H213360   0.842   4.046   5.100
 4452TIP3   OH213361   1.987   2.729   3.810
 4452TIP3    H113362   1.939   2.658   3.852
 4452TIP3    H213363   2.016   2.784   3.883
 4453TIP3   OH213364   5.860   0.202   0.177
 4453TIP3    H113365   5.802   0.278   0.177
 4453TIP3    H213366   5.933   0.226   0.234
 4454TIP3   OH213367   5.130   2.670   3.753
 4454TIP3    H113368   5.066   2.708   3.692
 4454TIP3    H213369   5.083   2.662   3.836
 4455TIP3   OH213370   5.727   4.822   2.081
 4455TIP3    H113371   5.747   4.745   2.027
 4455TIP3    H213372   5.688   4.884   2.020
 4456TIP3   OH213373   2.999   4.630   2.527
 4456TIP3    H113374   2.922   4.572   2.525
 4456TIP3    H213375   2.969   4.711   2.485
 4457TIP3   OH213376   0.216   3.555   4.964
 4457TIP3    H113377   0.258   3.564   5.050
 4457TIP3    H213378   0.123   3.564   4.983
 4458TIP3   OH213379   3.515   0.686   1.725
 4458TIP3    H113380   3.498   0.592   1.722
 4458TIP3    H213381   3.508   0.715   1.634
 4459TIP3   OH213382   4.158   1.074   2.053
 4459TIP3    H113383   4.071   1.075   2.094
 4459TIP3    H213384   4.173   0.982   2.033
 4460TIP3   OH213385   4.569   4.769   3.397
 4460TIP3    H113386   4.516   4.825   3.453
 4460TIP3    H213387   4.659   4.791   3.419
 4461TIP3   OH213388   4.485   3.458   0.611
 4461TIP3    H113389   4.458   3.549   0.595
 4461TIP3    H213390   4.460   3.412   0.531
 4462TIP3   OH213391   2.518   2.361   3.763
 4462TIP3    H113392   2.517   2.339   3.856
 4462TIP3    H213393   2.606   2.337   3.734
 4463TIP3   OH213394   1.640   0.540   2.826
 4463TIP3    H113395   1.580   0.502   2.890
 4463TIP3    H213396   1.680   0.614   2.872
 4464TIP3   OH213397   1.073   5.022   2.284
 4464TIP3    H113398   1.051   5.092   2.223
 4464TIP3    H213399   1.107   5.067   2.361
 4465TIP3   OH213400   0.301   3.636   2.018
 4465TIP3    H113401   0.249   3.581   1.960
 4465TIP3    H213402   0.292   3.595   2.104
 4466TIP3   OH213403   4.813   2.091   2.840
 4466TIP3    H113404   4.887   2.045   2.802
 4466TIP3    H213405   4.843   2.181   2.851
 4467TIP3   OH213406   1.751   3.313   4.484
 4467TIP3    H113407   1.804   3.296   4.562
 4467TIP3    H213408   1.660   3.302   4.513
 4468TIP3   OH213409   0.887   3.911   0.330
 4468TIP3    H113410   0.884   3.851   0.405
 4468TIP3    H213411   0.817   3.974   0.348
 4469TIP3   OH213412   2.972   4.427   0.904
 4469TIP3    H113413   3.039   4.490   0.878
 4469TIP3    H213414   2.928   4.468   0.978
 4470TIP3   OH213415   2.213   1.252   0.362
 4470TIP3    H113416   2.216   1.156   0.358
 4470TIP3    H213417   2.244   1.273   0.450
 4471TIP3   OH213418   2.102   4.717   3.140
 4471TIP3    H113419   2.093   4.624   3.162
 4471TIP3    H213420   2.187   4.742   3.175
 4472TIP3   OH213421   2.294   5.153   3.504
 4472TIP3    H113422   2.323   5.241   3.482
 4472TIP3    H213423   2.375   5.101   3.504
 4473TIP3   OH213424   2.020   4.858   2.675
 4473TIP3    H113425   2.002   4.952   2.667
 4473TIP3    H213426   2.032   4.828   2.585
 4474TIP3   OH213427   2.277   0.146   4.669
 4474TIP3    H113428   2.251   0.115   4.583
 4474TIP3    H213429   2.236   0.085   4.730
 4475TIP3   OH213430   0.845   3.272   0.858
 4475TIP3    H113431   0.830   3.301   0.768
 4475TIP3    H213432   0.768   3.304   0.906
 4476TIP3   OH213433   3.047   5.134   4.657
 4476TIP3    H113434   3.002   5.085   4.726
 4476TIP3    H213435   3.137   5.142   4.688
 4477TIP3   OH213436   5.910  -0.001   2.967
 4477TIP3    H113437   5.911   0.042   3.052
 4477TIP3    H213438   5.998   0.015   2.932
 4478TIP3   OH213439   2.776   1.359   3.873
 4478TIP3    H113440   2.749   1.367   3.965
 4478TIP3    H213441   2.871   1.370   3.876
 4479TIP3   OH213442   3.905   0.135   0.182
 4479TIP3    H113443   3.816   0.116   0.152
 4479TIP3    H213444   3.938   0.051   0.212
 4480TIP3   OH213445   1.139   4.891   5.138
 4480TIP3    H113446   1.087   4.969   5.121
 4480TIP3    H213447   1.222   4.906   5.093
 4481TIP3   OH213448   1.731   4.122   4.866
 4481TIP3    H113449   1.810   4.086   4.825
 4481TIP3    H213450   1.712   4.061   4.937
 4482TIP3   OH213451   1.079   5.165   3.899
 4482TIP3    H113452   1.042   5.229   3.960
 4482TIP3    H213453   1.110   5.217   3.825
 4483TIP3   OH213454   2.490   2.917   0.124
 4483TIP3    H113455   2.463   3.008   0.135
 4483TIP3    H213456   2.481   2.879   0.211
 4484TIP3   OH213457   6.357   5.248   3.596
 4484TIP3    H113458   6.403   5.209   3.522
 4484TIP3    H213459   6.265   5.228   3.580
 4485TIP3   OH213460   3.440   1.633   2.135
 4485TIP3    H113461   3.422   1.588   2.218
 4485TIP3    H213462   3.388   1.585   2.071
 4486TIP3   OH213463   4.146   1.995   0.222
 4486TIP3    H113464   4.123   1.991   0.129
 4486TIP3    H213465   4.236   2.028   0.223
 4487TIP3   OH213466   4.518   0.365   4.052
 4487TIP3    H113467   4.567   0.326   3.979
 4487TIP3    H213468   4.436   0.315   4.054
 4488TIP3   OH213469   6.294   5.691   0.289
 4488TIP3    H113470   6.300   5.700   0.385
 4488TIP3    H213471   6.231   5.620   0.276
 4489TIP3   OH213472   2.290   1.380   1.774
 4489TIP3    H113473   2.254   1.432   1.702
 4489TIP3    H213474   2.314   1.297   1.733
 4490TIP3   OH213475   3.434   3.340   2.996
 4490TIP3    H113476   3.457   3.248   2.999
 4490TIP3    H213477   3.372   3.347   2.923
 4491TIP3   OH213478   5.098   3.957   5.160
 4491TIP3    H113479   5.061   3.885   5.211
 4491TIP3    H213480   5.163   3.914   5.103
 4492TIP3   OH213481   0.210   4.275   0.530
 4492TIP3    H113482   0.187   4.242   0.443
 4492TIP3    H213483   0.126   4.282   0.575
 4493TIP3   OH213484   1.937   5.470   2.340
 4493TIP3    H113485   1.990   5.544   2.371
 4493TIP3    H213486   1.849   5.506   2.330
 4494TIP3   OH213487   2.164   1.170   0.807
 4494TIP3    H113488   2.101   1.225   0.761
 4494TIP3    H213489   2.154   1.194   0.899
 4495TIP3   OH213490   5.929   4.493   3.465
 4495TIP3    H113491   5.922   4.582   3.499
 4495TIP3    H213492   5.839   4.467   3.446
 4496TIP3   OH213493   2.290   5.764   1.515
 4496TIP3    H113494   2.261   5.729   1.599
 4496TIP3    H213495   2.378   5.796   1.531
 4497TIP3   OH213496   1.400   5.168   2.117
 4497TIP3    H113497   1.406   5.187   2.211
 4497TIP3    H213498   1.317   5.120   2.108
 4498TIP3   OH213499   0.389   4.118   1.890
 4498TIP3    H113500   0.477   4.113   1.927
 4498TIP3    H213501   0.330   4.096   1.963
 4499TIP3   OH213502   3.608   3.943   3.421
 4499TIP3    H113503   3.559   3.943   3.339
 4499TIP3    H213504   3.698   3.928   3.394
 4500TIP3   OH213505   5.357   3.230   1.381
 4500TIP3    H113506   5.279   3.176   1.373
 4500TIP3    H213507   5.421   3.173   1.424
 4501TIP3   OH213508   4.033   4.403   4.788
 4501TIP3    H113509   4.015   4.459   4.863
 4501TIP3    H213510   3.977   4.437   4.718
 4502TIP3   OH213511   3.301   3.254   5.023
 4502TIP3    H113512   3.283   3.174   4.975
 4502TIP3    H213513   3.299   3.323   4.957
 4503TIP3   OH213514   3.756   4.385   4.579
 4503TIP3    H113515   3.793   4.460   4.625
 4503TIP3    H213516   3.663   4.405   4.572
 4504TIP3   OH213517   5.817   4.211   0.102
 4504TIP3    H113518   5.848   4.208   0.192
 4504TIP3    H213519   5.893   4.237   0.051
 4505TIP3   OH213520   1.737   2.597   1.828
 4505TIP3    H113521   1.672   2.587   1.897
 4505TIP3    H213522   1.686   2.619   1.750
 4506TIP3   OH213523   2.092   4.330   3.722
 4506TIP3    H113524   2.129   4.405   3.769
 4506TIP3    H213525   2.135   4.254   3.761
 4507TIP3   OH213526   5.505   2.627   2.973
 4507TIP3    H113527   5.557   2.706   2.962
 4507TIP3    H213528   5.507   2.610   3.067
 4508TIP3   OH213529   4.659   2.388   3.534
 4508TIP3    H113530   4.725   2.424   3.593
 4508TIP3    H213531   4.577   2.427   3.563
 4509TIP3   OH213532   4.366   4.150   1.518
 4509TIP3    H113533   4.284   4.154   1.468
 4509TIP3    H213534   4.417   4.224   1.485
 4510TIP3   OH213535   1.824   3.095   0.285
 4510TIP3    H113536   1.892   3.029   0.302
 4510TIP3    H213537   1.747   3.062   0.331
 4511TIP3   OH213538   3.006   0.884   2.496
 4511TIP3    H113539   2.914   0.887   2.520
 4511TIP3    H213540   3.048   0.950   2.552
 4512TIP3   OH213541   1.827   5.055   3.712
 4512TIP3    H113542   1.888   5.030   3.643
 4512TIP3    H213543   1.877   5.046   3.793
 4513TIP3   OH213544   1.064   3.901   5.157
 4513TIP3    H113545   1.014   3.847   5.096
 4513TIP3    H213546   1.155   3.870   5.147
 4514TIP3   OH213547   2.921   2.377   4.129
 4514TIP3    H113548   2.853   2.327   4.175
 4514TIP3    H213549   3.003   2.337   4.157
 4515TIP3   OH213550   3.631   5.055   3.408
 4515TIP3    H113551   3.600   5.026   3.322
 4515TIP3    H213552   3.677   4.979   3.443
 4516TIP3   OH213553   4.823   5.676   4.622
 4516TIP3    H113554   4.755   5.659   4.687
 4516TIP3    H213555   4.842   5.769   4.630
 4517TIP3   OH213556   2.310   1.742   0.216
 4517TIP3    H113557   2.223   1.766   0.247
 4517TIP3    H213558   2.308   1.646   0.212
 4518TIP3   OH213559   2.730   0.482   3.176
 4518TIP3    H113560   2.639   0.494   3.147
 4518TIP3    H213561   2.782   0.515   3.102
 4519TIP3   OH213562   5.685   0.460   1.299
 4519TIP3    H113563   5.677   0.438   1.392
 4519TIP3    H213564   5.766   0.511   1.294
 4520TIP3   OH213565   3.730   5.846   0.038
 4520TIP3    H113566   3.686   5.775  -0.009
 4520TIP3    H213567   3.710   5.829   0.130
 4521TIP3   OH213568   2.260   3.433   4.608
 4521TIP3    H113569   2.312   3.512   4.594
 4521TIP3    H213570   2.323   3.367   4.634
 4522TIP3   OH213571   4.061   1.107   0.623
 4522TIP3    H113572   4.040   1.127   0.714
 4522TIP3    H213573   4.116   1.029   0.629
 4523TIP3   OH213574   4.472   3.691   2.820
 4523TIP3    H113575   4.544   3.680   2.882
 4523TIP3    H213576   4.515   3.699   2.734
 4524TIP3   OH213577   6.244   1.014   2.547
 4524TIP3    H113578   6.187   1.042   2.618
 4524TIP3    H213579   6.314   1.079   2.545
 4525TIP3   OH213580   2.302   2.214   1.715
 4525TIP3    H113581   2.228   2.271   1.696
 4525TIP3    H213582   2.300   2.148   1.646
 4526TIP3   OH213583   1.009   3.011   4.400
 4526TIP3    H113584   1.007   3.035   4.493
 4526TIP3    H213585   0.948   3.072   4.358
 4527TIP3   OH213586   3.397   3.071   4.465
 4527TIP3    H113587   3.365   3.046   4.378
 4527TIP3    H213588   3.319   3.075   4.519
 4528TIP3   OH213589   5.516   3.267   4.737
 4528TIP3    H113590   5.510   3.200   4.805
 4528TIP3    H213591   5.436   3.256   4.685
 4529TIP3   OH213592   1.033   1.611   0.540
 4529TIP3    H113593   1.043   1.601   0.635
 4529TIP3    H213594   1.052   1.703   0.524
 4530TIP3   OH213595   4.451   2.429   5.169
 4530TIP3    H113596   4.498   2.427   5.252
 4530TIP3    H213597   4.447   2.522   5.146
 4531TIP3   OH213598   3.225   0.867   2.774
 4531TIP3    H113599   3.146   0.887   2.824
 4531TIP3    H213600   3.246   0.949   2.729
 4532TIP3   OH213601   3.293   4.516   0.425
 4532TIP3    H113602   3.340   4.509   0.508
 4532TIP3    H213603   3.343   4.460   0.365
 4533TIP3   OH213604   4.845   0.178   5.015
 4533TIP3    H113605   4.918   0.133   5.059
 4533TIP3    H213606   4.872   0.180   4.923
 4534TIP3   OH213607   2.969   3.174   4.423
 4534TIP3    H113608   2.938   3.121   4.497
 4534TIP3    H213609   2.946   3.123   4.345
 4535TIP3   OH213610   2.193   3.454   0.371
 4535TIP3    H113611   2.207   3.360   0.384
 4535TIP3    H213612   2.100   3.462   0.349
 4536TIP3   OH213613   3.234   3.742   4.772
 4536TIP3    H113614   3.223   3.803   4.699
 4536TIP3    H213615   3.328   3.726   4.776
 4537TIP3   OH213616   2.828   1.550   4.379
 4537TIP3    H113617   2.764   1.484   4.405
 4537TIP3    H213618   2.899   1.541   4.442
 4538TIP3   OH213619   1.297   4.177   0.709
 4538TIP3    H113620   1.330   4.137   0.789
 4538TIP3    H213621   1.252   4.106   0.663
 4539TIP3   OH213622   3.028   2.804   3.622
 4539TIP3    H113623   3.012   2.722   3.576
 4539TIP3    H213624   3.089   2.781   3.692
 4540TIP3   OH213625   2.144   4.155   0.123
 4540TIP3    H113626   2.238   4.148   0.137
 4540TIP3    H213627   2.118   4.068   0.094
 4541TIP3   OH213628   2.433   5.454   1.567
 4541TIP3    H113629   2.405   5.363   1.556
 4541TIP3    H213630   2.396   5.480   1.652
 4542TIP3   OH213631   2.225   4.551   0.666
 4542TIP3    H113632   2.222   4.644   0.685
 4542TIP3    H213633   2.198   4.509   0.748
 4543TIP3   OH213634   5.302   3.941   0.210
 4543TIP3    H113635   5.254   3.913   0.287
 4543TIP3    H213636   5.235   3.967   0.147
 4544TIP3   OH213637   1.042   1.219   4.670
 4544TIP3    H113638   1.078   1.187   4.588
 4544TIP3    H213639   0.959   1.173   4.681
 4545TIP3   OH213640  -0.017   2.953   2.351
 4545TIP3    H113641   0.031   2.887   2.401
 4545TIP3    H213642   0.026   2.955   2.266
 4546TIP3   OH213643   1.097   3.981   0.598
 4546TIP3    H113644   1.171   3.928   0.569
 4546TIP3    H213645   1.028   3.962   0.535
 4547TIP3   OH213646   1.611   1.082   2.473
 4547TIP3    H113647   1.701   1.085   2.506
 4547TIP3    H213648   1.584   0.991   2.485
 4548TIP3   OH213649   2.170   2.037   4.723
 4548TIP3    H113650   2.191   2.069   4.635
 4548TIP3    H213651   2.145   2.116   4.772
 4549TIP3   OH213652   3.682   4.462   4.222
 4549TIP3    H113653   3.633   4.541   4.244
 4549TIP3    H213654   3.704   4.422   4.306
 4550TIP3   OH213655   2.344   2.024   2.847
 4550TIP3    H113656   2.285   2.090   2.882
 4550TIP3    H213657   2.287   1.961   2.803
 4551TIP3   OH213658   2.728   4.303   1.211
 4551TIP3    H113659   2.797   4.257   1.163
 4551TIP3    H213660   2.706   4.377   1.155
 4552TIP3   OH213661   1.396   5.565   0.097
 4552TIP3    H113662   1.351   5.480   0.092
 4552TIP3    H213663   1.371   5.610   0.017
 4553TIP3   OH213664   4.640   5.756   2.909
 4553TIP3    H113665   4.623   5.828   2.970
 4553TIP3    H213666   4.698   5.696   2.958
 4554TIP3   OH213667   2.970   0.680   4.994
 4554TIP3    H113668   3.048   0.665   5.047
 4554TIP3    H213669   2.959   0.599   4.944
 4555TIP3   OH213670   5.349   4.886   2.646
 4555TIP3    H113671   5.334   4.869   2.553
 4555TIP3    H213672   5.441   4.909   2.652
 4556TIP3   OH213673   5.920   1.371   5.120
 4556TIP3    H113674   5.986   1.332   5.178
 4556TIP3    H213675   5.865   1.424   5.179
 4557TIP3   OH213676   5.012   3.649   4.993
 4557TIP3    H113677   5.033   3.618   4.904
 4557TIP3    H213678   4.939   3.594   5.021
 4558TIP3   OH213679   2.678   4.927   0.180
 4558TIP3    H113680   2.653   4.949   0.270
 4558TIP3    H213681   2.679   4.831   0.178
 4559TIP3   OH213682   2.637   3.789   1.782
 4559TIP3    H113683   2.576   3.721   1.754
 4559TIP3    H213684   2.693   3.746   1.846
 4560TIP3   OH213685   6.058   2.824   3.933
 4560TIP3    H113686   6.100   2.819   4.019
 4560TIP3    H213687   6.085   2.908   3.897
 4561TIP3   OH213688   6.170   4.520   2.108
 4561TIP3    H113689   6.263   4.533   2.089
 4561TIP3    H213690   6.148   4.437   2.065
 4562TIP3   OH213691   3.575   2.430   1.266
 4562TIP3    H113692   3.624   2.348   1.275
 4562TIP3    H213693   3.641   2.498   1.274
 4563TIP3   OH213694   0.310   1.003   2.395
 4563TIP3    H113695   0.240   0.994   2.330
 4563TIP3    H213696   0.367   0.927   2.379
 4564TIP3   OH213697   2.853   4.035   4.106
 4564TIP3    H113698   2.864   4.084   4.187
 4564TIP3    H213699   2.942   4.012   4.079
 4565TIP3   OH213700   1.440   4.921   0.309
 4565TIP3    H113701   1.494   4.945   0.384
 4565TIP3    H213702   1.368   4.870   0.346
 4566TIP3   OH213703   6.140   5.546   2.169
 4566TIP3    H113704   6.061   5.589   2.203
 4566TIP3    H213705   6.206   5.615   2.169
 4567TIP3   OH213706   5.101   4.221   2.507
 4567TIP3    H113707   5.188   4.258   2.524
 4567TIP3    H213708   5.042   4.297   2.509
 4568TIP3   OH213709   3.580   4.269   2.516
 4568TIP3    H113710   3.599   4.289   2.608
 4568TIP3    H213711   3.590   4.353   2.471
 4569TIP3   OH213712   3.346   3.735   0.724
 4569TIP3    H113713   3.269   3.703   0.678
 4569TIP3    H213714   3.393   3.788   0.660
 4570TIP3   OH213715   2.521   4.158   4.315
 4570TIP3    H113716   2.529   4.250   4.338
 4570TIP3    H213717   2.477   4.117   4.390
 4571TIP3   OH213718   3.709   2.010   3.449
 4571TIP3    H113719   3.793   1.966   3.436
 4571TIP3    H213720   3.727   2.078   3.514
 4572TIP3   OH213721   3.627   5.628   2.927
 4572TIP3    H113722   3.612   5.659   2.838
 4572TIP3    H213723   3.581   5.544   2.931
 4573TIP3   OH213724   3.252   2.433   0.893
 4573TIP3    H113725   3.186   2.463   0.830
 4573TIP3    H213726   3.230   2.479   0.974
 4574TIP3   OH213727   3.701   1.618   0.979
 4574TIP3    H113728   3.791   1.643   1.000
 4574TIP3    H213729   3.676   1.558   1.049
 4575TIP3   OH213730   5.121   0.197   3.298
 4575TIP3    H113731   5.071   0.116   3.304
 4575TIP3    H213732   5.139   0.221   3.389
 4576TIP3   OH213733   5.377   3.976   1.698
 4576TIP3    H113734   5.421   4.040   1.755
 4576TIP3    H213735   5.289   4.013   1.685
 4577TIP3   OH213736   0.334   1.554   0.882
 4577TIP3    H113737   0.372   1.476   0.841
 4577TIP3    H213738   0.268   1.584   0.820
 4578TIP3   OH213739   4.464   0.302   4.434
 4578TIP3    H113740   4.371   0.289   4.415
 4578TIP3    H213741   4.478   0.395   4.420
 4579TIP3   OH213742   0.227   0.866   5.042
 4579TIP3    H113743   0.181   0.794   4.998
 4579TIP3    H213744   0.236   0.836   5.133
 4580TIP3   OH213745   4.586   3.545   3.764
 4580TIP3    H113746   4.538   3.478   3.813
 4580TIP3    H213747   4.533   3.561   3.686
 4581TIP3   OH213748   4.196   3.652   0.322
 4581TIP3    H113749   4.275   3.690   0.361
 4581TIP3    H213750   4.169   3.585   0.385
 4582TIP3   OH213751   2.698   3.397   3.424
 4582TIP3    H113752   2.789   3.367   3.430
 4582TIP3    H213753   2.669   3.402   3.515
 4583TIP3   OH213754   5.251   4.625   1.852
 4583TIP3    H113755   5.319   4.643   1.787
 4583TIP3    H213756   5.284   4.666   1.932
 4584TIP3   OH213757   3.784   2.954   0.420
 4584TIP3    H113758   3.723   2.904   0.473
 4584TIP3    H213759   3.856   2.893   0.403
 4585TIP3   OH213760   6.120   0.301   0.273
 4585TIP3    H113761   6.140   0.224   0.326
 4585TIP3    H213762   6.071   0.358   0.332
 4586TIP3   OH213763   3.156   3.689   3.684
 4586TIP3    H113764   3.072   3.661   3.723
 4586TIP3    H213765   3.211   3.611   3.687
 4587TIP3   OH213766   1.083   5.191   2.076
 4587TIP3    H113767   1.138   5.262   2.043
 4587TIP3    H213768   1.067   5.135   1.999
 4588TIP3   OH213769   1.346   3.465   1.549
 4588TIP3    H113770   1.252   3.483   1.543
 4588TIP3    H213771   1.380   3.536   1.603
 4589TIP3   OH213772   3.863   0.318   2.765
 4589TIP3    H113773   3.879   0.405   2.727
 4589TIP3    H213774   3.856   0.334   2.859
 4590TIP3   OH213775   3.848   4.216   1.420
 4590TIP3    H113776   3.795   4.244   1.495
 4590TIP3    H213777   3.787   4.212   1.347
 4591TIP3   OH213778   0.199   0.707   1.193
 4591TIP3    H113779   0.248   0.763   1.133
 4591TIP3    H213780   0.226   0.618   1.171
 4592TIP3   OH213781   2.957   5.454   2.285
 4592TIP3    H113782   2.919   5.529   2.239
 4592TIP3    H213783   3.046   5.481   2.306
 4593TIP3   OH213784   2.524   0.680   0.889
 4593TIP3    H113785   2.553   0.767   0.859
 4593TIP3    H213786   2.490   0.695   0.977
 4594TIP3   OH213787   4.021   5.300   4.282
 4594TIP3    H113788   4.004   5.375   4.339
 4594TIP3    H213789   4.096   5.255   4.321
 4595TIP3   OH213790   0.975   4.898   1.613
 4595TIP3    H113791   0.931   4.952   1.547
 4595TIP3    H213792   0.946   4.808   1.593
 4596TIP3   OH213793   5.030   2.881   1.247
 4596TIP3    H113794   5.017   2.968   1.286
 4596TIP3    H213795   5.112   2.850   1.284
 4597TIP3   OH213796   2.089   4.027   0.715
 4597TIP3    H113797   2.117   3.936   0.725
 4597TIP3    H213798   2.135   4.058   0.637
 4598TIP3   OH213799   2.170   3.698   0.926
 4598TIP3    H113800   2.173   3.705   0.831
 4598TIP3    H213801   2.221   3.773   0.958
 4599TIP3   OH213802   3.190   5.945   4.316
 4599TIP3    H113803   3.229   5.997   4.246
 4599TIP3    H213804   3.254   5.949   4.387
 4600TIP3   OH213805   3.558   1.798   2.445
 4600TIP3    H113806   3.550   1.774   2.353
 4600TIP3    H213807   3.637   1.851   2.449
 4601TIP3   OH213808   0.723   4.334   3.649
 4601TIP3    H113809   0.648   4.302   3.600
 4601TIP3    H213810   0.796   4.329   3.588
 4602TIP3   OH213811   5.657   3.469   2.860
 4602TIP3    H113812   5.664   3.563   2.843
 4602TIP3    H213813   5.618   3.464   2.948
 4603TIP3   OH213814   5.006   1.118   1.506
 4603TIP3    H113815   4.952   1.170   1.447
 4603TIP3    H213816   4.957   1.036   1.518
 4604TIP3   OH213817   4.323   1.068   1.351
 4604TIP3    H113818   4.413   1.076   1.382
 4604TIP3    H213819   4.331   1.036   1.261
 4605TIP3   OH213820   4.804   1.587   3.316
 4605TIP3    H113821   4.812   1.565   3.409
 4605TIP3    H213822   4.750   1.517   3.280
 4606TIP3   OH213823   2.333   2.698   2.878
 4606TIP3    H113824   2.357   2.789   2.858
 4606TIP3    H213825   2.416   2.653   2.892
 4607TIP3   OH213826   2.359   3.629   3.478
 4607TIP3    H113827   2.429   3.678   3.522
 4607TIP3    H213828   2.293   3.616   3.546
 4608TIP3   OH213829   1.009   0.594   4.678
 4608TIP3    H113830   1.087   0.647   4.662
 4608TIP3    H213831   1.043   0.506   4.694
 4609TIP3   OH213832   1.704   3.176   3.820
 4609TIP3    H113833   1.657   3.098   3.792
 4609TIP3    H213834   1.797   3.151   3.817
 4610TIP3   OH213835   1.343   0.230   3.792
 4610TIP3    H113836   1.276   0.169   3.821
 4610TIP3    H213837   1.301   0.283   3.725
 4611TIP3   OH213838   2.836   4.085   0.015
 4611TIP3    H113839   2.776   4.157   0.030
 4611TIP3    H213840   2.804   4.015   0.073
 4612TIP3   OH213841   6.076   0.855   3.590
 4612TIP3    H113842   6.018   0.921   3.552
 4612TIP3    H213843   6.059   0.860   3.684
 4613TIP3   OH213844   5.509   4.553   4.345
 4613TIP3    H113845   5.469   4.499   4.278
 4613TIP3    H213846   5.603   4.544   4.330
 4614TIP3   OH213847   0.513   0.342   0.802
 4614TIP3    H113848   0.443   0.406   0.793
 4614TIP3    H213849   0.474   0.260   0.772
 4615TIP3   OH213850   2.436   4.356   2.237
 4615TIP3    H113851   2.461   4.280   2.289
 4615TIP3    H213852   2.504   4.421   2.255
 4616TIP3   OH213853   0.947   2.005   1.791
 4616TIP3    H113854   1.041   2.012   1.777
 4616TIP3    H213855   0.937   1.995   1.886
 4617TIP3   OH213856   4.994   5.306   1.756
 4617TIP3    H113857   4.963   5.240   1.694
 4617TIP3    H213858   4.916   5.331   1.806
 4618TIP3   OH213859   0.978   3.050   3.789
 4618TIP3    H113860   1.047   3.103   3.750
 4618TIP3    H213861   0.935   3.008   3.714
 4619TIP3   OH213862   3.422   3.678   2.429
 4619TIP3    H113863   3.502   3.651   2.383
 4619TIP3    H213864   3.372   3.726   2.363
 4620TIP3   OH213865   1.898   5.465   1.444
 4620TIP3    H113866   1.892   5.490   1.537
 4620TIP3    H213867   1.810   5.435   1.422
 4621TIP3   OH213868   0.574   5.066   0.066
 4621TIP3    H113869   0.555   5.081   0.158
 4621TIP3    H213870   0.495   5.096   0.020
 4622TIP3   OH213871   0.796   5.943   0.118
 4622TIP3    H113872   0.754   5.977   0.039
 4622TIP3    H213873   0.850   5.870   0.088
 4623TIP3   OH213874   2.814   2.537   2.375
 4623TIP3    H113875   2.888   2.571   2.425
 4623TIP3    H213876   2.809   2.444   2.401
 4624TIP3   OH213877   5.380   4.896   2.276
 4624TIP3    H113878   5.322   4.821   2.266
 4624TIP3    H213879   5.464   4.858   2.303
 4625TIP3   OH213880   0.175   5.075   1.363
 4625TIP3    H113881   0.119   5.150   1.383
 4625TIP3    H213882   0.184   5.077   1.268
 4626TIP3   OH213883   2.463   4.861   2.293
 4626TIP3    H113884   2.551   4.897   2.303
 4626TIP3    H213885   2.415   4.895   2.368
 4627TIP3   OH213886   4.803   5.786   2.679
 4627TIP3    H113887   4.740   5.816   2.613
 4627TIP3    H213888   4.749   5.771   2.757
 4628TIP3   OH213889   2.775   0.050   1.209
 4628TIP3    H113890   2.729  -0.014   1.154
 4628TIP3    H213891   2.754   0.024   1.299
 4629TIP3   OH213892   2.010   5.128   0.661
 4629TIP3    H113893   2.076   5.177   0.710
 4629TIP3    H213894   1.948   5.099   0.728
 4630TIP3   OH213895   3.984   5.689   0.542
 4630TIP3    H113896   4.052   5.699   0.609
 4630TIP3    H213897   3.983   5.595   0.523
 4631TIP3   OH213898   5.939   4.555   0.089
 4631TIP3    H113899   5.923   4.511   0.006
 4631TIP3    H213900   5.978   4.487   0.145
 4632TIP3   OH213901   4.559   4.244   0.295
 4632TIP3    H113902   4.480   4.284   0.258
 4632TIP3    H213903   4.630   4.273   0.238
 4633TIP3   OH213904   0.340   5.483   2.138
 4633TIP3    H113905   0.266   5.444   2.184
 4633TIP3    H213906   0.410   5.419   2.146
 4634TIP3   OH213907   5.352   1.471   5.191
 4634TIP3    H113908   5.396   1.387   5.207
 4634TIP3    H213909   5.423   1.532   5.171
 4635TIP3   OH213910   3.193   2.499   4.576
 4635TIP3    H113911   3.097   2.491   4.578
 4635TIP3    H213912   3.223   2.436   4.641
 4636TIP3   OH213913   3.386   0.512   4.892
 4636TIP3    H113914   3.352   0.467   4.815
 4636TIP3    H213915   3.388   0.445   4.960
 4637TIP3   OH213916   0.172   0.953   4.179
 4637TIP3    H113917   0.113   0.935   4.105
 4637TIP3    H213918   0.170   0.872   4.230
 4638TIP3   OH213919   3.328   0.051   3.227
 4638TIP3    H113920   3.408   0.007   3.258
 4638TIP3    H213921   3.265   0.039   3.299
 4639TIP3   OH213922   2.634   3.713   0.493
 4639TIP3    H113923   2.636   3.779   0.425
 4639TIP3    H213924   2.601   3.759   0.570
 4640TIP3   OH213925   1.940   4.437   1.634
 4640TIP3    H113926   1.896   4.491   1.568
 4640TIP3    H213927   2.033   4.445   1.614
 4641TIP3   OH213928   1.108   0.278   3.273
 4641TIP3    H113929   1.036   0.330   3.239
 4641TIP3    H213930   1.072   0.190   3.283
 4642TIP3   OH213931   6.286   4.932   3.192
 4642TIP3    H113932   6.298   5.020   3.227
 4642TIP3    H213933   6.331   4.875   3.254
 4643TIP3   OH213934   1.189   1.727   3.200
 4643TIP3    H113935   1.155   1.787   3.267
 4643TIP3    H213936   1.212   1.783   3.127
 4644TIP3   OH213937   3.119   3.985   4.031
 4644TIP3    H113938   3.171   4.002   4.110
 4644TIP3    H213939   3.147   3.898   4.002
 4645TIP3   OH213940   4.908   5.708   3.044
 4645TIP3    H113941   4.957   5.638   3.086
 4645TIP3    H213942   4.964   5.738   2.973
 4646TIP3   OH213943   1.430   1.350   0.065
 4646TIP3    H113944   1.466   1.313  -0.015
 4646TIP3    H213945   1.347   1.303   0.078
 4647TIP3   OH213946   5.977   4.580   0.695
 4647TIP3    H113947   5.889   4.612   0.680
 4647TIP3    H213948   6.027   4.658   0.719
 4648TIP3   OH213949   0.949   4.976   4.372
 4648TIP3    H113950   0.914   5.064   4.355
 4648TIP3    H213951   1.024   4.991   4.430
 4649TIP3   OH213952   0.890   0.390   1.124
 4649TIP3    H113953   0.949   0.412   1.052
 4649TIP3    H213954   0.948   0.382   1.200
 4650TIP3   OH213955   4.324   3.047   3.007
 4650TIP3    H113956   4.350   3.101   3.082
 4650TIP3    H213957   4.276   2.974   3.046
 4651TIP3   OH213958   3.085   5.795   4.560
 4651TIP3    H113959   3.148   5.776   4.490
 4651TIP3    H213960   3.138   5.801   4.639
 4652TIP3   OH213961   5.558   0.799   2.194
 4652TIP3    H113962   5.543   0.792   2.100
 4652TIP3    H213963   5.650   0.773   2.205
 4653TIP3   OH213964   4.015   2.528   0.108
 4653TIP3    H113965   3.921   2.518   0.119
 4653TIP3    H213966   4.053   2.452   0.152
 4654TIP3   OH213967   5.037   4.194   1.959
 4654TIP3    H113968   4.959   4.141   1.944
 4654TIP3    H213969   5.005   4.271   2.006
 4655TIP3   OH213970   4.211   4.863   2.317
 4655TIP3    H113971   4.266   4.810   2.259
 4655TIP3    H213972   4.122   4.829   2.304
 4656TIP3   OH213973   2.321   1.114   1.730
 4656TIP3    H113974   2.251   1.079   1.674
 4656TIP3    H213975   2.326   1.054   1.804
 4657TIP3   OH213976   4.175   3.564   0.871
 4657TIP3    H113977   4.187   3.626   0.799
 4657TIP3    H213978   4.264   3.539   0.896
 4658TIP3   OH213979   0.456   5.182   0.277
 4658TIP3    H113980   0.365   5.162   0.256
 4658TIP3    H213981   0.478   5.124   0.349
 4659TIP3   OH213982   2.716   3.205   1.235
 4659TIP3    H113983   2.800   3.238   1.200
 4659TIP3    H213984   2.657   3.206   1.159
 4660TIP3   OH213985   4.204   1.108   1.586
 4660TIP3    H113986   4.277   1.127   1.645
 4660TIP3    H213987   4.246   1.090   1.502
 4661TIP3   OH213988   0.789   2.346   1.032
 4661TIP3    H113989   0.876   2.331   1.070
 4661TIP3    H213990   0.803   2.416   0.968
 4662TIP3   OH213991   0.704   2.578   0.627
 4662TIP3    H113992   0.631   2.585   0.689
 4662TIP3    H213993   0.779   2.553   0.681
 4663TIP3   OH213994   3.600   0.544   0.008
 4663TIP3    H113995   3.627   0.513  -0.079
 4663TIP3    H213996   3.681   0.562   0.054
 4664TIP3   OH213997   1.319   0.094   4.174
 4664TIP3    H113998   1.404   0.137   4.188
 4664TIP3    H213999   1.266   0.123   4.248
 4665TIP3   OH214000   4.394   1.125   1.760
 4665TIP3    H114001   4.400   1.125   1.855
 4665TIP3    H214002   4.438   1.045   1.733
 4666TIP3   OH214003   0.802   0.120   4.520
 4666TIP3    H114004   0.831   0.091   4.606
 4666TIP3    H214005   0.753   0.201   4.538
 4667TIP3   OH214006   0.189   0.160   3.405
 4667TIP3    H114007   0.107   0.203   3.379
 4667TIP3    H214008   0.248   0.233   3.426
 4668TIP3   OH214009   4.639   5.032   0.239
 4668TIP3    H114010   4.557   5.049   0.284
 4668TIP3    H214011   4.641   5.097   0.169
 4669TIP3   OH214012   3.536   0.888   3.822
 4669TIP3    H114013   3.499   0.913   3.907
 4669TIP3    H214014   3.502   0.954   3.761
 4670TIP3   OH214015   0.961   1.020   3.617
 4670TIP3    H114016   1.010   1.087   3.569
 4670TIP3    H214017   0.912   0.973   3.549
 4671TIP3   OH214018   0.992   0.046   0.187
 4671TIP3    H114019   1.024   0.079   0.271
 4671TIP3    H214020   0.898   0.031   0.201
 4672TIP3   OH214021   0.772   2.809   1.537
 4672TIP3    H114022   0.849   2.860   1.562
 4672TIP3    H214023   0.778   2.729   1.590
 4673TIP3   OH214024   1.890   1.208   3.950
 4673TIP3    H114025   1.901   1.276   3.884
 4673TIP3    H214026   1.961   1.223   4.012
 4674TIP3   OH214027   3.456   0.702   1.421
 4674TIP3    H114028   3.369   0.691   1.382
 4674TIP3    H214029   3.513   0.649   1.366
 4675TIP3   OH214030   3.683   2.848   3.212
 4675TIP3    H114031   3.619   2.846   3.141
 4675TIP3    H214032   3.636   2.887   3.286
 4676TIP3   OH214033   2.602   3.849   2.560
 4676TIP3    H114034   2.582   3.850   2.467
 4676TIP3    H214035   2.640   3.762   2.576
 4677TIP3   OH214036   4.546  -0.002   4.388
 4677TIP3    H114037   4.518  -0.044   4.469
 4677TIP3    H214038   4.553   0.091   4.410
 4678TIP3   OH214039   1.917   2.801   2.916
 4678TIP3    H114040   1.977   2.851   2.973
 4678TIP3    H214041   1.966   2.788   2.835
 4679TIP3   OH214042   1.948   4.253   4.028
 4679TIP3    H114043   2.031   4.229   4.069
 4679TIP3    H214044   1.890   4.178   4.045
 4680TIP3   OH214045   1.145   1.476   1.081
 4680TIP3    H114046   1.088   1.424   1.138
 4680TIP3    H214047   1.113   1.565   1.089
 4681TIP3   OH214048   5.183   5.354   4.705
 4681TIP3    H114049   5.238   5.345   4.627
 4681TIP3    H214050   5.232   5.309   4.774
 4682TIP3   OH214051   1.978   1.991   1.539
 4682TIP3    H114052   1.987   1.999   1.634
 4682TIP3    H214053   1.896   2.035   1.518
 4683TIP3   OH214054   5.537   5.160   4.662
 4683TIP3    H114055   5.463   5.139   4.720
 4683TIP3    H214056   5.512   5.242   4.620
 4684TIP3   OH214057   2.585   5.521   3.627
 4684TIP3    H114058   2.631   5.480   3.700
 4684TIP3    H214059   2.654   5.555   3.571
 4685TIP3   OH214060   2.558   3.208   1.020
 4685TIP3    H114061   2.539   3.294   0.981
 4685TIP3    H214062   2.480   3.156   1.002
 4686TIP3   OH214063   0.157   2.159   4.613
 4686TIP3    H114064   0.077   2.163   4.666
 4686TIP3    H214065   0.210   2.091   4.654
 4687TIP3   OH214066   6.185   4.298   3.778
 4687TIP3    H114067   6.100   4.312   3.818
 4687TIP3    H214068   6.237   4.254   3.845
 4688TIP3   OH214069   1.169   4.163   1.073
 4688TIP3    H114070   1.084   4.203   1.089
 4688TIP3    H214071   1.162   4.124   0.986
 4689TIP3   OH214072   1.167   0.289   1.879
 4689TIP3    H114073   1.108   0.240   1.822
 4689TIP3    H214074   1.145   0.381   1.862
 4690TIP3   OH214075   3.235   0.049   0.152
 4690TIP3    H114076   3.157   0.064   0.099
 4690TIP3    H214077   3.295   0.120   0.129
 4691TIP3   OH214078   1.036   3.364   0.038
 4691TIP3    H114079   1.060   3.404   0.121
 4691TIP3    H214080   1.041   3.270   0.054
 4692TIP3   OH214081   0.722   1.602   1.832
 4692TIP3    H114082   0.629   1.594   1.851
 4692TIP3    H214083   0.735   1.695   1.815
 4693TIP3   OH214084   1.830   0.538   2.094
 4693TIP3    H114085   1.751   0.516   2.144
 4693TIP3    H214086   1.807   0.620   2.049
 4694TIP3   OH214087   4.820   3.804   2.590
 4694TIP3    H114088   4.820   3.878   2.650
 4694TIP3    H214089   4.908   3.804   2.552
 4695TIP3   OH214090   0.890   2.721   2.942
 4695TIP3    H114091   0.979   2.699   2.915
 4695TIP3    H214092   0.901   2.778   3.018
 4696TIP3   OH214093   4.957   1.273   2.073
 4696TIP3    H114094   4.999   1.209   2.015
 4696TIP3    H214095   4.866   1.276   2.043
 4697TIP3   OH214096   5.153   5.908   5.105
 4697TIP3    H114097   5.094   5.834   5.117
 4697TIP3    H214098   5.134   5.966   5.178
 4698TIP3   OH214099   1.961   5.180   0.135
 4698TIP3    H114100   1.946   5.216   0.223
 4698TIP3    H214101   1.975   5.257   0.080
 4699TIP3   OH214102   1.592   4.553   2.601
 4699TIP3    H114103   1.540   4.630   2.576
 4699TIP3    H214104   1.562   4.485   2.541
 4700TIP3   OH214105   0.134   0.016   4.647
 4700TIP3    H114106   0.173   0.052   4.567
 4700TIP3    H214107   0.097  -0.068   4.619
 4701TIP3   OH214108   5.892   1.373   1.462
 4701TIP3    H114109   5.939   1.386   1.379
 4701TIP3    H214110   5.909   1.282   1.485
 4702TIP3   OH214111   1.448   1.109   2.177
 4702TIP3    H114112   1.482   1.045   2.239
 4702TIP3    H214113   1.502   1.097   2.099
 4703TIP3   OH214114   6.016   1.254   0.952
 4703TIP3    H114115   6.052   1.277   0.866
 4703TIP3    H214116   6.046   1.164   0.967
 4704TIP3   OH214117   5.737   0.351   4.781
 4704TIP3    H114118   5.817   0.403   4.782
 4704TIP3    H214119   5.666   0.415   4.775
 4705TIP3   OH214120   5.298   0.041   2.809
 4705TIP3    H114121   5.271   0.096   2.736
 4705TIP3    H214122   5.361   0.095   2.857
 4706TIP3   OH214123   0.673   4.563   3.350
 4706TIP3    H114124   0.590   4.515   3.353
 4706TIP3    H214125   0.685   4.583   3.257
 4707TIP3   OH214126   4.571   4.705   0.849
 4707TIP3    H114127   4.476   4.696   0.837
 4707TIP3    H214128   4.605   4.726   0.762
 4708TIP3   OH214129   3.889   1.835   2.971
 4708TIP3    H114130   3.834   1.875   2.904
 4708TIP3    H214131   3.883   1.741   2.955
 4709TIP3   OH214132   1.152   0.203   2.562
 4709TIP3    H114133   1.081   0.267   2.560
 4709TIP3    H214134   1.216   0.238   2.500
 4710TIP3   OH214135   3.474   2.189   4.662
 4710TIP3    H114136   3.492   2.191   4.568
 4710TIP3    H214137   3.473   2.095   4.684
 4711TIP3   OH214138   5.331   1.985   1.019
 4711TIP3    H114139   5.275   1.974   0.942
 4711TIP3    H214140   5.375   1.901   1.028
 4712TIP3   OH214141   4.306   4.254   3.995
 4712TIP3    H114142   4.254   4.334   4.007
 4712TIP3    H214143   4.308   4.241   3.901
 4713TIP3   OH214144   1.900   3.433   0.865
 4713TIP3    H114145   1.832   3.498   0.847
 4713TIP3    H214146   1.882   3.361   0.806
 4714TIP3   OH214147   6.036   1.920   3.122
 4714TIP3    H114148   6.000   1.925   3.034
 4714TIP3    H214149   5.988   1.849   3.164
 4715TIP3   OH214150   6.037   5.631   4.222
 4715TIP3    H114151   5.973   5.632   4.293
 4715TIP3    H214152   6.073   5.543   4.224
 4716TIP3   OH214153   5.798   4.382   2.503
 4716TIP3    H114154   5.879   4.415   2.466
 4716TIP3    H214155   5.818   4.369   2.596
 4717TIP3   OH214156   0.774   2.291   3.596
 4717TIP3    H114157   0.849   2.231   3.593
 4717TIP3    H214158   0.740   2.292   3.507
 4718TIP3   OH214159   0.672   1.630   3.712
 4718TIP3    H114160   0.601   1.573   3.740
 4718TIP3    H214161   0.727   1.640   3.790
 4719TIP3   OH214162   0.445   4.092   4.961
 4719TIP3    H114163   0.443   4.186   4.942
 4719TIP3    H214164   0.381   4.081   5.032
 4720TIP3   OH214165   4.193   5.244   4.555
 4720TIP3    H114166   4.185   5.152   4.530
 4720TIP3    H214167   4.286   5.263   4.547
 4721TIP3   OH214168   3.758   5.549   3.157
 4721TIP3    H114169   3.737   5.599   3.078
 4721TIP3    H214170   3.852   5.534   3.153
 4722TIP3   OH214171   1.877   2.329   0.435
 4722TIP3    H114172   1.807   2.332   0.500
 4722TIP3    H214173   1.954   2.301   0.484
 4723TIP3   OH214174   0.668   4.306   1.679
 4723TIP3    H114175   0.724   4.285   1.754
 4723TIP3    H214176   0.599   4.360   1.716
 4724TIP3   OH214177   1.115   0.358   4.701
 4724TIP3    H114178   1.209   0.354   4.679
 4724TIP3    H214179   1.107   0.309   4.782
 4725TIP3   OH214180   2.033   1.477   0.925
 4725TIP3    H114181   2.061   1.395   0.968
 4725TIP3    H214182   2.029   1.454   0.832
 4726TIP3   OH214183   5.826   5.586   4.824
 4726TIP3    H114184   5.763   5.529   4.867
 4726TIP3    H214185   5.779   5.669   4.811
 4727TIP3   OH214186   5.868   2.086   4.643
 4727TIP3    H114187   5.962   2.092   4.626
 4727TIP3    H214188   5.831   2.053   4.561
 4728TIP3   OH214189   4.091   1.585   3.480
 4728TIP3    H114190   4.019   1.646   3.497
 4728TIP3    H214191   4.127   1.612   3.396
 4729TIP3   OH214192   2.950   1.362   3.274
 4729TIP3    H114193   2.989   1.445   3.299
 4729TIP3    H214194   2.874   1.353   3.332
 4730TIP3   OH214195   4.032   0.837   2.904
 4730TIP3    H114196   3.957   0.888   2.874
 4730TIP3    H214197   4.100   0.902   2.921
 4731TIP3   OH214198   2.930   2.432   1.159
 4731TIP3    H114199   3.025   2.441   1.169
 4731TIP3    H214200   2.897   2.521   1.170
 4732TIP3   OH214201   3.544   0.681   1.995
 4732TIP3    H114202   3.634   0.648   2.000
 4732TIP3    H214203   3.531   0.700   1.902
 4733TIP3   OH214204   4.816   2.169   4.157
 4733TIP3    H114205   4.845   2.206   4.241
 4733TIP3    H214206   4.794   2.079   4.177
 4734TIP3   OH214207   4.621   0.595   0.518
 4734TIP3    H114208   4.686   0.590   0.588
 4734TIP3    H214209   4.538   0.576   0.560
 4735TIP3   OH214210   0.407   4.325   3.680
 4735TIP3    H114211   0.456   4.365   3.752
 4735TIP3    H214212   0.323   4.300   3.718
 4736TIP3   OH214213   4.979   3.244   1.525
 4736TIP3    H114214   4.924   3.236   1.447
 4736TIP3    H214215   5.043   3.173   1.516
 4737TIP3   OH214216   2.425   1.123   3.626
 4737TIP3    H114217   2.508   1.167   3.644
 4737TIP3    H214218   2.449   1.032   3.609
 4738TIP3   OH214219   5.956   3.298   2.870
 4738TIP3    H114220   5.871   3.317   2.830
 4738TIP3    H214221   5.970   3.205   2.856
 4739TIP3   OH214222   2.850   2.308   1.682
 4739TIP3    H114223   2.864   2.353   1.599
 4739TIP3    H214224   2.911   2.351   1.743
 4740TIP3   OH214225   2.997   3.939   2.310
 4740TIP3    H114226   2.995   3.981   2.396
 4740TIP3    H214227   2.920   3.883   2.308
 4741TIP3   OH214228   0.454   5.220   2.077
 4741TIP3    H114229   0.432   5.130   2.056
 4741TIP3    H214230   0.536   5.237   2.030
 4742TIP3   OH214231   1.421   5.075   4.329
 4742TIP3    H114232   1.514   5.078   4.304
 4742TIP3    H214233   1.393   4.986   4.305
 4743TIP3   OH214234   1.629   5.305   0.771
 4743TIP3    H114235   1.667   5.257   0.844
 4743TIP3    H214236   1.542   5.329   0.800
 4744TIP3   OH214237   0.590   1.648   0.487
 4744TIP3    H114238   0.581   1.625   0.394
 4744TIP3    H214239   0.675   1.612   0.512
 4745TIP3   OH214240   4.998   5.755   3.840
 4745TIP3    H114241   4.961   5.795   3.918
 4745TIP3    H214242   5.071   5.812   3.817
 4746TIP3   OH214243   5.783   1.829   3.791
 4746TIP3    H114244   5.765   1.915   3.829
 4746TIP3    H214245   5.840   1.847   3.717
 4747TIP3   OH214246   0.441   2.190   1.928
 4747TIP3    H114247   0.369   2.137   1.895
 4747TIP3    H214248   0.483   2.225   1.850
 4748TIP3   OH214249   5.413   3.710   2.363
 4748TIP3    H114250   5.467   3.680   2.291
 4748TIP3    H214251   5.437   3.802   2.375
 4749TIP3   OH214252   3.765   2.233   1.352
 4749TIP3    H114253   3.821   2.310   1.365
 4749TIP3    H214254   3.826   2.159   1.355
 4750TIP3   OH214255   3.707   1.140   4.253
 4750TIP3    H114256   3.625   1.187   4.271
 4750TIP3    H214257   3.678   1.050   4.235
 4751TIP3   OH214258   2.296   0.773   2.718
 4751TIP3    H114259   2.330   0.848   2.766
 4751TIP3    H214260   2.237   0.730   2.780
 4752TIP3   OH214261   3.902   2.764   0.120
 4752TIP3    H114262   3.941   2.678   0.102
 4752TIP3    H214263   3.930   2.784   0.209
 4753TIP3   OH214264   4.172   0.348   1.308
 4753TIP3    H114265   4.162   0.269   1.362
 4753TIP3    H214266   4.176   0.420   1.372
 4754TIP3   OH214267   0.002   4.722   1.715
 4754TIP3    H114268   0.004   4.631   1.685
 4754TIP3    H214269   0.028   4.718   1.807
 4755TIP3   OH214270   5.847   3.093   2.173
 4755TIP3    H114271   5.779   3.157   2.194
 4755TIP3    H214272   5.885   3.071   2.258
 4756TIP3   OH214273   4.884   3.498   1.215
 4756TIP3    H114274   4.879   3.518   1.308
 4756TIP3    H214275   4.976   3.511   1.192
 4757TIP3   OH214276   4.693   2.263   1.400
 4757TIP3    H114277   4.600   2.285   1.401
 4757TIP3    H214278   4.711   2.242   1.308
 4758TIP3   OH214279   5.439   5.093   0.721
 4758TIP3    H114280   5.525   5.059   0.745
 4758TIP3    H214281   5.386   5.084   0.800
 4759TIP3   OH214282   4.446   4.707   0.371
 4759TIP3    H114283   4.439   4.628   0.426
 4759TIP3    H214284   4.458   4.778   0.434
 4760TIP3   OH214285   0.332   1.803   4.421
 4760TIP3    H114286   0.425   1.804   4.442
 4760TIP3    H214287   0.326   1.854   4.340
 4761TIP3   OH214288   5.012   1.800   3.314
 4761TIP3    H114289   4.946   1.731   3.326
 4761TIP3    H214290   5.007   1.852   3.394
 4762TIP3   OH214291   2.077   0.714   1.093
 4762TIP3    H114292   2.088   0.619   1.081
 4762TIP3    H214293   2.132   0.735   1.168
 4763TIP3   OH214294   1.843   0.842   3.191
 4763TIP3    H114295   1.782   0.910   3.161
 4763TIP3    H214296   1.810   0.817   3.277
 4764TIP3   OH214297   1.888   5.083   1.336
 4764TIP3    H114298   1.806   5.038   1.313
 4764TIP3    H214299   1.942   5.075   1.257
 4765TIP3   OH214300   2.908   3.599   3.840
 4765TIP3    H114301   2.907   3.641   3.926
 4765TIP3    H214302   2.823   3.620   3.802
 4766TIP3   OH214303   1.086   1.374   4.100
 4766TIP3    H114304   1.008   1.405   4.054
 4766TIP3    H214305   1.128   1.315   4.038
 4767TIP3   OH214306   5.571   3.808   1.302
 4767TIP3    H114307   5.612   3.882   1.345
 4767TIP3    H214308   5.570   3.832   1.209
 4768TIP3   OH214309   3.160   1.880   0.563
 4768TIP3    H114310   3.196   1.922   0.642
 4768TIP3    H214311   3.190   1.789   0.568
 4769TIP3   OH214312   5.174   4.162   1.713
 4769TIP3    H114313   5.148   4.146   1.803
 4769TIP3    H214314   5.178   4.257   1.705
 4770TIP3   OH214315   4.255   4.099   3.767
 4770TIP3    H114316   4.278   4.014   3.729
 4770TIP3    H214317   4.175   4.081   3.817
 4771TIP3   OH214318   2.482   4.129   2.398
 4771TIP3    H114319   2.411   4.122   2.462
 4771TIP3    H214320   2.487   4.041   2.359
 4772TIP3   OH214321   5.365   3.088   4.883
 4772TIP3    H114322   5.366   3.012   4.825
 4772TIP3    H214323   5.275   3.093   4.916
 4773TIP3   OH214324   6.323   5.758   2.695
 4773TIP3    H114325   6.265   5.712   2.634
 4773TIP3    H214326   6.308   5.850   2.677
 4774TIP3   OH214327   1.585   0.443   4.511
 4774TIP3    H114328   1.502   0.490   4.508
 4774TIP3    H214329   1.651   0.510   4.495
 4775TIP3   OH214330   4.050   3.755   3.865
 4775TIP3    H114331   4.123   3.797   3.911
 4775TIP3    H214332   4.054   3.791   3.777
 4776TIP3   OH214333   1.101   2.579   4.596
 4776TIP3    H114334   1.190   2.572   4.562
 4776TIP3    H214335   1.052   2.511   4.548
 4777TIP3   OH214336   0.051   0.145   1.210
 4777TIP3    H114337  -0.019   0.203   1.182
 4777TIP3    H214338   0.090   0.188   1.286
 4778TIP3   OH214339   5.353   2.962   3.658
 4778TIP3    H114340   5.409   2.886   3.673
 4778TIP3    H214341   5.302   2.939   3.581
 4779TIP3   OH214342   1.236   3.800   4.266
 4779TIP3    H114343   1.302   3.758   4.211
 4779TIP3    H214344   1.241   3.893   4.244
 4780TIP3   OH214345   2.634   3.560   2.564
 4780TIP3    H114346   2.545   3.556   2.598
 4780TIP3    H214347   2.637   3.495   2.494
 4781TIP3   OH214348   5.293   5.402   4.080
 4781TIP3    H114349   5.232   5.414   4.154
 4781TIP3    H214350   5.296   5.487   4.038
 4782TIP3   OH214351   2.334   0.684   0.621
 4782TIP3    H114352   2.361   0.666   0.712
 4782TIP3    H214353   2.294   0.771   0.625
 4783TIP3   OH214354   4.110   5.793   2.769
 4783TIP3    H114355   4.144   5.793   2.680
 4783TIP3    H214356   4.187   5.797   2.825
 4784TIP3   OH214357   1.175   5.388   1.907
 4784TIP3    H114358   1.139   5.352   1.826
 4784TIP3    H214359   1.259   5.426   1.881
 4785TIP3   OH214360   4.147   4.500   1.454
 4785TIP3    H114361   4.130   4.592   1.469
 4785TIP3    H214362   4.119   4.484   1.364
 4786TIP3   OH214363   5.813   2.685   2.479
 4786TIP3    H114364   5.776   2.726   2.401
 4786TIP3    H214365   5.905   2.669   2.455
 4787TIP3   OH214366   2.660   5.156   1.354
 4787TIP3    H114367   2.742   5.161   1.403
 4787TIP3    H214368   2.647   5.246   1.322
 4788TIP3   OH214369   5.970   2.333   0.545
 4788TIP3    H114370   5.969   2.359   0.453
 4788TIP3    H214371   5.942   2.412   0.592
 4789TIP3   OH214372   3.945   1.039   1.143
 4789TIP3    H114373   3.897   1.083   1.072
 4789TIP3    H214374   3.884   0.973   1.175
 4790TIP3   OH214375   3.167   5.391   2.953
 4790TIP3    H114376   3.132   5.476   2.980
 4790TIP3    H214377   3.127   5.328   3.012
 4791TIP3   OH214378   2.336   3.069   0.941
 4791TIP3    H114379   2.262   3.126   0.920
 4791TIP3    H214380   2.312   3.027   1.024
 4792TIP3   OH214381   2.858   1.989   3.535
 4792TIP3    H114382   2.804   1.926   3.488
 4792TIP3    H214383   2.897   1.938   3.606
 4793TIP3   OH214384   4.366   1.473   4.409
 4793TIP3    H114385   4.402   1.562   4.402
 4793TIP3    H214386   4.303   1.479   4.481
 4794TIP3   OH214387   1.978   3.935   5.091
 4794TIP3    H114388   1.893   3.972   5.116
 4794TIP3    H214389   1.958   3.847   5.061
 4795TIP3   OH214390   3.060   4.955   0.288
 4795TIP3    H114391   3.030   4.975   0.199
 4795TIP3    H214392   2.996   4.890   0.320
 4796TIP3   OH214393   1.844   2.568   3.101
 4796TIP3    H114394   1.920   2.594   3.049
 4796TIP3    H214395   1.798   2.505   3.046
 4797TIP3   OH214396   6.200   4.595   3.802
 4797TIP3    H114397   6.213   4.502   3.818
 4797TIP3    H214398   6.263   4.639   3.859
 4798TIP3   OH214399   0.384   1.276   0.331
 4798TIP3    H114400   0.396   1.190   0.372
 4798TIP3    H214401   0.309   1.265   0.273
 4799TIP3   OH214402   0.189   5.064   1.080
 4799TIP3    H114403   0.101   5.101   1.081
 4799TIP3    H214404   0.245   5.137   1.051
 4800TIP3   OH214405   4.169   0.364   2.108
 4800TIP3    H114406   4.120   0.425   2.053
 4800TIP3    H214407   4.155   0.278   2.068
 4801TIP3   OH214408   5.690   4.989   3.079
 4801TIP3    H114409   5.682   5.075   3.119
 4801TIP3    H214410   5.751   5.001   3.006
 4802TIP3   OH214411   0.677   2.193   3.838
 4802TIP3    H114412   0.584   2.200   3.857
 4802TIP3    H214413   0.689   2.237   3.754
 4803TIP3   OH214414   2.244   5.711   5.118
 4803TIP3    H114415   2.173   5.693   5.180
 4803TIP3    H214416   2.294   5.782   5.158
 4804TIP3   OH214417   3.271   5.508   3.247
 4804TIP3    H114418   3.197   5.505   3.186
 4804TIP3    H214419   3.327   5.436   3.220
 4805TIP3   OH214420   3.025   1.398   1.875
 4805TIP3    H114421   3.058   1.392   1.786
 4805TIP3    H214422   2.998   1.489   1.885
 4806TIP3   OH214423   5.832   3.761   4.149
 4806TIP3    H114424   5.870   3.849   4.138
 4806TIP3    H214425   5.850   3.717   4.066
 4807TIP3   OH214426   4.827   3.258   4.805
 4807TIP3    H114427   4.771   3.206   4.747
 4807TIP3    H214428   4.773   3.277   4.881
 4808TIP3   OH214429   2.060   2.330   1.573
 4808TIP3    H114430   2.086   2.375   1.492
 4808TIP3    H214431   1.996   2.265   1.544
 4809TIP3   OH214432   2.305   5.346   4.939
 4809TIP3    H114433   2.353   5.371   4.860
 4809TIP3    H214434   2.325   5.253   4.951
 4810TIP3   OH214435   4.709   5.490   2.509
 4810TIP3    H114436   4.678   5.515   2.596
 4810TIP3    H214437   4.645   5.426   2.478
 4811TIP3   OH214438   4.747   2.503   0.861
 4811TIP3    H114439   4.763   2.580   0.807
 4811TIP3    H214440   4.692   2.535   0.932
 4812TIP3   OH214441   3.070   1.173   2.570
 4812TIP3    H114442   3.003   1.189   2.636
 4812TIP3    H214443   3.150   1.210   2.608
 4813TIP3   OH214444   3.414   3.424   2.145
 4813TIP3    H114445   3.343   3.424   2.210
 4813TIP3    H214446   3.440   3.516   2.138
 4814TIP3   OH214447   4.572   3.590   1.284
 4814TIP3    H114448   4.593   3.638   1.204
 4814TIP3    H214449   4.575   3.656   1.353
 4815TIP3   OH214450   3.294   0.820   1.841
 4815TIP3    H114451   3.345   0.748   1.806
 4815TIP3    H214452   3.322   0.896   1.789
 4816TIP3   OH214453   4.185   3.801   4.784
 4816TIP3    H114454   4.148   3.863   4.721
 4816TIP3    H214455   4.109   3.755   4.819
 4817TIP3   OH214456   1.657   4.971   2.287
 4817TIP3    H114457   1.638   5.065   2.287
 4817TIP3    H214458   1.753   4.966   2.282
 4818TIP3   OH214459   0.080   1.692   1.257
 4818TIP3    H114460   0.137   1.682   1.333
 4818TIP3    H214461  -0.009   1.677   1.292
 4819TIP3   OH214462   3.889   1.038   1.869
 4819TIP3    H114463   3.841   0.956   1.868
 4819TIP3    H214464   3.976   1.017   1.834
 4820TIP3   OH214465   2.614   4.759   3.157
 4820TIP3    H114466   2.593   4.834   3.100
 4820TIP3    H214467   2.554   4.767   3.230
 4821TIP3   OH214468   3.450   4.031   1.687
 4821TIP3    H114469   3.445   4.060   1.596
 4821TIP3    H214470   3.410   3.944   1.687
 4822TIP3   OH214471   3.570   4.218   2.189
 4822TIP3    H114472   3.628   4.188   2.259
 4822TIP3    H214473   3.483   4.221   2.230
 4823TIP3   OH214474   4.863   5.967   3.222
 4823TIP3    H114475   4.934   5.903   3.222
 4823TIP3    H214476   4.872   6.012   3.306
 4824TIP3   OH214477   1.659   0.374   1.855
 4824TIP3    H114478   1.735   0.403   1.906
 4824TIP3    H214479   1.694   0.357   1.767
 4825TIP3   OH214480   0.272   4.066   0.023
 4825TIP3    H114481   0.298   4.027  -0.060
 4825TIP3    H214482   0.351   4.059   0.078
 4826TIP3   OH214483   4.335   5.531   2.186
 4826TIP3    H114484   4.297   5.549   2.100
 4826TIP3    H214485   4.261   5.503   2.240
 4827TIP3   OH214486   2.147   0.674   1.744
 4827TIP3    H114487   2.053   0.694   1.742
 4827TIP3    H214488   2.178   0.712   1.826
 4828TIP3   OH214489   4.531   5.782   0.857
 4828TIP3    H114490   4.566   5.832   0.930
 4828TIP3    H214491   4.493   5.703   0.897
 4829TIP3   OH214492   0.216   2.818   0.480
 4829TIP3    H114493   0.300   2.793   0.520
 4829TIP3    H214494   0.176   2.735   0.456
 4830TIP3   OH214495   5.337   3.514   3.535
 4830TIP3    H114496   5.284   3.523   3.615
 4830TIP3    H214497   5.382   3.430   3.546
 4831TIP3   OH214498   5.965   5.603   0.528
 4831TIP3    H114499   5.871   5.621   0.521
 4831TIP3    H214500   6.007   5.674   0.479
 4832TIP3   OH214501   3.318   2.983   1.122
 4832TIP3    H114502   3.393   2.925   1.110
 4832TIP3    H214503   3.302   3.019   1.034
 4833TIP3   OH214504   0.471   0.044   4.480
 4833TIP3    H114505   0.493   0.025   4.571
 4833TIP3    H214506   0.384   0.005   4.469
 4834TIP3   OH214507   1.672   1.544   3.276
 4834TIP3    H114508   1.634   1.574   3.193
 4834TIP3    H214509   1.684   1.450   3.264
 4835TIP3   OH214510   3.669   1.613   1.617
 4835TIP3    H114511   3.590   1.611   1.672
 4835TIP3    H214512   3.704   1.524   1.623
 4836TIP3   OH214513   4.091   1.150   2.891
 4836TIP3    H114514   4.024   1.191   2.837
 4836TIP3    H214515   4.048   1.135   2.976
 4837TIP3   OH214516   6.210   4.904   5.112
 4837TIP3    H114517   6.155   4.981   5.097
 4837TIP3    H214518   6.162   4.832   5.072
 4838TIP3   OH214519   1.114   0.934   1.349
 4838TIP3    H114520   1.090   0.851   1.391
 4838TIP3    H214521   1.073   1.001   1.402
 4839TIP3   OH214522   6.300   2.686   0.128
 4839TIP3    H114523   6.361   2.676   0.201
 4839TIP3    H214524   6.254   2.768   0.148
 4840TIP3   OH214525   5.384   2.498   4.202
 4840TIP3    H114526   5.327   2.444   4.257
 4840TIP3    H214527   5.329   2.522   4.127
 4841TIP3   OH214528   2.428   2.392   4.414
 4841TIP3    H114529   2.399   2.380   4.323
 4841TIP3    H214530   2.360   2.447   4.454
 4842TIP3   OH214531   2.052   1.770   0.307
 4842TIP3    H114532   2.014   1.806   0.227
 4842TIP3    H214533   2.043   1.840   0.372
 4843TIP3   OH214534   5.240   3.984   2.933
 4843TIP3    H114535   5.158   4.027   2.957
 4843TIP3    H214536   5.234   3.970   2.839
 4844TIP3   OH214537   2.172   4.333   1.870
 4844TIP3    H114538   2.126   4.397   1.925
 4844TIP3    H214539   2.231   4.287   1.930
 4845TIP3   OH214540   1.709   5.816   1.827
 4845TIP3    H114541   1.777   5.755   1.853
 4845TIP3    H214542   1.638   5.802   1.891
 4846TIP3   OH214543   0.268   0.293   2.858
 4846TIP3    H114544   0.315   0.212   2.837
 4846TIP3    H214545   0.191   0.264   2.907
 4847TIP3   OH214546   4.890   4.583   2.837
 4847TIP3    H114547   4.908   4.646   2.906
 4847TIP3    H214548   4.975   4.569   2.795
 4848TIP3   OH214549   3.589   5.834   4.143
 4848TIP3    H114550   3.639   5.904   4.184
 4848TIP3    H214551   3.644   5.757   4.150
 4849TIP3   OH214552   0.465   4.967   1.434
 4849TIP3    H114553   0.477   5.018   1.354
 4849TIP3    H214554   0.376   4.987   1.462
 4850TIP3   OH214555   2.557   2.107   3.036
 4850TIP3    H114556   2.476   2.102   2.984
 4850TIP3    H214557   2.617   2.157   2.980
 4851TIP3   OH214558   2.164   4.153   0.480
 4851TIP3    H114559   2.131   4.242   0.466
 4851TIP3    H214560   2.244   4.148   0.428
 4852TIP3   OH214561   2.528   2.856   1.870
 4852TIP3    H114562   2.552   2.789   1.806
 4852TIP3    H214563   2.533   2.938   1.823
 4853TIP3   OH214564   2.264   1.499   4.315
 4853TIP3    H114565   2.341   1.500   4.258
 4853TIP3    H214566   2.237   1.591   4.319
 4854TIP3   OH214567   3.411   5.721   2.162
 4854TIP3    H114568   3.436   5.812   2.143
 4854TIP3    H214569   3.456   5.670   2.095
 4855TIP3   OH214570   3.406   5.874   0.839
 4855TIP3    H114571   3.405   5.883   0.934
 4855TIP3    H214572   3.325   5.918   0.810
 4856TIP3   OH214573   5.054   0.996   2.909
 4856TIP3    H114574   5.002   1.022   2.833
 4856TIP3    H214575   5.000   1.016   2.985
 4857TIP3   OH214576   0.220   1.178   1.516
 4857TIP3    H114577   0.134   1.219   1.526
 4857TIP3    H214578   0.202   1.084   1.524
 4858TIP3   OH214579   4.174   3.951   3.168
 4858TIP3    H114580   4.139   3.862   3.168
 4858TIP3    H214581   4.204   3.965   3.078
 4859TIP3   OH214582   3.587   0.683   4.887
 4859TIP3    H114583   3.530   0.609   4.905
 4859TIP3    H214584   3.665   0.645   4.847
 4860TIP3   OH214585   0.668   4.733   2.792
 4860TIP3    H114586   0.635   4.646   2.812
 4860TIP3    H214587   0.592   4.779   2.755
 4861TIP3   OH214588   4.777   4.945   2.245
 4861TIP3    H114589   4.743   5.012   2.186
 4861TIP3    H214590   4.864   4.925   2.211
 4862TIP3   OH214591   2.112   2.370   2.428
 4862TIP3    H114592   2.177   2.331   2.369
 4862TIP3    H214593   2.164   2.423   2.489
 4863TIP3   OH214594   0.360   2.905   0.000
 4863TIP3    H114595   0.362   2.941  -0.089
 4863TIP3    H214596   0.334   2.979   0.055
 4864TIP3   OH214597   5.531   2.495   0.084
 4864TIP3    H114598   5.491   2.581   0.076
 4864TIP3    H214599   5.625   2.512   0.087
 4865TIP3   OH214600   1.718   1.346   0.692
 4865TIP3    H114601   1.719   1.281   0.762
 4865TIP3    H214602   1.627   1.350   0.663
 4866TIP3   OH214603   5.130   4.540   2.714
 4866TIP3    H114604   5.151   4.453   2.746
 4866TIP3    H214605   5.185   4.599   2.765
 4867TIP3   OH214606  -0.034   4.087   0.022
 4867TIP3    H114607   0.060   4.074   0.010
 4867TIP3    H214608  -0.058   4.152  -0.044
 4868TIP3   OH214609   2.857   5.913   0.954
 4868TIP3    H114610   2.896   5.912   1.041
 4868TIP3    H214611   2.778   5.967   0.963
 4869TIP3   OH214612   2.895   4.936   3.928
 4869TIP3    H114613   2.843   5.014   3.910
 4869TIP3    H214614   2.908   4.936   4.023
 4870TIP3   OH214615   4.156   4.398   0.709
 4870TIP3    H114616   4.237   4.354   0.733
 4870TIP3    H214617   4.137   4.367   0.620
 4871TIP3   OH214618   5.861   4.703   2.432
 4871TIP3    H114619   5.902   4.722   2.516
 4871TIP3    H214620   5.931   4.713   2.367
 4872TIP3   OH214621   1.268   3.269   1.965
 4872TIP3    H114622   1.333   3.338   1.953
 4872TIP3    H214623   1.245   3.272   2.057
 4873TIP3   OH214624   2.478   2.430   3.258
 4873TIP3    H114625   2.393   2.411   3.220
 4873TIP3    H214626   2.458   2.473   3.341
 4874TIP3   OH214627   0.069   5.992   1.987
 4874TIP3    H114628   0.065   6.031   2.075
 4874TIP3    H214629   0.132   5.921   1.996
 4875TIP3   OH214630   3.921   5.877   1.668
 4875TIP3    H114631   3.892   5.796   1.711
 4875TIP3    H214632   3.999   5.851   1.619
 4876TIP3   OH214633   1.441   0.946   3.297
 4876TIP3    H114634   1.523   0.944   3.347
 4876TIP3    H214635   1.432   1.038   3.271
 4877TIP3   OH214636   0.546   1.984   1.746
 4877TIP3    H114637   0.577   2.011   1.660
 4877TIP3    H214638   0.452   1.971   1.736
 4878TIP3   OH214639   0.848   3.448   2.391
 4878TIP3    H114640   0.898   3.379   2.435
 4878TIP3    H214641   0.817   3.504   2.462
 4879TIP3   OH214642   5.123   0.298   2.283
 4879TIP3    H114643   5.209   0.315   2.244
 4879TIP3    H214644   5.128   0.207   2.312
 4880TIP3   OH214645   0.157   3.874   1.978
 4880TIP3    H114646   0.204   3.933   2.036
 4880TIP3    H214647   0.206   3.792   1.982
 4881TIP3   OH214648   6.039   4.650   3.031
 4881TIP3    H114649   5.973   4.642   2.962
 4881TIP3    H214650   6.020   4.734   3.072
 4882TIP3   OH214651   1.701   3.895   2.839
 4882TIP3    H114652   1.736   3.819   2.886
 4882TIP3    H214653   1.606   3.890   2.853
 4883TIP3   OH214654   0.077   0.797   0.177
 4883TIP3    H114655   0.070   0.703   0.160
 4883TIP3    H214656   0.112   0.803   0.266
 4884TIP3   OH214657   2.159   0.915   3.367
 4884TIP3    H114658   2.201   0.852   3.426
 4884TIP3    H214659   2.088   0.952   3.419
 4885TIP3   OH214660   6.233   1.429   2.468
 4885TIP3    H114661   6.299   1.376   2.513
 4885TIP3    H214662   6.188   1.367   2.410
 4886TIP3   OH214663   0.691   2.513   2.885
 4886TIP3    H114664   0.677   2.522   2.791
 4886TIP3    H214665   0.776   2.553   2.901
 4887TIP3   OH214666   2.860   2.879   2.525
 4887TIP3    H114667   2.912   2.799   2.530
 4887TIP3    H214668   2.813   2.872   2.442
 4888TIP3   OH214669   4.050   2.867   2.154
 4888TIP3    H114670   4.081   2.793   2.207
 4888TIP3    H214671   4.067   2.841   2.064
 4889TIP3   OH214672   2.976   3.041   3.744
 4889TIP3    H114673   2.991   2.951   3.716
 4889TIP3    H214674   2.974   3.092   3.662
 4890TIP3   OH214675   1.823   4.101   2.714
 4890TIP3    H114676   1.756   4.169   2.719
 4890TIP3    H214677   1.779   4.022   2.745
 4891TIP3   OH214678   3.149   5.201   0.088
 4891TIP3    H114679   3.114   5.139   0.024
 4891TIP3    H214680   3.074   5.253   0.114
 4892TIP3   OH214681   2.006   4.884   0.197
 4892TIP3    H114682   1.990   4.977   0.186
 4892TIP3    H214683   2.047   4.876   0.283
 4893TIP3   OH214684   4.480   3.535   0.894
 4893TIP3    H114685   4.480   3.504   0.804
 4893TIP3    H214686   4.560   3.498   0.932
 4894TIP3   OH214687   4.753   0.536   4.078
 4894TIP3    H114688   4.678   0.480   4.059
 4894TIP3    H214689   4.798   0.494   4.151
 4895TIP3   OH214690   2.274   3.426   1.140
 4895TIP3    H114691   2.260   3.497   1.078
 4895TIP3    H214692   2.306   3.469   1.219
 4896TIP3   OH214693   1.359   4.311   4.528
 4896TIP3    H114694   1.327   4.394   4.563
 4896TIP3    H214695   1.282   4.255   4.526
 4897TIP3   OH214696   1.451   0.900   0.062
 4897TIP3    H114697   1.453   0.865  -0.027
 4897TIP3    H214698   1.493   0.832   0.115
 4898TIP3   OH214699   2.477   1.086   4.678
 4898TIP3    H114700   2.560   1.038   4.684
 4898TIP3    H214701   2.501   1.177   4.696
 4899TIP3   OH214702   3.644   1.081   3.612
 4899TIP3    H114703   3.676   1.098   3.523
 4899TIP3    H214704   3.578   1.148   3.627
 4900TIP3   OH214705   6.268   5.715   0.585
 4900TIP3    H114706   6.277   5.700   0.679
 4900TIP3    H214707   6.194   5.775   0.577
 4901TIP3   OH214708   3.586   1.243   2.984
 4901TIP3    H114709   3.576   1.255   2.889
 4901TIP3    H214710   3.562   1.152   2.999
 4902TIP3   OH214711   5.856   3.953   1.168
 4902TIP3    H114712   5.824   4.041   1.146
 4902TIP3    H214713   5.945   3.968   1.199
 4903TIP3   OH214714   1.765   1.595   3.783
 4903TIP3    H114715   1.796   1.597   3.693
 4903TIP3    H214716   1.702   1.522   3.784
 4904TIP3   OH214717   6.191   3.412   3.744
 4904TIP3    H114718   6.282   3.422   3.715
 4904TIP3    H214719   6.192   3.332   3.798
 4905TIP3   OH214720   3.888   0.726   1.501
 4905TIP3    H114721   3.964   0.735   1.443
 4905TIP3    H214722   3.860   0.635   1.490
 4906TIP3   OH214723   3.875   3.689   0.187
 4906TIP3    H114724   3.819   3.717   0.115
 4906TIP3    H214725   3.893   3.597   0.170
 4907TIP3   OH214726   5.584   1.035   1.831
 4907TIP3    H114727   5.575   1.027   1.736
 4907TIP3    H214728   5.555   1.124   1.851
 4908TIP3   OH214729   4.140   3.934   3.450
 4908TIP3    H114730   4.134   4.018   3.404
 4908TIP3    H214731   4.223   3.896   3.421
 4909TIP3   OH214732   1.421   0.704   1.861
 4909TIP3    H114733   1.390   0.615   1.843
 4909TIP3    H214734   1.419   0.748   1.777
 4910TIP3   OH214735   5.397   3.593   4.510
 4910TIP3    H114736   5.382   3.621   4.601
 4910TIP3    H214737   5.352   3.658   4.457
 4911TIP3   OH214738   4.313   4.999   1.322
 4911TIP3    H114739   4.360   5.071   1.281
 4911TIP3    H214740   4.221   5.023   1.314
 4912TIP3   OH214741   1.010   5.481   2.159
 4912TIP3    H114742   1.045   5.506   2.073
 4912TIP3    H214743   0.981   5.564   2.197
 4913TIP3   OH214744   0.347   4.882   0.223
 4913TIP3    H114745   0.277   4.947   0.219
 4913TIP3    H214746   0.348   4.843   0.136
 4914TIP3   OH214747   0.489   5.250   2.355
 4914TIP3    H114748   0.579   5.217   2.365
 4914TIP3    H214749   0.466   5.228   2.265
 4915TIP3   OH214750   3.938   4.832   4.882
 4915TIP3    H114751   3.908   4.917   4.850
 4915TIP3    H214752   3.932   4.838   4.977
 4916TIP3   OH214753   5.722   0.584   1.984
 4916TIP3    H114754   5.657   0.583   1.914
 4916TIP3    H214755   5.708   0.501   2.030
 4917TIP3   OH214756   3.983   1.004   4.753
 4917TIP3    H114757   3.899   0.962   4.766
 4917TIP3    H214758   4.032   0.944   4.697
 4918TIP3   OH214759   1.627   4.624   0.391
 4918TIP3    H114760   1.626   4.649   0.484
 4918TIP3    H214761   1.535   4.621   0.366
 4919TIP3   OH214762   1.588   5.388   4.087
 4919TIP3    H114763   1.516   5.328   4.068
 4919TIP3    H214764   1.653   5.369   4.019
 4920TIP3   OH214765   5.851   2.426   3.104
 4920TIP3    H114766   5.814   2.480   3.174
 4920TIP3    H214767   5.946   2.433   3.117
 4921TIP3   OH214768   4.440   0.060   4.761
 4921TIP3    H114769   4.357   0.107   4.770
 4921TIP3    H214770   4.476   0.056   4.849
 4922TIP3   OH214771   3.614   4.550   1.768
 4922TIP3    H114772   3.589   4.461   1.793
 4922TIP3    H214773   3.654   4.541   1.682
 4923TIP3   OH214774   0.174   2.135   0.189
 4923TIP3    H114775   0.125   2.120   0.270
 4923TIP3    H214776   0.138   2.217   0.155
 4924TIP3   OH214777   1.162   2.381   2.611
 4924TIP3    H114778   1.139   2.316   2.545
 4924TIP3    H214779   1.251   2.408   2.589
 4925TIP3   OH214780   4.913   0.859   1.519
 4925TIP3    H114781   4.925   0.793   1.451
 4925TIP3    H214782   4.856   0.818   1.584
 4926TIP3   OH214783   4.425   0.128   1.284
 4926TIP3    H114784   4.346   0.182   1.295
 4926TIP3    H214785   4.428   0.108   1.190
 4927TIP3   OH214786   6.235   2.696   2.192
 4927TIP3    H114787   6.192   2.713   2.276
 4927TIP3    H214788   6.215   2.774   2.140
 4928TIP3   OH214789   0.834   5.234   0.546
 4928TIP3    H114790   0.852   5.321   0.581
 4928TIP3    H214791   0.874   5.174   0.610
 4929TIP3   OH214792   1.938   1.428   1.208
 4929TIP3    H114793   1.860   1.377   1.232
 4929TIP3    H214794   1.966   1.391   1.125
 4930TIP3   OH214795   2.220   0.345   0.714
 4930TIP3    H114796   2.242   0.388   0.797
 4930TIP3    H214797   2.169   0.268   0.740
 4931TIP3   OH214798   5.527   1.533   3.204
 4931TIP3    H114799   5.528   1.565   3.294
 4931TIP3    H214800   5.557   1.607   3.152
 4932TIP3   OH214801   2.666   3.809   3.229
 4932TIP3    H114802   2.587   3.819   3.176
 4932TIP3    H214803   2.653   3.869   3.303
 4933TIP3   OH214804   4.707   3.958   4.392
 4933TIP3    H114805   4.738   3.962   4.482
 4933TIP3    H214806   4.612   3.949   4.399
 4934TIP3   OH214807   5.306   2.656   3.955
 4934TIP3    H114808   5.254   2.621   3.883
 4934TIP3    H214809   5.259   2.735   3.982
 4935TIP3   OH214810   5.187   1.868   5.250
 4935TIP3    H114811   5.154   1.945   5.205
 4935TIP3    H214812   5.161   1.795   5.194
 4936TIP3   OH214813   3.771   5.724   4.560
 4936TIP3    H114814   3.789   5.817   4.549
 4936TIP3    H214815   3.676   5.716   4.550
 4937TIP3   OH214816   1.448   4.533   3.650
 4937TIP3    H114817   1.503   4.598   3.605
 4937TIP3    H214818   1.413   4.479   3.580
 4938TIP3   OH214819   2.112   1.922   2.722
 4938TIP3    H114820   2.060   1.842   2.714
 4938TIP3    H214821   2.109   1.960   2.634
 4939TIP3   OH214822   5.391   4.387   1.548
 4939TIP3    H114823   5.424   4.475   1.529
 4939TIP3    H214824   5.428   4.331   1.480
 4940TIP3   OH214825   4.597   4.342   1.346
 4940TIP3    H114826   4.521   4.400   1.351
 4940TIP3    H214827   4.670   4.394   1.381
 4941TIP3   OH214828   4.727   2.065   3.596
 4941TIP3    H114829   4.812   2.036   3.565
 4941TIP3    H214830   4.724   2.159   3.575
 4942TIP3   OH214831   0.228   3.616   3.044
 4942TIP3    H114832   0.297   3.551   3.061
 4942TIP3    H214833   0.158   3.593   3.105
 4943TIP3   OH214834   4.310   2.808   1.245
 4943TIP3    H114835   4.299   2.726   1.293
 4943TIP3    H214836   4.339   2.871   1.311
 4944TIP3   OH214837   1.327   4.257   1.685
 4944TIP3    H114838   1.268   4.184   1.706
 4944TIP3    H214839   1.413   4.226   1.713
 4945TIP3   OH214840   0.862   4.469   4.190
 4945TIP3    H114841   0.952   4.491   4.214
 4945TIP3    H214842   0.857   4.374   4.201
 4946TIP3   OH214843   5.006   0.291   4.254
 4946TIP3    H114844   4.958   0.268   4.175
 4946TIP3    H214845   5.021   0.207   4.299
 4947TIP3   OH214846   2.493   2.143   3.324
 4947TIP3    H114847   2.547   2.134   3.245
 4947TIP3    H214848   2.477   2.237   3.330
 4948TIP3   OH214849   3.561   3.916   4.268
 4948TIP3    H114850   3.593   4.005   4.264
 4948TIP3    H214851   3.586   3.877   4.184
 4949TIP3   OH214852   3.817   3.499   1.767
 4949TIP3    H114853   3.792   3.411   1.742
 4949TIP3    H214854   3.736   3.541   1.796
 4950TIP3   OH214855   2.968   0.708   1.134
 4950TIP3    H114856   3.031   0.693   1.205
 4950TIP3    H214857   3.018   0.754   1.067
 4951TIP3   OH214858   2.859   4.427   0.651
 4951TIP3    H114859   2.764   4.417   0.658
 4951TIP3    H214860   2.889   4.426   0.742
 4952TIP3   OH214861   3.047   1.782   2.174
 4952TIP3    H114862   3.033   1.741   2.089
 4952TIP3    H214863   3.019   1.717   2.238
 4953TIP3   OH214864   4.317   0.752   4.341
 4953TIP3    H114865   4.368   0.711   4.271
 4953TIP3    H214866   4.251   0.686   4.363
 4954TIP3   OH214867   3.948   4.896   2.183
 4954TIP3    H114868   3.872   4.844   2.159
 4954TIP3    H214869   4.007   4.888   2.107
 4955TIP3   OH214870   3.647   1.965   0.043
 4955TIP3    H114871   3.574   1.930   0.095
 4955TIP3    H214872   3.717   1.901   0.056
 4956TIP3   OH214873   3.028   1.545   2.331
 4956TIP3    H114874   3.088   1.539   2.405
 4956TIP3    H214875   3.061   1.480   2.268
 4957TIP3   OH214876   5.421   4.559   3.878
 4957TIP3    H114877   5.357   4.498   3.915
 4957TIP3    H214878   5.440   4.620   3.950
 4958TIP3   OH214879   1.707   5.260   3.561
 4958TIP3    H114880   1.737   5.178   3.600
 4958TIP3    H214881   1.690   5.239   3.469
 4959TIP3   OH214882   5.069   3.779   2.432
 4959TIP3    H114883   5.149   3.727   2.425
 4959TIP3    H214884   5.005   3.731   2.379
 4960TIP3   OH214885   3.097   3.467   3.230
 4960TIP3    H114886   3.132   3.379   3.248
 4960TIP3    H214887   3.003   3.460   3.248
 4961TIP3   OH214888   0.771   3.532   4.939
 4961TIP3    H114889   0.767   3.444   4.975
 4961TIP3    H214890   0.680   3.554   4.919
 4962TIP3   OH214891   1.633   4.578   4.246
 4962TIP3    H114892   1.657   4.625   4.325
 4962TIP3    H214893   1.715   4.540   4.214
 4963TIP3   OH214894   1.678   3.261   2.087
 4963TIP3    H114895   1.635   3.333   2.135
 4963TIP3    H214896   1.639   3.264   2.000
 4964TIP3   OH214897   0.366   3.789   2.434
 4964TIP3    H114898   0.439   3.730   2.416
 4964TIP3    H214899   0.316   3.745   2.503
 4965TIP3   OH214900   4.293   6.012   0.541
 4965TIP3    H114901   4.243   5.934   0.515
 4965TIP3    H214902   4.381   5.979   0.558
 4966TIP3   OH214903   3.940   5.874   3.633
 4966TIP3    H114904   3.892   5.875   3.550
 4966TIP3    H214905   4.006   5.943   3.623
 4967TIP3   OH214906   4.697   2.236   2.121
 4967TIP3    H114907   4.618   2.240   2.067
 4967TIP3    H214908   4.766   2.209   2.060
 4968TIP3   OH214909   4.270   3.632   1.348
 4968TIP3    H114910   4.357   3.621   1.387
 4968TIP3    H214911   4.227   3.696   1.405
 4969TIP3   OH214912   1.380   2.689   1.495
 4969TIP3    H114913   1.421   2.675   1.410
 4969TIP3    H214914   1.308   2.626   1.498
 4970TIP3   OH214915   2.173   4.275   1.095
 4970TIP3    H114916   2.175   4.180   1.108
 4970TIP3    H214917   2.173   4.311   1.184
 4971TIP3   OH214918   4.470   1.659   4.060
 4971TIP3    H114919   4.471   1.682   3.968
 4971TIP3    H214920   4.389   1.608   4.072
 4972TIP3   OH214921   1.435   4.975   1.098
 4972TIP3    H114922   1.489   5.020   1.033
 4972TIP3    H214923   1.346   5.005   1.082
 4973TIP3   OH214924   1.758   1.651   4.535
 4973TIP3    H114925   1.743   1.580   4.472
 4973TIP3    H214926   1.823   1.615   4.596
 4974TIP3   OH214927   5.639   1.819   0.116
 4974TIP3    H114928   5.590   1.879   0.172
 4974TIP3    H214929   5.713   1.791   0.169
 4975TIP3   OH214930   4.020   3.704   3.233
 4975TIP3    H114931   3.933   3.665   3.245
 4975TIP3    H214932   4.056   3.660   3.155
 4976TIP3   OH214933   4.586   3.888   3.104
 4976TIP3    H114934   4.659   3.899   3.165
 4976TIP3    H214935   4.614   3.815   3.047
 4977TIP3   OH214936   0.949   4.016   3.381
 4977TIP3    H114937   1.039   4.048   3.381
 4977TIP3    H214938   0.957   3.921   3.372
 4978TIP3   OH214939   3.979   1.603   1.044
 4978TIP3    H114940   4.072   1.626   1.043
 4978TIP3    H214941   3.969   1.546   1.120
 4979TIP3   OH214942   0.386   1.386   2.915
 4979TIP3    H114943   0.402   1.479   2.930
 4979TIP3    H214944   0.290   1.377   2.916
 4980TIP3   OH214945   0.307   2.830   4.547
 4980TIP3    H114946   0.392   2.804   4.584
 4980TIP3    H214947   0.297   2.922   4.572
 4981TIP3   OH214948   4.017   0.350   4.700
 4981TIP3    H114949   3.951   0.330   4.766
 4981TIP3    H214950   4.036   0.265   4.658
 4982TIP3   OH214951   5.766   2.330   4.844
 4982TIP3    H114952   5.788   2.275   4.769
 4982TIP3    H214953   5.690   2.381   4.815
 4983TIP3   OH214954   1.501   3.684   2.662
 4983TIP3    H114955   1.474   3.742   2.733
 4983TIP3    H214956   1.590   3.711   2.641
 4984TIP3   OH214957   0.616   2.826   4.467
 4984TIP3    H114958   0.659   2.755   4.420
 4984TIP3    H214959   0.581   2.785   4.546
 4985TIP3   OH214960   2.477   2.004   0.207
 4985TIP3    H114961   2.465   2.060   0.284
 4985TIP3    H214962   2.442   1.919   0.233
 4986TIP3   OH214963   5.624   3.205   1.529
 4986TIP3    H114964   5.606   3.282   1.583
 4986TIP3    H214965   5.710   3.222   1.491
 4987TIP3   OH214966   4.791   4.716   4.764
 4987TIP3    H114967   4.751   4.803   4.770
 4987TIP3    H214968   4.861   4.716   4.829
 4988TIP3   OH214969   3.108   1.595   3.336
 4988TIP3    H114970   3.101   1.659   3.265
 4988TIP3    H214971   3.202   1.579   3.345
 4989TIP3   OH214972   4.103   4.763   1.494
 4989TIP3    H114973   4.174   4.815   1.532
 4989TIP3    H214974   4.108   4.782   1.400
 4990TIP3   OH214975   4.597   1.066   1.011
 4990TIP3    H114976   4.551   0.982   1.012
 4990TIP3    H214977   4.527   1.132   1.016
 4991TIP3   OH214978   4.610   2.676   4.116
 4991TIP3    H114979   4.649   2.683   4.029
 4991TIP3    H214980   4.592   2.766   4.142
 4992TIP3   OH214981   5.214   0.192   4.901
 4992TIP3    H114982   5.303   0.210   4.872
 4992TIP3    H214983   5.172   0.278   4.905
 4993TIP3   OH214984   4.504   2.006   0.962
 4993TIP3    H114985   4.581   2.055   0.932
 4993TIP3    H214986   4.519   1.992   1.056
 4994TIP3   OH214987   2.595   5.044   0.433
 4994TIP3    H114988   2.511   5.087   0.417
 4994TIP3    H214989   2.643   5.105   0.488
 4995TIP3   OH214990   3.102   4.919   0.744
 4995TIP3    H114991   3.050   4.873   0.678
 4995TIP3    H214992   3.038   4.955   0.804
 4996TIP3   OH214993   0.555   5.872   2.842
 4996TIP3    H114994   0.553   5.933   2.915
 4996TIP3    H214995   0.578   5.788   2.882
 4997TIP3   OH214996   5.163   2.500   0.531
 4997TIP3    H114997   5.178   2.462   0.444
 4997TIP3    H214998   5.096   2.566   0.517
 4998TIP3   OH214999   3.189   1.359   1.029
 4998TIP3    H115000   3.131   1.405   0.968
 4998TIP3    H215001   3.275   1.396   1.012
 4999TIP3   OH215002   3.526   0.935   4.601
 4999TIP3    H115003   3.474   0.980   4.667
 4999TIP3    H215004   3.462   0.894   4.544
 5000TIP3   OH215005   5.650   5.788   4.799
 5000TIP3    H115006   5.639   5.814   4.890
 5000TIP3    H215007   5.564   5.802   4.760
 5001TIP3   OH215008   0.546   1.852   4.936
 5001TIP3    H115009   0.523   1.924   4.995
 5001TIP3    H215010   0.509   1.774   4.977
 5002TIP3   OH215011   0.782   5.814   3.481
 5002TIP3    H115012   0.749   5.880   3.420
 5002TIP3    H215013   0.850   5.859   3.531
 5003TIP3   OH215014   4.631   3.354   4.023
 5003TIP3    H115015   4.645   3.443   4.055
 5003TIP3    H215016   4.561   3.319   4.078
 5004TIP3   OH215017   0.753   2.170   2.727
 5004TIP3    H115018   0.728   2.242   2.669
 5004TIP3    H215019   0.728   2.091   2.680
 5005TIP3   OH215020   1.416   4.233   1.176
 5005TIP3    H115021   1.457   4.318   1.163
 5005TIP3    H215022   1.324   4.247   1.153
 5006TIP3   OH215023   0.816   2.933   0.802
 5006TIP3    H115024   0.883   2.995   0.774
 5006TIP3    H215025   0.735   2.966   0.763
 5007TIP3   OH215026   0.918   3.534   1.680
 5007TIP3    H115027   0.938   3.458   1.626
 5007TIP3    H215028   0.893   3.497   1.765
 5008TIP3   OH215029   3.471   3.035   3.807
 5008TIP3    H115030   3.433   3.086   3.878
 5008TIP3    H215031   3.555   3.004   3.841
 5009TIP3   OH215032   4.725   3.555   2.093
 5009TIP3    H115033   4.656   3.567   2.158
 5009TIP3    H215034   4.679   3.530   2.013
 5010TIP3   OH215035   4.413   2.028   1.916
 5010TIP3    H115036   4.380   2.077   1.840
 5010TIP3    H215037   4.460   2.093   1.968
 5011TIP3   OH215038   0.591   5.221   4.143
 5011TIP3    H115039   0.673   5.239   4.189
 5011TIP3    H215040   0.615   5.157   4.076
 5012TIP3   OH215041   2.475   5.937   3.432
 5012TIP3    H115042   2.558   5.973   3.464
 5012TIP3    H215043   2.496   5.848   3.404
 5013TIP3   OH215044   3.011   3.728   4.937
 5013TIP3    H115045   3.067   3.707   4.862
 5013TIP3    H215046   2.936   3.670   4.928
 5014TIP3   OH215047   4.118   3.050   4.496
 5014TIP3    H115048   4.173   3.058   4.419
 5014TIP3    H215049   4.103   2.955   4.505
 5015TIP3   OH215050   5.861   1.913   3.507
 5015TIP3    H115051   5.941   1.895   3.557
 5015TIP3    H215052   5.806   1.837   3.523
 5016TIP3   OH215053   5.456   0.343   0.710
 5016TIP3    H115054   5.476   0.291   0.788
 5016TIP3    H215055   5.526   0.321   0.648
 5017TIP3   OH215056   4.581   1.384   0.901
 5017TIP3    H115057   4.672   1.413   0.904
 5017TIP3    H215058   4.540   1.442   0.836
 5018TIP3   OH215059   1.232   2.832   3.387
 5018TIP3    H115060   1.251   2.862   3.476
 5018TIP3    H215061   1.142   2.802   3.390
 5019TIP3   OH215062   2.518   4.968   1.523
 5019TIP3    H115063   2.574   5.017   1.462
 5019TIP3    H215064   2.509   5.025   1.599
 5020TIP3   OH215065   2.138   4.777   2.013
 5020TIP3    H115066   2.090   4.697   1.992
 5020TIP3    H215067   2.223   4.747   2.045
 5021TIP3   OH215068   2.333   4.783   0.341
 5021TIP3    H115069   2.316   4.692   0.319
 5021TIP3    H215070   2.418   4.803   0.301
 5022TIP3   OH215071   4.378   4.618   3.215
 5022TIP3    H115072   4.440   4.629   3.286
 5022TIP3    H215073   4.432   4.594   3.139
 5023TIP3   OH215074   5.515   0.021   3.050
 5023TIP3    H115075   5.468   0.081   3.108
 5023TIP3    H215076   5.522  -0.060   3.101
 5024TIP3   OH215077   5.594   3.370   2.008
 5024TIP3    H115078   5.563   3.457   1.981
 5024TIP3    H215079   5.532   3.343   2.075
 5025TIP3   OH215080   4.567   3.814   1.147
 5025TIP3    H115081   4.476   3.805   1.177
 5025TIP3    H215082   4.588   3.906   1.164
 5026TIP3   OH215083   2.422   3.977   4.520
 5026TIP3    H115084   2.383   4.037   4.584
 5026TIP3    H215085   2.358   3.907   4.510
 5027TIP3   OH215086   3.926   3.316   0.664
 5027TIP3    H115087   3.863   3.355   0.724
 5027TIP3    H215088   3.873   3.266   0.603
 5028TIP3   OH215089   1.402   4.534   4.949
 5028TIP3    H115090   1.398   4.606   5.012
 5028TIP3    H215091   1.350   4.464   4.989
 5029TIP3   OH215092   5.757   1.230   2.857
 5029TIP3    H115093   5.716   1.240   2.943
 5029TIP3    H215094   5.760   1.135   2.843
 5030TIP3   OH215095   0.568   1.851   2.041
 5030TIP3    H115096   0.497   1.790   2.061
 5030TIP3    H215097   0.546   1.888   1.956
 5031TIP3   OH215098   3.424   5.927   4.441
 5031TIP3    H115099   3.500   5.978   4.414
 5031TIP3    H215100   3.459   5.843   4.470
 5032TIP3   OH215101   4.624   4.648   1.465
 5032TIP3    H115102   4.663   4.681   1.546
 5032TIP3    H215103   4.561   4.715   1.439
 5033TIP3   OH215104   1.142   3.426   0.597
 5033TIP3    H115105   1.147   3.521   0.590
 5033TIP3    H215106   1.132   3.410   0.691
 5034TIP3   OH215107   0.021   0.972   2.842
 5034TIP3    H115108   0.075   0.994   2.766
 5034TIP3    H215109  -0.017   0.887   2.821
 5035TIP3   OH215110   2.145   1.084   2.740
 5035TIP3    H115111   2.216   1.048   2.793
 5035TIP3    H215112   2.182   1.093   2.653
 5036TIP3   OH215113   4.947   2.114   4.750
 5036TIP3    H115114   4.940   2.166   4.830
 5036TIP3    H215115   4.953   2.024   4.781
 5037TIP3   OH215116   4.160   1.828   0.762
 5037TIP3    H115117   4.103   1.852   0.689
 5037TIP3    H215118   4.248   1.849   0.731
 5038TIP3   OH215119   5.784   3.110   4.426
 5038TIP3    H115120   5.845   3.157   4.483
 5038TIP3    H215121   5.838   3.041   4.386
 5039TIP3   OH215122   3.331   3.572   3.131
 5039TIP3    H115123   3.389   3.498   3.113
 5039TIP3    H215124   3.252   3.531   3.167
 5040TIP3   OH215125   2.741   3.647   1.538
 5040TIP3    H115126   2.709   3.568   1.493
 5040TIP3    H215127   2.661   3.690   1.569
 5041TIP3   OH215128   5.221   0.814   4.654
 5041TIP3    H115129   5.244   0.883   4.716
 5041TIP3    H215130   5.179   0.747   4.707
 5042TIP3   OH215131   0.057   2.165   0.437
 5042TIP3    H115132   0.037   2.162   0.531
 5042TIP3    H215133   0.124   2.232   0.429
 5043TIP3   OH215134   4.115   4.529   3.338
 5043TIP3    H115135   4.046   4.575   3.291
 5043TIP3    H215136   4.196   4.553   3.292
 5044TIP3   OH215137   1.716   3.302   3.521
 5044TIP3    H115138   1.760   3.340   3.597
 5044TIP3    H215139   1.747   3.211   3.518
 5045TIP3   OH215140   5.228   5.425   2.766
 5045TIP3    H115141   5.177   5.505   2.753
 5045TIP3    H215142   5.295   5.449   2.830
 5046TIP3   OH215143   4.583   3.534   4.609
 5046TIP3    H115144   4.491   3.557   4.603
 5046TIP3    H215145   4.622   3.602   4.664
 5047TIP3   OH215146   5.051   5.546   3.465
 5047TIP3    H115147   5.005   5.523   3.384
 5047TIP3    H215148   5.104   5.469   3.485
 5048TIP3   OH215149   1.718   1.301   4.143
 5048TIP3    H115150   1.762   1.247   4.077
 5048TIP3    H215151   1.625   1.290   4.125
 5049TIP3   OH215152   1.885   4.106   0.341
 5049TIP3    H115153   1.979   4.115   0.352
 5049TIP3    H215154   1.852   4.196   0.345
 5050TIP3   OH215155   1.507   3.082   2.237
 5050TIP3    H115156   1.544   3.167   2.261
 5050TIP3    H215157   1.498   3.035   2.321
 5051TIP3   OH215158   4.155   5.827   1.531
 5051TIP3    H115159   4.180   5.738   1.504
 5051TIP3    H215160   4.231   5.881   1.508
 5052TIP3   OH215161   2.430   5.084   4.556
 5052TIP3    H115162   2.380   5.146   4.609
 5052TIP3    H215163   2.414   5.112   4.466
 5053TIP3   OH215164   5.555   4.161   0.231
 5053TIP3    H115165   5.643   4.162   0.192
 5053TIP3    H215166   5.513   4.084   0.194
 5054TIP3   OH215167   4.664   1.726   1.368
 5054TIP3    H115168   4.720   1.710   1.444
 5054TIP3    H215169   4.692   1.812   1.337
 5055TIP3   OH215170   2.216  -0.001   4.436
 5055TIP3    H115171   2.128   0.023   4.407
 5055TIP3    H215172   2.202  -0.067   4.504
 5056TIP3   OH215173   4.624   0.663   1.546
 5056TIP3    H115174   4.655   0.713   1.621
 5056TIP3    H215175   4.582   0.585   1.584
 5057TIP3   OH215176   2.017   5.337   4.534
 5057TIP3    H115177   2.034   5.348   4.627
 5057TIP3    H215178   2.006   5.426   4.500
 5058TIP3   OH215179   3.801   4.992   3.118
 5058TIP3    H115180   3.807   5.063   3.054
 5058TIP3    H215181   3.837   4.916   3.072
 5059TIP3   OH215182   4.834   2.394   3.148
 5059TIP3    H115183   4.814   2.402   3.055
 5059TIP3    H215184   4.763   2.440   3.192
 5060TIP3   OH215185   4.910   3.670   0.491
 5060TIP3    H115186   4.896   3.684   0.584
 5060TIP3    H215187   4.944   3.580   0.485
 5061TIP3   OH215188   2.782   2.786   0.943
 5061TIP3    H115189   2.699   2.833   0.955
 5061TIP3    H215190   2.847   2.854   0.934
 5062TIP3   OH215191   0.029   1.888   0.306
 5062TIP3    H115192   0.095   1.885   0.375
 5062TIP3    H215193  -0.055   1.891   0.352
 5063TIP3   OH215194   6.163   2.812   3.606
 5063TIP3    H115195   6.207   2.879   3.658
 5063TIP3    H215196   6.225   2.739   3.604
 5064TIP3   OH215197  -0.010   2.561   3.564
 5064TIP3    H115198   0.086   2.568   3.558
 5064TIP3    H215199  -0.029   2.471   3.538
 5065TIP3   OH215200   3.708   2.393   3.461
 5065TIP3    H115201   3.679   2.447   3.535
 5065TIP3    H215202   3.700   2.451   3.385
 5066TIP3   OH215203   0.198   5.025   4.229
 5066TIP3    H115204   0.235   5.066   4.152
 5066TIP3    H215205   0.104   5.043   4.223
 5067TIP3   OH215206   5.131   1.368   4.985
 5067TIP3    H115207   5.212   1.401   5.024
 5067TIP3    H215208   5.106   1.435   4.922
 5068TIP3   OH215209   0.646   1.303   1.437
 5068TIP3    H115210   0.566   1.320   1.387
 5068TIP3    H215211   0.623   1.329   1.527
 5069TIP3   OH215212   4.260   1.985   4.024
 5069TIP3    H115213   4.189   1.945   4.073
 5069TIP3    H215214   4.281   1.922   3.955
 5070TIP3   OH215215   2.647   4.534   2.257
 5070TIP3    H115216   2.633   4.575   2.342
 5070TIP3    H215217   2.737   4.502   2.261
 5071TIP3   OH215218   5.010   0.044   1.493
 5071TIP3    H115219   4.961   0.126   1.498
 5071TIP3    H215220   4.952  -0.015   1.443
 5072TIP3   OH215221   3.202   3.020   0.635
 5072TIP3    H115222   3.140   3.036   0.564
 5072TIP3    H215223   3.168   3.070   0.709
 5073TIP3   OH215224   2.462   4.438   0.480
 5073TIP3    H115225   2.438   4.459   0.390
 5073TIP3    H215226   2.394   4.477   0.534
 5074TIP3   OH215227   2.652   3.769   5.099
 5074TIP3    H115228   2.680   3.743   5.186
 5074TIP3    H215229   2.703   3.848   5.080
 5075TIP3   OH215230   1.731   3.657   0.759
 5075TIP3    H115231   1.761   3.746   0.742
 5075TIP3    H215232   1.734   3.613   0.674
 5076TIP3   OH215233   2.767   1.424   4.126
 5076TIP3    H115234   2.763   1.493   4.193
 5076TIP3    H215235   2.857   1.393   4.129
 5077TIP3   OH215236   3.457   0.270   2.383
 5077TIP3    H115237   3.378   0.318   2.357
 5077TIP3    H215238   3.519   0.287   2.312
 5078TIP3   OH215239   5.686   5.939   3.344
 5078TIP3    H115240   5.605   5.951   3.294
 5078TIP3    H215241   5.749   5.998   3.302
 5079TIP3   OH215242   4.809   3.445   3.465
 5079TIP3    H115243   4.818   3.537   3.491
 5079TIP3    H215244   4.864   3.436   3.387
 5080TIP3   OH215245   3.614   5.177   2.722
 5080TIP3    H115246   3.702   5.199   2.754
 5080TIP3    H215247   3.628   5.107   2.659
 5081TIP3   OH215248   3.891   3.759   2.099
 5081TIP3    H115249   3.813   3.704   2.093
 5081TIP3    H215250   3.930   3.754   2.012
 5082TIP3   OH215251   4.999   5.514   0.449
 5082TIP3    H115252   5.089   5.497   0.477
 5082TIP3    H215253   4.945   5.463   0.511
 5083TIP3   OH215254   4.248   0.726   4.009
 5083TIP3    H115255   4.155   0.714   4.029
 5083TIP3    H215256   4.292   0.657   4.058
 5084TIP3   OH215257   4.999   1.608   4.062
 5084TIP3    H115258   4.906   1.584   4.059
 5084TIP3    H215259   5.041   1.537   4.111
 5085TIP3   OH215260   3.550   1.518   4.109
 5085TIP3    H115261   3.605   1.591   4.135
 5085TIP3    H215262   3.474   1.559   4.068
 5086TIP3   OH215263   4.373   0.814   1.809
 5086TIP3    H115264   4.429   0.800   1.886
 5086TIP3    H215265   4.377   0.731   1.761
 5087TIP3   OH215266   4.624   3.107   3.803
 5087TIP3    H115267   4.578   3.190   3.811
 5087TIP3    H215268   4.652   3.086   3.892
 5088TIP3   OH215269   6.191   1.889   1.382
 5088TIP3    H115270   6.208   1.823   1.449
 5088TIP3    H215271   6.100   1.874   1.357
 5089TIP3   OH215272   1.122   4.830   0.937
 5089TIP3    H115273   1.047   4.780   0.967
 5089TIP3    H215274   1.094   4.922   0.942
 5090TIP3   OH215275   2.319   4.114   2.640
 5090TIP3    H115276   2.382   4.133   2.710
 5090TIP3    H215277   2.238   4.157   2.669
 5091TIP3   OH215278   3.956   2.110   5.148
 5091TIP3    H115279   3.984   2.195   5.114
 5091TIP3    H215280   3.982   2.111   5.240
 5092TIP3   OH215281   4.126   4.475   4.084
 5092TIP3    H115282   4.063   4.508   4.148
 5092TIP3    H215283   4.083   4.487   3.999
 5093TIP3   OH215284   2.865   5.672   1.625
 5093TIP3    H115285   2.849   5.700   1.715
 5093TIP3    H215286   2.791   5.615   1.604
 5094TIP3   OH215287   0.048   3.981   1.574
 5094TIP3    H115288   0.133   4.013   1.605
 5094TIP3    H215289   0.041   3.893   1.609
 5095TIP3   OH215290   2.050   2.879   5.013
 5095TIP3    H115291   2.114   2.883   5.083
 5095TIP3    H215292   2.082   2.809   4.955
 5096TIP3   OH215293   3.351   0.264   1.867
 5096TIP3    H115294   3.289   0.336   1.872
 5096TIP3    H215295   3.305   0.197   1.815
 5097TIP3   OH215296   2.982   3.700   1.358
 5097TIP3    H115297   2.950   3.786   1.331
 5097TIP3    H215298   2.931   3.679   1.436
 5098TIP3   OH215299   0.211   1.417   1.149
 5098TIP3    H115300   0.258   1.464   1.080
 5098TIP3    H215301   0.126   1.460   1.153
 5099TIP3   OH215302   5.445   3.930   2.133
 5099TIP3    H115303   5.433   3.920   2.038
 5099TIP3    H215304   5.538   3.910   2.147
 5100TIP3   OH215305   4.027   4.481   1.189
 5100TIP3    H115306   3.941   4.472   1.149
 5100TIP3    H215307   4.083   4.421   1.139
 5101TIP3   OH215308   6.038   3.737   1.980
 5101TIP3    H115309   6.090   3.719   2.059
 5101TIP3    H215310   5.994   3.820   1.998
 5102TIP3   OH215311   2.004   4.408   0.895
 5102TIP3    H115312   1.997   4.356   0.815
 5102TIP3    H215313   2.059   4.355   0.953
 5103TIP3   OH215314   1.070   2.376   0.353
 5103TIP3    H115315   1.000   2.362   0.417
 5103TIP3    H215316   1.029   2.362   0.268
 5104TIP3   OH215317   1.154   0.796   0.663
 5104TIP3    H115318   1.231   0.781   0.609
 5104TIP3    H215319   1.087   0.738   0.626
 5105TIP3   OH215320   0.219   1.281   5.102
 5105TIP3    H115321   0.138   1.244   5.066
 5105TIP3    H215322   0.277   1.291   5.026
 5106TIP3   OH215323   2.376   0.295   1.170
 5106TIP3    H115324   2.341   0.285   1.258
 5106TIP3    H215325   2.471   0.288   1.180
 5107TIP3   OH215326   2.459   2.978   0.711
 5107TIP3    H115327   2.410   2.979   0.794
 5107TIP3    H215328   2.439   3.062   0.670
 5108TIP3   OH215329   4.785   0.435   1.987
 5108TIP3    H115330   4.880   0.429   1.994
 5108TIP3    H215331   4.759   0.484   2.065
 5109TIP3   OH215332   5.606   0.625   4.965
 5109TIP3    H115333   5.546   0.551   4.974
 5109TIP3    H215334   5.578   0.687   5.033
 5110TIP3   OH215335   5.996   3.427   2.117
 5110TIP3    H115336   5.958   3.406   2.032
 5110TIP3    H215337   5.930   3.401   2.181
 5111TIP3   OH215338   4.621   1.789   0.774
 5111TIP3    H115339   4.563   1.748   0.839
 5111TIP3    H215340   4.691   1.828   0.826
 5112TIP3   OH215341   4.755   0.731   3.850
 5112TIP3    H115342   4.788   0.653   3.895
 5112TIP3    H215343   4.695   0.697   3.784
 5113TIP3   OH215344   4.459   3.705   0.537
 5113TIP3    H115345   4.535   3.727   0.483
 5113TIP3    H215346   4.471   3.754   0.618
 5114TIP3   OH215347   2.454   3.221   0.207
 5114TIP3    H115348   2.363   3.239   0.229
 5114TIP3    H215349   2.496   3.307   0.208
 5115TIP3   OH215350   3.543   4.806   0.519
 5115TIP3    H115351   3.544   4.722   0.475
 5115TIP3    H215352   3.471   4.854   0.478
 5116TIP3   OH215353   4.331   3.951   1.310
 5116TIP3    H115354   4.366   3.924   1.395
 5116TIP3    H215355   4.256   4.006   1.332
 5117TIP3   OH215356   5.710   4.101   1.721
 5117TIP3    H115357   5.665   4.038   1.664
 5117TIP3    H215358   5.708   4.183   1.673
 5118TIP3   OH215359   3.878   3.839   5.141
 5118TIP3    H115360   3.916   3.908   5.196
 5118TIP3    H215361   3.873   3.878   5.054
 5119TIP3   OH215362   5.563   1.954   2.806
 5119TIP3    H115363   5.625   1.927   2.737
 5119TIP3    H215364   5.618   1.996   2.872
 5120TIP3   OH215365   1.783   2.616   2.195
 5120TIP3    H115366   1.795   2.701   2.150
 5120TIP3    H215367   1.871   2.578   2.198
 5121TIP3   OH215368   5.612   3.878   1.584
 5121TIP3    H115369   5.613   3.790   1.546
 5121TIP3    H215370   5.522   3.889   1.617
 5122TIP3   OH215371   5.981   3.193   4.062
 5122TIP3    H115372   5.888   3.194   4.085
 5122TIP3    H215373   5.984   3.160   3.973
 5123TIP3   OH215374   2.031   4.633   4.336
 5123TIP3    H115375   1.997   4.566   4.277
 5123TIP3    H215376   1.985   4.617   4.419
 5124TIP3   OH215377   1.303   2.376   2.157
 5124TIP3    H115378   1.374   2.311   2.158
 5124TIP3    H215379   1.248   2.353   2.232
 5125TIP3   OH215380   5.387   3.346   5.123
 5125TIP3    H115381   5.331   3.404   5.175
 5125TIP3    H215382   5.429   3.404   5.059
 5126TIP3   OH215383   2.830   3.331   1.664
 5126TIP3    H115384   2.820   3.301   1.574
 5126TIP3    H215385   2.741   3.347   1.694
 5127TIP3   OH215386   5.786   3.959   0.382
 5127TIP3    H115387   5.766   3.925   0.294
 5127TIP3    H215388   5.840   4.036   0.366
 5128TIP3   OH215389   5.293   4.940   4.671
 5128TIP3    H115390   5.279   5.023   4.625
 5128TIP3    H215391   5.272   4.873   4.606
 5129TIP3   OH215392   4.962   3.918   4.871
 5129TIP3    H115393   5.006   3.954   4.794
 5129TIP3    H215394   4.988   3.826   4.874
 5130TIP3   OH215395   5.726   4.294   4.514
 5130TIP3    H115396   5.706   4.385   4.534
 5130TIP3    H215397   5.650   4.262   4.466
 5131TIP3   OH215398   2.841   5.318   4.914
 5131TIP3    H115399   2.757   5.306   4.958
 5131TIP3    H215400   2.876   5.229   4.906
 5132TIP3   OH215401   2.858   1.491   2.639
 5132TIP3    H115402   2.766   1.518   2.644
 5132TIP3    H215403   2.907   1.572   2.648
 5133TIP3   OH215404   2.599   1.569   2.613
 5133TIP3    H115405   2.623   1.597   2.525
 5133TIP3    H215406   2.534   1.633   2.642
 5134TIP3   OH215407   6.118   5.004   0.218
 5134TIP3    H115408   6.034   5.003   0.264
 5134TIP3    H215409   6.167   5.076   0.257
 5135TIP3   OH215410   5.648   0.505   3.265
 5135TIP3    H115411   5.572   0.477   3.214
 5135TIP3    H215412   5.628   0.595   3.290
 5136TIP3   OH215413   0.944   1.377   1.265
 5136TIP3    H115414   0.886   1.438   1.310
 5136TIP3    H215415   0.897   1.354   1.185
 5137TIP3   OH215416   1.389   5.224   3.308
 5137TIP3    H115417   1.419   5.144   3.264
 5137TIP3    H215418   1.367   5.195   3.397
 5138TIP3   OH215419   2.228   5.078   4.778
 5138TIP3    H115420   2.189   5.003   4.735
 5138TIP3    H215421   2.266   5.043   4.859
 5139TIP3   OH215422   5.260   1.658   3.596
 5139TIP3    H115423   5.193   1.703   3.647
 5139TIP3    H215424   5.230   1.567   3.594
 5140TIP3   OH215425   4.743   2.902   0.351
 5140TIP3    H115426   4.836   2.916   0.331
 5140TIP3    H215427   4.731   2.944   0.436
 5141TIP3   OH215428   3.329   0.645   0.856
 5141TIP3    H115429   3.394   0.681   0.796
 5141TIP3    H215430   3.295   0.721   0.903
 5142TIP3   OH215431   3.024   3.216   1.135
 5142TIP3    H115432   3.086   3.218   1.208
 5142TIP3    H215433   3.002   3.123   1.125
 5143TIP3   OH215434   0.231   1.027   2.659
 5143TIP3    H115435   0.278   1.069   2.587
 5143TIP3    H215436   0.276   0.944   2.672
 5144TIP3   OH215437   5.135   0.698   1.299
 5144TIP3    H115438   5.136   0.737   1.386
 5144TIP3    H215439   5.107   0.769   1.241
 5145TIP3   OH215440   4.622   2.716   3.562
 5145TIP3    H115441   4.605   2.810   3.557
 5145TIP3    H215442   4.715   2.708   3.542
 5146TIP3   OH215443   0.666   2.808   2.780
 5146TIP3    H115444   0.737   2.764   2.828
 5146TIP3    H215445   0.632   2.872   2.843
 5147TIP3   OH215446   2.463   1.065   2.288
 5147TIP3    H115447   2.558   1.061   2.298
 5147TIP3    H215448   2.438   0.975   2.265
 5148TIP3   OH215449   0.481   5.437   1.864
 5148TIP3    H115450   0.425   5.390   1.926
 5148TIP3    H215451   0.542   5.485   1.920
 5149TIP3   OH215452   1.222   4.252   0.376
 5149TIP3    H115453   1.139   4.254   0.423
 5149TIP3    H215454   1.253   4.162   0.386
 5150TIP3   OH215455   4.934   3.366   0.141
 5150TIP3    H115456   4.840   3.382   0.131
 5150TIP3    H215457   4.960   3.417   0.217
 5151TIP3   OH215458   3.945   5.624   3.407
 5151TIP3    H115459   3.871   5.682   3.423
 5151TIP3    H215460   3.978   5.650   3.322
 5152TIP3   OH215461   4.467   3.658   4.332
 5152TIP3    H115462   4.415   3.687   4.258
 5152TIP3    H215463   4.415   3.591   4.374
 5153TIP3   OH215464   2.556   0.980   3.292
 5153TIP3    H115465   2.598   0.936   3.366
 5153TIP3    H215466   2.574   0.923   3.217
 5154TIP3   OH215467   5.335   1.472   2.993
 5154TIP3    H115468   5.356   1.554   2.947
 5154TIP3    H215469   5.416   1.448   3.037
 5155TIP3   OH215470   2.847   4.833   2.421
 5155TIP3    H115471   2.890   4.911   2.387
 5155TIP3    H215472   2.757   4.840   2.388
 5156TIP3   OH215473   4.078   5.901   1.965
 5156TIP3    H115474   4.033   5.974   1.922
 5156TIP3    H215475   4.154   5.883   1.909
 5157TIP3   OH215476   5.809   2.034   2.132
 5157TIP3    H115477   5.857   2.104   2.087
 5157TIP3    H215478   5.717   2.060   2.126
 5158TIP3   OH215479   4.081   0.044   1.032
 5158TIP3    H115480   4.038   0.104   0.971
 5158TIP3    H215481   4.171   0.075   1.037
 5159TIP3   OH215482   2.236   0.547   1.525
 5159TIP3    H115483   2.185   0.604   1.467
 5159TIP3    H215484   2.192   0.552   1.609
 5160TIP3   OH215485   1.525  -0.018   3.605
 5160TIP3    H115486   1.508  -0.062   3.522
 5160TIP3    H215487   1.538   0.074   3.581
 5161TIP3   OH215488   4.361   2.933   2.075
 5161TIP3    H115489   4.345   2.846   2.110
 5161TIP3    H215490   4.443   2.960   2.115
 5162TIP3   OH215491   4.087   1.765   4.144
 5162TIP3    H115492   4.041   1.737   4.065
 5162TIP3    H215493   4.165   1.710   4.147
 5163TIP3   OH215494   6.257   4.500   1.472
 5163TIP3    H115495   6.312   4.443   1.419
 5163TIP3    H215496   6.226   4.566   1.410
 5164TIP3   OH215497   2.496   1.201   1.274
 5164TIP3    H115498   2.404   1.178   1.277
 5164TIP3    H215499   2.510   1.254   1.353
 5165TIP3   OH215500   1.295   4.354   3.514
 5165TIP3    H115501   1.205   4.384   3.527
 5165TIP3    H215502   1.305   4.279   3.573
 5166TIP3   OH215503   3.795   1.005   1.530
 5166TIP3    H115504   3.718   1.000   1.474
 5166TIP3    H215505   3.839   0.920   1.518
 5167TIP3   OH215506   4.065   4.288   0.473
 5167TIP3    H115507   4.032   4.203   0.505
 5167TIP3    H215508   4.108   4.268   0.391
 5168TIP3   OH215509   2.324   4.790   2.705
 5168TIP3    H115510   2.353   4.755   2.789
 5168TIP3    H215511   2.229   4.798   2.714
 5169TIP3   OH215512   5.147   0.019   0.562
 5169TIP3    H115513   5.060   0.058   0.570
 5169TIP3    H215514   5.185   0.026   0.650
 5170TIP3   OH215515   6.193   0.056   3.939
 5170TIP3    H115516   6.179   0.095   4.026
 5170TIP3    H215517   6.130  -0.016   3.935
 5171TIP3   OH215518   4.043   4.796   4.570
 5171TIP3    H115519   4.139   4.795   4.574
 5171TIP3    H215520   4.018   4.704   4.564
 5172TIP3   OH215521   4.704   0.293   2.565
 5172TIP3    H115522   4.779   0.351   2.559
 5172TIP3    H215523   4.637   0.344   2.610
 5173TIP3   OH215524   1.516   0.744   0.737
 5173TIP3    H115525   1.437   0.749   0.683
 5173TIP3    H215526   1.540   0.835   0.754
 5174TIP3   OH215527   3.657   0.603   5.156
 5174TIP3    H115528   3.659   0.645   5.070
 5174TIP3    H215529   3.717   0.529   5.148
 5175TIP3   OH215530   5.772   0.983   3.703
 5175TIP3    H115531   5.818   1.066   3.691
 5175TIP3    H215532   5.804   0.951   3.787
 5176TIP3   OH215533   2.494   4.290   1.368
 5176TIP3    H115534   2.471   4.353   1.300
 5176TIP3    H215535   2.561   4.334   1.420
 5177TIP3   OH215536   4.944   2.308   0.933
 5177TIP3    H115537   4.925   2.402   0.927
 5177TIP3    H215538   5.036   2.301   0.907
 5178TIP3   OH215539   3.992   0.791   4.102
 5178TIP3    H115540   3.918   0.777   4.043
 5178TIP3    H215541   4.017   0.882   4.088
 5179TIP3   OH215542   3.951   1.413   1.274
 5179TIP3    H115543   4.000   1.333   1.255
 5179TIP3    H215544   3.880   1.384   1.332
 5180TIP3   OH215545   3.059   5.146   3.052
 5180TIP3    H115546   3.129   5.086   3.077
 5180TIP3    H215547   3.006   5.096   2.990
 5181TIP3   OH215548   5.034   2.885   0.017
 5181TIP3    H115549   5.067   2.947   0.082
 5181TIP3    H215550   4.941   2.905   0.010
 5182TIP3   OH215551   2.075   3.268   1.215
 5182TIP3    H115552   2.060   3.245   1.307
 5182TIP3    H215553   2.129   3.347   1.218
 5183TIP3   OH215554   5.925   0.947   4.925
 5183TIP3    H115555   6.009   0.991   4.912
 5183TIP3    H215556   5.886   0.992   5.000
 5184TIP3   OH215557   3.537   2.884   5.105
 5184TIP3    H115558   3.454   2.862   5.147
 5184TIP3    H215559   3.536   2.835   5.023
 5185TIP3   OH215560   0.771   2.592   1.707
 5185TIP3    H115561   0.842   2.529   1.718
 5185TIP3    H215562   0.726   2.592   1.791
 5186TIP3   OH215563   4.621   1.890   0.156
 5186TIP3    H115564   4.696   1.852   0.109
 5186TIP3    H215565   4.659   1.927   0.235
 5187TIP3   OH215566   4.103   1.896   1.809
 5187TIP3    H115567   4.054   1.818   1.781
 5187TIP3    H215568   4.059   1.968   1.764
 5188TIP3   OH215569   0.716   5.546   3.588
 5188TIP3    H115570   0.624   5.563   3.610
 5188TIP3    H215571   0.752   5.632   3.567
 5189TIP3   OH215572   5.024   4.060   3.743
 5189TIP3    H115573   5.100   4.098   3.697
 5189TIP3    H215574   5.054   4.050   3.833
 5190TIP3   OH215575   4.048   4.407   2.514
 5190TIP3    H115576   3.993   4.383   2.588
 5190TIP3    H215577   4.126   4.445   2.554
 5191TIP3   OH215578   2.582   1.150   4.033
 5191TIP3    H115579   2.596   1.065   4.074
 5191TIP3    H215580   2.657   1.161   3.974
 5192TIP3   OH215581   2.934   1.171   4.549
 5192TIP3    H115582   2.996   1.236   4.517
 5192TIP3    H215583   2.944   1.096   4.490
 5193TIP3   OH215584   6.291   1.361   4.449
 5193TIP3    H115585   6.233   1.405   4.387
 5193TIP3    H215586   6.373   1.409   4.444
 5194TIP3   OH215587   6.141   0.094   4.185
 5194TIP3    H115588   6.143   0.014   4.238
 5194TIP3    H215589   6.190   0.158   4.237
 5195TIP3   OH215590   2.899   1.141   2.378
 5195TIP3    H115591   2.969   1.158   2.441
 5195TIP3    H215592   2.921   1.057   2.338
 5196TIP3   OH215593   4.655   3.709   2.337
 5196TIP3    H115594   4.747   3.701   2.312
 5196TIP3    H215595   4.650   3.673   2.425
 5197TIP3   OH215596   4.760   4.502   3.230
 5197TIP3    H115597   4.753   4.565   3.302
 5197TIP3    H215598   4.846   4.460   3.244
 5198TIP3   OH215599   1.879   0.630   0.128
 5198TIP3    H115600   1.862   0.713   0.084
 5198TIP3    H215601   1.972   0.612   0.110
 5199TIP3   OH215602   5.123   0.030   2.340
 5199TIP3    H115603   5.141  -0.025   2.264
 5199TIP3    H215604   5.108  -0.032   2.411
 5200TIP3   OH215605   0.282   2.374   0.033
 5200TIP3    H115606   0.358   2.343   0.081
 5200TIP3    H215607   0.300   2.467   0.016
 5201TIP3   OH215608   3.563   4.888   3.184
 5201TIP3    H115609   3.639   4.932   3.147
 5201TIP3    H215610   3.566   4.799   3.150
 5202TIP3   OH215611   2.360   1.185   2.546
 5202TIP3    H115612   2.434   1.206   2.603
 5202TIP3    H215613   2.400   1.144   2.469
 5203TIP3   OH215614   2.846   5.275   4.500
 5203TIP3    H115615   2.914   5.243   4.559
 5203TIP3    H215616   2.805   5.347   4.548
 5204TIP3   OH215617   4.457   5.967   4.362
 5204TIP3    H115618   4.386   5.970   4.298
 5204TIP3    H215619   4.485   5.875   4.363
 5205TIP3   OH215620   3.012   0.923   0.615
 5205TIP3    H115621   3.017   0.829   0.597
 5205TIP3    H215622   3.094   0.958   0.581
 5206TIP3   OH215623   5.894   5.769   2.047
 5206TIP3    H115624   5.871   5.805   2.133
 5206TIP3    H215625   5.815   5.782   1.994
 5207TIP3   OH215626   2.797   0.581   0.772
 5207TIP3    H115627   2.740   0.598   0.848
 5207TIP3    H215628   2.741   0.595   0.696
 5208TIP3   OH215629   1.681   1.926   1.302
 5208TIP3    H115630   1.668   1.852   1.243
 5208TIP3    H215631   1.593   1.953   1.326
 5209TIP3   OH215632   1.859   5.654   0.829
 5209TIP3    H115633   1.895   5.742   0.823
 5209TIP3    H215634   1.850   5.638   0.923
 5210TIP3   OH215635   3.060   1.104   3.375
 5210TIP3    H115636   3.034   1.177   3.320
 5210TIP3    H215637   3.090   1.144   3.457
 5211TIP3   OH215638   5.646   5.838   5.079
 5211TIP3    H115639   5.689   5.881   5.153
 5211TIP3    H215640   5.565   5.803   5.116
 5212TIP3   OH215641  -0.012   5.251   0.039
 5212TIP3    H115642   0.055   5.305  -0.003
 5212TIP3    H215643  -0.094   5.281   0.000
 5213TIP3   OH215644   5.951   4.984   1.976
 5213TIP3    H115645   5.999   4.918   1.925
 5213TIP3    H215646   5.890   4.933   2.030
 5214TIP3   OH215647   0.144   2.701   3.818
 5214TIP3    H115648   0.214   2.646   3.784
 5214TIP3    H215649   0.074   2.639   3.841
 5215TIP3   OH215650   2.093   0.507   0.528
 5215TIP3    H115651   2.048   0.439   0.476
 5215TIP3    H215652   2.167   0.461   0.567
 5216TIP3   OH215653   5.043   2.252   0.095
 5216TIP3    H115654   5.019   2.193   0.023
 5216TIP3    H215655   4.990   2.330   0.080
 5217TIP3   OH215656   1.468   5.861   4.735
 5217TIP3    H115657   1.483   5.918   4.810
 5217TIP3    H215658   1.444   5.776   4.773
 5218TIP3   OH215659   2.148   4.973   1.375
 5218TIP3    H115660   2.186   4.981   1.287
 5218TIP3    H215661   2.192   4.897   1.413
 5219TIP3   OH215662   0.908   4.579   2.869
 5219TIP3    H115663   0.864   4.659   2.897
 5219TIP3    H215664   0.999   4.591   2.898
 5220TIP3   OH215665   0.769   5.001   1.943
 5220TIP3    H115666   0.845   5.015   1.887
 5220TIP3    H215667   0.742   5.089   1.969
 5221TIP3   OH215668   3.523   5.873   1.690
 5221TIP3    H115669   3.449   5.862   1.630
 5221TIP3    H215670   3.551   5.784   1.711
 5222TIP3   OH215671   2.486   4.548   1.654
 5222TIP3    H115672   2.467   4.553   1.748
 5222TIP3    H215673   2.570   4.594   1.644
 5223TIP3   OH215674   2.294   1.234   3.965
 5223TIP3    H115675   2.364   1.171   3.983
 5223TIP3    H215676   2.334   1.320   3.978
 5224TIP3   OH215677   5.893   2.501   4.573
 5224TIP3    H115678   5.977   2.458   4.559
 5224TIP3    H215679   5.866   2.530   4.486
 5225TIP3   OH215680   0.290   1.862   0.856
 5225TIP3    H115681   0.285   1.876   0.951
 5225TIP3    H215682   0.223   1.796   0.838
 5226TIP3   OH215683   2.662   0.655   2.274
 5226TIP3    H115684   2.598   0.646   2.204
 5226TIP3    H215685   2.747   0.646   2.230
 5227TIP3   OH215686   0.408   0.687   4.030
 5227TIP3    H115687   0.447   0.606   4.061
 5227TIP3    H215688   0.478   0.730   3.981
 5228TIP3   OH215689   1.595   1.088   0.205
 5228TIP3    H115690   1.518   1.036   0.182
 5228TIP3    H215691   1.559   1.165   0.249
 5229TIP3   OH215692   2.460   0.204   1.914
 5229TIP3    H115693   2.409   0.212   1.995
 5229TIP3    H215694   2.526   0.138   1.935
 5230TIP3   OH215695   5.703   0.949   2.643
 5230TIP3    H115696   5.654   0.988   2.570
 5230TIP3    H215697   5.702   0.855   2.624
 5231TIP3   OH215698   6.079   4.432   1.090
 5231TIP3    H115699   6.059   4.416   1.182
 5231TIP3    H215700   6.118   4.520   1.089
 5232TIP3   OH215701   5.927   4.891   0.450
 5232TIP3    H115702   5.855   4.953   0.440
 5232TIP3    H215703   5.950   4.894   0.543
 5233TIP3   OH215704   5.881   0.127   2.215
 5233TIP3    H115705   5.877   0.074   2.135
 5233TIP3    H215706   5.861   0.067   2.286
 5234TIP3   OH215707   0.626   1.768   4.340
 5234TIP3    H115708   0.658   1.714   4.413
 5234TIP3    H215709   0.703   1.781   4.284
 5235TIP3   OH215710   3.037   1.972   0.963
 5235TIP3    H115711   2.981   1.896   0.981
 5235TIP3    H215712   2.983   2.047   0.987
 5236TIP3   OH215713   4.178   2.691   2.339
 5236TIP3    H115714   4.255   2.674   2.393
 5236TIP3    H215715   4.137   2.605   2.328
 5237TIP3   OH215716   4.294   5.854   1.812
 5237TIP3    H115717   4.378   5.899   1.814
 5237TIP3    H215718   4.274   5.846   1.718
 5238TIP3   OH215719   0.284   5.217   3.298
 5238TIP3    H115720   0.256   5.211   3.207
 5238TIP3    H215721   0.316   5.129   3.319
 5239TIP3   OH215722   2.456   3.067   4.471
 5239TIP3    H115723   2.544   3.083   4.437
 5239TIP3    H215724   2.402   3.053   4.393
 5240TIP3   OH215725   5.089   0.976   2.475
 5240TIP3    H115726   5.081   1.072   2.473
 5240TIP3    H215727   5.031   0.948   2.545
 5241TIP3   OH215728   5.876   0.785   2.063
 5241TIP3    H115729   5.813   0.725   2.023
 5241TIP3    H215730   5.878   0.860   2.003
 5242TIP3   OH215731   0.887   4.655   4.648
 5242TIP3    H115732   0.888   4.684   4.740
 5242TIP3    H215733   0.800   4.679   4.617
 5243TIP3   OH215734   3.271   1.428   0.407
 5243TIP3    H115735   3.179   1.444   0.428
 5243TIP3    H215736   3.311   1.406   0.491
 5244TIP3   OH215737   1.123   2.918   3.974
 5244TIP3    H115738   1.054   2.965   3.927
 5244TIP3    H215739   1.125   2.832   3.933
 5245TIP3   OH215740   2.334   4.565   4.047
 5245TIP3    H115741   2.299   4.486   4.090
 5245TIP3    H215742   2.417   4.537   4.010
 5246TIP3   OH215743   2.489   3.789   4.148
 5246TIP3    H115744   2.522   3.726   4.084
 5246TIP3    H215745   2.560   3.798   4.211
 5247TIP3   OH215746   4.728   2.561   4.320
 5247TIP3    H115747   4.767   2.638   4.363
 5247TIP3    H215748   4.687   2.596   4.241
 5248TIP3   OH215749   1.525   2.060   4.702
 5248TIP3    H115750   1.594   2.097   4.647
 5248TIP3    H215751   1.494   2.133   4.755
 5249TIP3   OH215752   6.216   3.432   0.298
 5249TIP3    H115753   6.165   3.507   0.329
 5249TIP3    H215754   6.213   3.369   0.371
 5250TIP3   OH215755   4.238   5.816   0.970
 5250TIP3    H115756   4.169   5.760   0.933
 5250TIP3    H215757   4.241   5.892   0.912
 5251TIP3   OH215758   3.661   1.513   4.556
 5251TIP3    H115759   3.686   1.516   4.464
 5251TIP3    H215760   3.742   1.492   4.602
 5252TIP3   OH215761   5.082   3.111   4.770
 5252TIP3    H115762   5.057   3.039   4.829
 5252TIP3    H215763   5.014   3.177   4.783
 5253TIP3   OH215764   0.444   0.249   3.096
 5253TIP3    H115765   0.417   0.159   3.076
 5253TIP3    H215766   0.538   0.242   3.114
 5254TIP3   OH215767   3.207   4.099   4.499
 5254TIP3    H115768   3.186   4.013   4.535
 5254TIP3    H215769   3.254   4.144   4.570
 5255TIP3   OH215770   3.866   3.906   1.535
 5255TIP3    H115771   3.796   3.952   1.489
 5255TIP3    H215772   3.894   3.967   1.604
 5256TIP3   OH215773   1.032   3.999   2.298
 5256TIP3    H115774   1.050   3.905   2.298
 5256TIP3    H215775   1.102   4.036   2.352
 5257TIP3   OH215776   4.067   4.752   1.188
 5257TIP3    H115777   4.150   4.767   1.142
 5257TIP3    H215778   4.051   4.658   1.179
 5258TIP3   OH215779   3.038   0.601   2.389
 5258TIP3    H115780   3.037   0.682   2.440
 5258TIP3    H215781   2.989   0.622   2.310
 5259TIP3   OH215782   2.255   5.404   3.211
 5259TIP3    H115783   2.176   5.454   3.193
 5259TIP3    H215784   2.274   5.421   3.303
 5260TIP3   OH215785   2.598   4.052   1.108
 5260TIP3    H115786   2.598   4.112   1.182
 5260TIP3    H215787   2.557   4.101   1.037
 5261TIP3   OH215788   4.854   5.813   1.354
 5261TIP3    H115789   4.933   5.768   1.324
 5261TIP3    H215790   4.876   5.906   1.350
 5262TIP3   OH215791   0.476   1.608   1.113
 5262TIP3    H115792   0.413   1.679   1.127
 5262TIP3    H215793   0.448   1.568   1.031
 5263TIP3   OH215794   3.767   0.812   4.513
 5263TIP3    H115795   3.805   0.898   4.531
 5263TIP3    H215796   3.674   0.822   4.534
 5264TIP3   OH215797   0.409   0.132   0.268
 5264TIP3    H115798   0.379   0.222   0.285
 5264TIP3    H215799   0.329   0.084   0.247
 5265TIP3   OH215800   0.640   0.433   3.292
 5265TIP3    H115801   0.734   0.416   3.290
 5265TIP3    H215802   0.620   0.466   3.204
 5266TIP3   OH215803   5.900   3.815   0.897
 5266TIP3    H115804   5.813   3.853   0.905
 5266TIP3    H215805   5.959   3.883   0.929
 5267TIP3   OH215806   2.646   0.580   3.969
 5267TIP3    H115807   2.578   0.515   3.955
 5267TIP3    H215808   2.604   0.663   3.947
 5268TIP3   OH215809   2.315   0.259   2.138
 5268TIP3    H115810   2.364   0.276   2.218
 5268TIP3    H215811   2.231   0.225   2.169
 5269TIP3   OH215812   4.979   4.141   1.357
 5269TIP3    H115813   4.944   4.125   1.445
 5269TIP3    H215814   5.012   4.056   1.329
 5270TIP3   OH215815   4.978   5.458   2.204
 5270TIP3    H115816   4.992   5.511   2.283
 5270TIP3    H215817   4.883   5.448   2.200
 5271TIP3   OH215818   3.148   0.443   1.828
 5271TIP3    H115819   3.112   0.520   1.872
 5271TIP3    H215820   3.072   0.403   1.784
 5272TIP3   OH215821   6.218   5.860   4.225
 5272TIP3    H115822   6.301   5.815   4.212
 5272TIP3    H215823   6.156   5.790   4.245
 5273TIP3   OH215824   0.287   3.913   3.988
 5273TIP3    H115825   0.204   3.878   4.021
 5273TIP3    H215826   0.334   3.939   4.067
 5274TIP3   OH215827   5.144   1.014   3.670
 5274TIP3    H115828   5.133   1.077   3.742
 5274TIP3    H215829   5.234   1.027   3.640
 5275TIP3   OH215830   4.895   0.976   2.170
 5275TIP3    H115831   4.802   0.973   2.147
 5275TIP3    H215832   4.929   0.891   2.141
 5276TIP3   OH215833   2.295   4.661   1.030
 5276TIP3    H115834   2.271   4.694   0.944
 5276TIP3    H215835   2.361   4.723   1.062
 5277TIP3   OH215836   6.294   1.874   3.180
 5277TIP3    H115837   6.205   1.898   3.156
 5277TIP3    H215838   6.304   1.783   3.152
 5278TIP3   OH215839   1.362   5.203   0.899
 5278TIP3    H115840   1.398   5.250   0.975
 5278TIP3    H215841   1.355   5.270   0.831
 5279TIP3   OH215842   6.272   0.677   1.081
 5279TIP3    H115843   6.362   0.650   1.099
 5279TIP3    H215844   6.239   0.707   1.166
 5280TIP3   OH215845   4.456   2.029   4.809
 5280TIP3    H115846   4.436   2.068   4.894
 5280TIP3    H215847   4.459   2.103   4.748
 5281TIP3   OH215848   0.275   5.886   1.792
 5281TIP3    H115849   0.184   5.885   1.821
 5281TIP3    H215850   0.280   5.957   1.728
 5282TIP3   OH215851   1.728   3.232   4.774
 5282TIP3    H115852   1.726   3.272   4.860
 5282TIP3    H215853   1.807   3.178   4.775
 5283TIP3   OH215854   4.181   5.715   3.553
 5283TIP3    H115855   4.102   5.688   3.506
 5283TIP3    H215856   4.154   5.789   3.606
 5284TIP3   OH215857   1.006   0.126   1.197
 5284TIP3    H115858   1.028   0.219   1.199
 5284TIP3    H215859   1.091   0.081   1.199
 5285TIP3   OH215860   4.805   1.874   0.973
 5285TIP3    H115861   4.776   1.966   0.977
 5285TIP3    H215862   4.901   1.879   0.980
 5286TIP3   OH215863   5.005   4.707   1.927
 5286TIP3    H115864   5.078   4.664   1.880
 5286TIP3    H215865   4.958   4.754   1.858
 5287TIP3   OH215866   3.245   0.828   2.137
 5287TIP3    H115867   3.247   0.846   2.043
 5287TIP3    H215868   3.273   0.910   2.178
 5288TIP3   OH215869   3.297   4.174   0.176
 5288TIP3    H115870   3.297   4.163   0.081
 5288TIP3    H215871   3.373   4.124   0.206
 5289TIP3   OH215872   5.783   3.870   0.106
 5289TIP3    H115873   5.772   3.789   0.056
 5289TIP3    H215874   5.867   3.905   0.076
 5290TIP3   OH215875   5.734   2.815   2.936
 5290TIP3    H115876   5.809   2.819   2.995
 5290TIP3    H215877   5.664   2.859   2.983
 5291TIP3   OH215878   4.338   0.818   2.667
 5291TIP3    H115879   4.285   0.892   2.639
 5291TIP3    H215880   4.386   0.849   2.743
 5292TIP3   OH215881   0.301   1.474   2.602
 5292TIP3    H115882   0.361   1.462   2.676
 5292TIP3    H215883   0.330   1.411   2.537
 5293TIP3   OH215884   4.679   4.894   3.157
 5293TIP3    H115885   4.651   4.865   3.244
 5293TIP3    H215886   4.604   4.875   3.100
 5294TIP3   OH215887   5.974   5.638   1.399
 5294TIP3    H115888   5.984   5.733   1.394
 5294TIP3    H215889   5.984   5.617   1.492
 5295TIP3   OH215890   6.057   2.567   0.085
 5295TIP3    H115891   6.055   2.497   0.150
 5295TIP3    H215892   6.141   2.611   0.100
 5296TIP3   OH215893   5.370   5.083   3.057
 5296TIP3    H115894   5.411   5.072   2.972
 5296TIP3    H215895   5.372   5.177   3.074
 5297TIP3   OH215896   2.686   5.910   1.334
 5297TIP3    H115897   2.609   5.962   1.310
 5297TIP3    H215898   2.732   5.896   1.251
 5298TIP3   OH215899   3.898   2.428   1.912
 5298TIP3    H115900   3.815   2.452   1.953
 5298TIP3    H215901   3.918   2.502   1.854
 5299TIP3   OH215902   1.934   0.213   3.216
 5299TIP3    H115903   1.953   0.178   3.129
 5299TIP3    H215904   1.851   0.260   3.205
 5300TIP3   OH215905   2.002   3.232   3.737
 5300TIP3    H115906   1.955   3.149   3.725
 5300TIP3    H215907   2.003   3.247   3.831
 5301TIP3   OH215908   5.548   4.457   2.704
 5301TIP3    H115909   5.560   4.488   2.614
 5301TIP3    H215910   5.581   4.529   2.758
 5302TIP3   OH215911   2.521   0.549   4.373
 5302TIP3    H115912   2.509   0.627   4.427
 5302TIP3    H215913   2.435   0.535   4.333
 5303TIP3   OH215914   3.111   0.983   3.764
 5303TIP3    H115915   3.019   1.003   3.750
 5303TIP3    H215916   3.111   0.894   3.801
 5304TIP3   OH215917   5.691   0.887   3.993
 5304TIP3    H115918   5.682   0.859   4.084
 5304TIP3    H215919   5.770   0.844   3.962
 5305TIP3   OH215920   2.907   2.872   3.189
 5305TIP3    H115921   2.862   2.835   3.265
 5305TIP3    H215922   2.887   2.812   3.117
 5306TIP3   OH215923   1.650   4.359   0.981
 5306TIP3    H115924   1.580   4.402   1.030
 5306TIP3    H215925   1.643   4.395   0.893
 5307TIP3   OH215926   3.573   5.530   3.722
 5307TIP3    H115927   3.528   5.514   3.804
 5307TIP3    H215928   3.663   5.552   3.747
 5308TIP3   OH215929   1.674   2.665   4.310
 5308TIP3    H115930   1.743   2.719   4.350
 5308TIP3    H215931   1.594   2.689   4.356
 5309TIP3   OH215932   0.570   3.485   0.310
 5309TIP3    H115933   0.576   3.459   0.402
 5309TIP3    H215934   0.529   3.410   0.267
 5310TIP3   OH215935   2.058   5.880   1.721
 5310TIP3    H115936   2.003   5.861   1.797
 5310TIP3    H215937   2.129   5.816   1.727
 5311TIP3   OH215938   5.781   1.153   0.824
 5311TIP3    H115939   5.809   1.063   0.805
 5311TIP3    H215940   5.846   1.185   0.887
 5312TIP3   OH215941   0.349   0.576   2.849
 5312TIP3    H115942   0.298   0.497   2.866
 5312TIP3    H215943   0.393   0.594   2.932
 5313TIP3   OH215944   2.098   0.151   4.037
 5313TIP3    H115945   2.016   0.111   4.068
 5313TIP3    H215946   2.167   0.104   4.085
 5314TIP3   OH215947   5.676   0.562   0.457
 5314TIP3    H115948   5.720   0.507   0.522
 5314TIP3    H215949   5.743   0.623   0.428
 5315TIP3   OH215950   0.937   4.869   3.266
 5315TIP3    H115951   0.936   4.874   3.170
 5315TIP3    H215952   1.001   4.934   3.293
 5316TIP3   OH215953   2.604   3.956   2.020
 5316TIP3    H115954   2.652   4.037   2.005
 5316TIP3    H215955   2.632   3.898   1.949
 5317TIP3   OH215956   1.301   1.045   2.808
 5317TIP3    H115957   1.284   0.972   2.748
 5317TIP3    H215958   1.374   1.014   2.862
 5318TIP3   OH215959   3.791   0.124   3.533
 5318TIP3    H115960   3.731   0.171   3.474
 5318TIP3    H215961   3.754   0.036   3.538
 5319TIP3   OH215962   1.314   2.637   3.051
 5319TIP3    H115963   1.295   2.716   3.001
 5319TIP3    H215964   1.269   2.567   3.004
 5320TIP3   OH215965   5.715   1.276   0.522
 5320TIP3    H115966   5.810   1.275   0.530
 5320TIP3    H215967   5.697   1.252   0.431
 5321TIP3   OH215968   1.612   1.626   0.397
 5321TIP3    H115969   1.670   1.555   0.368
 5321TIP3    H215970   1.610   1.686   0.322
 5322TIP3   OH215971   4.468   3.513   3.229
 5322TIP3    H115972   4.380   3.505   3.265
 5322TIP3    H215973   4.458   3.498   3.135
 5323TIP3   OH215974   1.568   1.626   1.947
 5323TIP3    H115975   1.634   1.683   1.987
 5323TIP3    H215976   1.586   1.540   1.983
 5324TIP3   OH215977   4.689   0.213   3.019
 5324TIP3    H115978   4.639   0.293   3.003
 5324TIP3    H215979   4.683   0.164   2.937
 5325TIP3   OH215980   1.892   3.553   2.042
 5325TIP3    H115981   1.982   3.523   2.050
 5325TIP3    H215982   1.886   3.590   1.954
 5326TIP3   OH215983   1.864   4.424   1.150
 5326TIP3    H115984   1.912   4.434   1.068
 5326TIP3    H215985   1.792   4.365   1.128
 5327TIP3   OH215986   5.702   4.810   4.124
 5327TIP3    H115987   5.775   4.778   4.071
 5327TIP3    H215988   5.741   4.827   4.210
 5328TIP3   OH215989   1.854   0.298   3.884
 5328TIP3    H115990   1.790   0.227   3.897
 5328TIP3    H215991   1.807   0.377   3.911
 5329TIP3   OH215992   5.098   2.616   0.099
 5329TIP3    H115993   5.011   2.576   0.104
 5329TIP3    H215994   5.081   2.706   0.071
 5330TIP3   OH215995   2.263   3.773   0.672
 5330TIP3    H115996   2.340   3.809   0.714
 5330TIP3    H215997   2.282   3.778   0.578
 5331TIP3   OH215998   3.121   3.352   4.254
 5331TIP3    H115999   3.100   3.278   4.311
 5331TIP3    H216000   3.047   3.412   4.265
 5332TIP3   OH216001   1.256   2.083   1.498
 5332TIP3    H116002   1.291   2.090   1.410
 5332TIP3    H216003   1.169   2.124   1.493
 5333TIP3   OH216004   4.029   4.203   4.246
 5333TIP3    H116005   4.096   4.250   4.295
 5333TIP3    H216006   3.960   4.185   4.311
 5334TIP3   OH216007   3.802   1.799   4.633
 5334TIP3    H116008   3.729   1.758   4.680
 5334TIP3    H216009   3.880   1.768   4.678
 5335TIP3   OH216010   2.313   3.990   2.093
 5335TIP3    H116011   2.390   3.945   2.058
 5335TIP3    H216012   2.332   4.083   2.081
 5336TIP3   OH216013   4.192   4.722   2.736
 5336TIP3    H116014   4.223   4.707   2.646
 5336TIP3    H216015   4.270   4.753   2.783
 5337TIP3   OH216016   2.917   2.971   0.192
 5337TIP3    H116017   2.838   3.014   0.225
 5337TIP3    H216018   2.887   2.884   0.164
 5338TIP3   OH216019   4.664   4.689   1.760
 5338TIP3    H116020   4.582   4.736   1.778
 5338TIP3    H216021   4.677   4.634   1.838
 5339TIP3   OH216022   0.124   5.477   3.454
 5339TIP3    H116023   0.111   5.388   3.485
 5339TIP3    H216024   0.089   5.477   3.365
 5340TIP3   OH216025   1.826   0.115   1.664
 5340TIP3    H116026   1.896   0.142   1.603
 5340TIP3    H216027   1.751   0.168   1.637
 5341TIP3   OH216028   3.124   5.646   3.052
 5341TIP3    H116029   3.211   5.681   3.071
 5341TIP3    H216030   3.064   5.716   3.080
 5342TIP3   OH216031   1.555   3.811   4.766
 5342TIP3    H116032   1.558   3.827   4.672
 5342TIP3    H216033   1.523   3.892   4.804
 5343TIP3   OH216034   0.002   0.211   4.760
 5343TIP3    H116035   0.045   0.147   4.703
 5343TIP3    H216036  -0.004   0.167   4.845
 5344TIP3   OH216037   3.178   1.017   4.515
 5344TIP3    H116038   3.180   0.928   4.550
 5344TIP3    H216039   3.204   1.072   4.589
 5345TIP3   OH216040   2.112   3.888   0.095
 5345TIP3    H116041   2.048   3.876   0.165
 5345TIP3    H216042   2.072   3.846   0.019
 5346TIP3   OH216043   2.959   0.889   2.227
 5346TIP3    H116044   3.020   0.880   2.154
 5346TIP3    H216045   3.012   0.877   2.305
 5347TIP3   OH216046   1.065   1.665   3.801
 5347TIP3    H116047   1.151   1.682   3.838
 5347TIP3    H216048   1.071   1.577   3.765
 5348TIP3   OH216049   4.800   1.422   4.331
 5348TIP3    H116050   4.826   1.333   4.310
 5348TIP3    H216051   4.782   1.463   4.247
 5349TIP3   OH216052   1.857   4.883   0.551
 5349TIP3    H116053   1.949   4.907   0.545
 5349TIP3    H216054   1.811   4.952   0.504
 5350TIP3   OH216055   1.693   1.977   3.015
 5350TIP3    H116056   1.769   2.019   3.055
 5350TIP3    H216057   1.682   2.021   2.931
 5351TIP3   OH216058   4.193   0.101   3.598
 5351TIP3    H116059   4.220   0.060   3.516
 5351TIP3    H216060   4.262   0.077   3.660
 5352TIP3   OH216061   5.720   1.168   4.979
 5352TIP3    H116062   5.740   1.259   4.997
 5352TIP3    H216063   5.742   1.156   4.887
 5353TIP3   OH216064   5.778   3.473   4.107
 5353TIP3    H116065   5.758   3.380   4.110
 5353TIP3    H216066   5.703   3.516   4.147
 5354TIP3   OH216067   0.131   4.398   4.794
 5354TIP3    H116068   0.072   4.365   4.862
 5354TIP3    H216069   0.191   4.456   4.840
 5355TIP3   OH216070   5.207   3.967   0.799
 5355TIP3    H116071   5.265   3.981   0.874
 5355TIP3    H216072   5.119   3.979   0.834
 5356TIP3   OH216073   2.076   1.240   1.610
 5356TIP3    H116074   2.099   1.263   1.700
 5356TIP3    H216075   2.022   1.314   1.580
 5357TIP3   OH216076   3.754   5.324   3.337
 5357TIP3    H116077   3.755   5.417   3.315
 5357TIP3    H216078   3.787   5.281   3.258
 5358TIP3   OH216079   1.012   0.023   0.754
 5358TIP3    H116080   1.055  -0.015   0.677
 5358TIP3    H216081   1.062  -0.009   0.829
 5359TIP3   OH216082   4.848   2.613   2.278
 5359TIP3    H116083   4.907   2.542   2.304
 5359TIP3    H216084   4.760   2.577   2.291
 5360TIP3   OH216085   4.334   2.231   1.116
 5360TIP3    H116086   4.296   2.190   1.038
 5360TIP3    H216087   4.320   2.167   1.185
 5361TIP3   OH216088   3.136   2.592   3.427
 5361TIP3    H116089   3.190   2.666   3.399
 5361TIP3    H216090   3.126   2.540   3.347
 5362TIP3   OH216091   3.976   0.569   5.133
 5362TIP3    H116092   3.991   0.635   5.066
 5362TIP3    H216093   3.933   0.616   5.204
 5363TIP3   OH216094   4.529   5.870   0.600
 5363TIP3    H116095   4.612   5.853   0.555
 5363TIP3    H216096   4.540   5.830   0.686
 5364TIP3   OH216097   1.698   2.900   1.497
 5364TIP3    H116098   1.753   2.944   1.561
 5364TIP3    H216099   1.665   2.823   1.542
 5365TIP3   OH216100   4.693   1.276   1.961
 5365TIP3    H116101   4.647   1.360   1.955
 5365TIP3    H216102   4.708   1.250   1.870
 5366TIP3   OH216103   4.153   2.242   4.227
 5366TIP3    H116104   4.238   2.257   4.186
 5366TIP3    H216105   4.096   2.214   4.156
 5367TIP3   OH216106   2.923   0.817   1.414
 5367TIP3    H116107   2.882   0.736   1.444
 5367TIP3    H216108   2.887   0.832   1.327
 5368TIP3   OH216109   2.662   5.652   4.069
 5368TIP3    H116110   2.696   5.695   3.990
 5368TIP3    H216111   2.681   5.713   4.140
 5369TIP3   OH216112   1.305   3.169   4.147
 5369TIP3    H116113   1.355   3.178   4.066
 5369TIP3    H216114   1.226   3.121   4.121
 5370TIP3   OH216115   1.965   5.399   1.125
 5370TIP3    H116116   1.907   5.448   1.183
 5370TIP3    H216117   2.041   5.456   1.114
 5371TIP3   OH216118   6.101   2.343   1.610
 5371TIP3    H116119   6.184   2.373   1.570
 5371TIP3    H216120   6.079   2.264   1.562
 5372TIP3   OH216121   1.042   3.114   0.122
 5372TIP3    H116122   1.088   3.041   0.164
 5372TIP3    H216123   0.985   3.072   0.058
 5373TIP3   OH216124   3.914   1.867   3.232
 5373TIP3    H116125   3.960   1.948   3.254
 5373TIP3    H216126   3.903   1.871   3.137
 5374TIP3   OH216127   0.985   4.908   3.835
 5374TIP3    H116128   0.991   5.000   3.862
 5374TIP3    H216129   1.074   4.874   3.847
 5375TIP3   OH216130   6.298   3.858   1.121
 5375TIP3    H116131   6.326   3.912   1.195
 5375TIP3    H216132   6.349   3.778   1.129
 5376TIP3   OH216133   0.205   3.233   0.813
 5376TIP3    H116134   0.198   3.155   0.758
 5376TIP3    H216135   0.295   3.263   0.801
 5377TIP3   OH216136   2.590   0.831   3.552
 5377TIP3    H116137   2.596   0.739   3.526
 5377TIP3    H216138   2.674   0.850   3.592
 5378TIP3   OH216139   4.955   4.576   4.109
 5378TIP3    H116140   4.903   4.505   4.147
 5378TIP3    H216141   5.043   4.564   4.145
 5379TIP3   OH216142   3.743   5.187   3.656
 5379TIP3    H116143   3.804   5.246   3.700
 5379TIP3    H216144   3.745   5.107   3.710
 5380TIP3   OH216145   2.730   4.551   2.611
 5380TIP3    H116146   2.743   4.473   2.558
 5380TIP3    H216147   2.659   4.528   2.671
 5381TIP3   OH216148   3.913   3.777   1.825
 5381TIP3    H116149   3.828   3.768   1.782
 5381TIP3    H216150   3.971   3.721   1.773
 5382TIP3   OH216151   2.579   0.816   3.049
 5382TIP3    H116152   2.523   0.882   3.006
 5382TIP3    H216153   2.519   0.747   3.076
 5383TIP3   OH216154   0.324   3.758   4.629
 5383TIP3    H116155   0.317   3.761   4.533
 5383TIP3    H216156   0.385   3.829   4.650
 5384TIP3   OH216157   5.490   2.854   4.069
 5384TIP3    H116158   5.447   2.774   4.039
 5384TIP3    H216159   5.460   2.864   4.160
 5385TIP3   OH216160   2.758   5.255   2.428
 5385TIP3    H116161   2.780   5.346   2.448
 5385TIP3    H216162   2.743   5.254   2.334
 5386TIP3   OH216163   5.029   5.729   2.365
 5386TIP3    H116164   4.933   5.734   2.367
 5386TIP3    H216165   5.058   5.818   2.385
 5387TIP3   OH216166   3.313   0.229   3.491
 5387TIP3    H116167   3.345   0.298   3.548
 5387TIP3    H216168   3.248   0.272   3.436
 5388TIP3   OH216169   4.787   3.960   0.153
 5388TIP3    H116170   4.835   3.896   0.101
 5388TIP3    H216171   4.762   3.913   0.232
 5389TIP3   OH216172   4.350   0.180   1.858
 5389TIP3    H116173   4.435   0.190   1.902
 5389TIP3    H216174   4.301   0.121   1.914
 5390TIP3   OH216175   1.189   1.674   4.318
 5390TIP3    H116176   1.231   1.666   4.404
 5390TIP3    H216177   1.140   1.592   4.309
 5391TIP3   OH216178   5.791   4.839   1.024
 5391TIP3    H116179   5.775   4.766   1.082
 5391TIP3    H216180   5.878   4.823   0.988
 5392TIP3   OH216181   3.166   4.062   3.068
 5392TIP3    H116182   3.183   3.982   3.117
 5392TIP3    H216183   3.251   4.089   3.034
 5393TIP3   OH216184   0.487   2.069   2.226
 5393TIP3    H116185   0.510   2.020   2.147
 5393TIP3    H216186   0.489   2.161   2.199
 5394TIP3   OH216187   1.953   1.958   4.508
 5394TIP3    H116188   1.976   1.880   4.458
 5394TIP3    H216189   2.031   1.977   4.560
 5395TIP3   OH216190   0.060   4.102   2.936
 5395TIP3    H116191   0.029   4.149   3.013
 5395TIP3    H216192   0.039   4.010   2.954
 5396TIP3   OH216193   3.906   0.785   0.618
 5396TIP3    H116194   3.929   0.695   0.597
 5396TIP3    H216195   3.947   0.801   0.703
 5397TIP3   OH216196   3.468   3.390   1.079
 5397TIP3    H116197   3.419   3.471   1.065
 5397TIP3    H216198   3.505   3.399   1.167
 5398TIP3   OH216199   0.106   2.300   2.860
 5398TIP3    H116200   0.093   2.208   2.835
 5398TIP3    H216201   0.196   2.320   2.833
 5399TIP3   OH216202   2.077   1.728   1.212
 5399TIP3    H116203   2.074   1.637   1.241
 5399TIP3    H216204   1.997   1.767   1.248
 5400TIP3   OH216205   3.622   3.955   3.876
 5400TIP3    H116206   3.684   4.015   3.837
 5400TIP3    H216207   3.537   3.984   3.843
 5401TIP3   OH216208   5.432   5.134   2.792
 5401TIP3    H116209   5.348   5.090   2.780
 5401TIP3    H216210   5.412   5.227   2.784
 5402TIP3   OH216211   5.642   4.346   1.191
 5402TIP3    H116212   5.685   4.347   1.277
 5402TIP3    H216213   5.569   4.408   1.200
 5403TIP3   OH216214   5.029   5.474   3.127
 5403TIP3    H116215   5.054   5.393   3.084
 5403TIP3    H216216   4.972   5.446   3.200
 5404TIP3   OH216217   0.722   0.113   1.102
 5404TIP3    H116218   0.714   0.085   1.011
 5404TIP3    H216219   0.816   0.111   1.120
 5405TIP3   OH216220   1.553   3.650   3.124
 5405TIP3    H116221   1.608   3.624   3.051
 5405TIP3    H216222   1.590   3.606   3.200
 5406TIP3   OH216223   5.051   0.375   2.013
 5406TIP3    H116224   5.093   0.359   2.097
 5406TIP3    H216225   5.121   0.361   1.949
 5407TIP3   OH216226   5.074   2.720   2.117
 5407TIP3    H116227   4.982   2.703   2.137
 5407TIP3    H216228   5.122   2.667   2.181
 5408TIP3   OH216229   3.204   2.245   2.812
 5408TIP3    H116230   3.115   2.228   2.842
 5408TIP3    H216231   3.248   2.284   2.888
 5409TIP3   OH216232   5.724   4.608   1.141
 5409TIP3    H116233   5.632   4.624   1.162
 5409TIP3    H216234   5.731   4.514   1.129
 5410TIP3   OH216235   6.172   1.419   2.909
 5410TIP3    H116236   6.150   1.483   2.977
 5410TIP3    H216237   6.097   1.419   2.851
 5411TIP3   OH216238   1.287   0.584   1.058
 5411TIP3    H116239   1.225   0.524   1.018
 5411TIP3    H216240   1.373   0.553   1.029
 5412TIP3   OH216241   4.604   0.657   3.640
 5412TIP3    H116242   4.532   0.618   3.591
 5412TIP3    H216243   4.682   0.610   3.611
 5413TIP3   OH216244   4.265   3.715   4.125
 5413TIP3    H116245   4.212   3.788   4.156
 5413TIP3    H216246   4.305   3.747   4.044
 5414TIP3   OH216247   1.324   3.698   2.446
 5414TIP3    H116248   1.249   3.657   2.488
 5414TIP3    H216249   1.388   3.708   2.516
 5415TIP3   OH216250   5.901   4.332   0.889
 5415TIP3    H116251   5.898   4.399   0.821
 5415TIP3    H216252   5.968   4.362   0.950
 5416TIP3   OH216253   1.911   4.623   0.537
 5416TIP3    H116254   1.882   4.618   0.628
 5416TIP3    H216255   1.901   4.715   0.513
 5417TIP3   OH216256   5.689   4.147   0.986
 5417TIP3    H116257   5.634   4.212   1.030
 5417TIP3    H216258   5.751   4.199   0.935
 5418TIP3   OH216259   4.787   4.726   1.005
 5418TIP3    H116260   4.717   4.727   0.939
 5418TIP3    H216261   4.778   4.642   1.049
 5419TIP3   OH216262   5.393   4.220   3.398
 5419TIP3    H116263   5.441   4.207   3.316
 5419TIP3    H216264   5.459   4.250   3.460
 5420TIP3   OH216265   5.927   4.668   1.351
 5420TIP3    H116266   6.021   4.680   1.352
 5420TIP3    H216267   5.905   4.654   1.259
 5421TIP3   OH216268   4.201   0.279   4.355
 5421TIP3    H116269   4.208   0.278   4.259
 5421TIP3    H216270   4.170   0.191   4.377
 5422TIP3   OH216271   2.421   4.239   2.871
 5422TIP3    H116272   2.494   4.250   2.931
 5422TIP3    H216273   2.344   4.234   2.928
 5423TIP3   OH216274   3.800   5.117   4.383
 5423TIP3    H116275   3.742   5.164   4.443
 5423TIP3    H216276   3.781   5.154   4.297
 5424TIP3   OH216277   0.310   0.298   4.173
 5424TIP3    H116278   0.227   0.345   4.163
 5424TIP3    H216279   0.371   0.347   4.118
 5425TIP3   OH216280   4.156   0.894   0.331
 5425TIP3    H116281   4.141   0.807   0.368
 5425TIP3    H216282   4.234   0.926   0.377
 5426TIP3   OH216283   1.156   0.540   1.765
 5426TIP3    H116284   1.151   0.551   1.670
 5426TIP3    H216285   1.095   0.605   1.799
 5427TIP3   OH216286   2.004   3.114   4.783
 5427TIP3    H116287   2.005   3.039   4.843
 5427TIP3    H216288   2.081   3.166   4.808
 5428TIP3   OH216289   1.008   3.733   3.257
 5428TIP3    H116290   0.998   3.650   3.209
 5428TIP3    H216291   1.094   3.764   3.231
 5429TIP3   OH216292   0.782   1.635   4.934
 5429TIP3    H116293   0.749   1.549   4.908
 5429TIP3    H216294   0.724   1.697   4.891
 5430TIP3   OH216295   1.963   0.492   3.164
 5430TIP3    H116296   1.911   0.533   3.233
 5430TIP3    H216297   1.988   0.406   3.201
 5431TIP3   OH216298   6.238   0.171   0.043
 5431TIP3    H116299   6.211   0.216   0.123
 5431TIP3    H216300   6.158   0.163  -0.008
 5432TIP3   OH216301   6.096   3.915   4.420
 5432TIP3    H116302   6.107   3.834   4.470
 5432TIP3    H216303   6.029   3.964   4.468
 5433TIP3   OH216304   0.676   0.131   0.301
 5433TIP3    H116305   0.693   0.142   0.394
 5433TIP3    H216306   0.581   0.120   0.295
 5434TIP3   OH216307   0.653   3.150   1.065
 5434TIP3    H116308   0.628   3.242   1.072
 5434TIP3    H216309   0.581   3.102   1.105
 5435TIP3   OH216310   0.381   1.527   4.338
 5435TIP3    H116311   0.475   1.534   4.320
 5435TIP3    H216312   0.354   1.617   4.358
 5436TIP3   OH216313   5.150   4.460   4.889
 5436TIP3    H116314   5.129   4.410   4.810
 5436TIP3    H216315   5.214   4.526   4.859
 5437TIP3   OH216316   0.903   3.766   2.740
 5437TIP3    H116317   0.827   3.821   2.721
 5437TIP3    H216318   0.975   3.828   2.748
 5438TIP3   OH216319   1.192   5.467   4.972
 5438TIP3    H116320   1.239   5.456   5.054
 5438TIP3    H216321   1.100   5.476   4.997
 5439TIP3   OH216322   5.144   1.723   1.154
 5439TIP3    H116323   5.206   1.781   1.198
 5439TIP3    H216324   5.140   1.646   1.210
 5440TIP3   OH216325   4.263   5.438   0.795
 5440TIP3    H116326   4.350   5.397   0.791
 5440TIP3    H216327   4.202   5.368   0.773
 5441TIP3   OH216328   6.202   3.553   1.843
 5441TIP3    H116329   6.246   3.633   1.816
 5441TIP3    H216330   6.139   3.581   1.910
 5442TIP3   OH216331   5.158   3.554   0.217
 5442TIP3    H116332   5.165   3.648   0.231
 5442TIP3    H216333   5.200   3.539   0.132
 5443TIP3   OH216334   1.308   2.639   4.283
 5443TIP3    H116335   1.256   2.719   4.288
 5443TIP3    H216336   1.377   2.658   4.220
 5444TIP3   OH216337   2.069   2.121   0.901
 5444TIP3    H116338   2.043   2.032   0.879
 5444TIP3    H216339   2.123   2.112   0.979
 5445TIP3   OH216340   3.275   3.556   4.383
 5445TIP3    H116341   3.215   3.512   4.324
 5445TIP3    H216342   3.282   3.498   4.459
 5446TIP3   OH216343   6.346   3.147   4.642
 5446TIP3    H116344   6.277   3.169   4.580
 5446TIP3    H216345   6.317   3.184   4.725
 5447TIP3   OH216346   2.482   4.350   4.562
 5447TIP3    H116347   2.418   4.407   4.520
 5447TIP3    H216348   2.540   4.410   4.609
 5448TIP3   OH216349   0.760   0.740   4.559
 5448TIP3    H116350   0.776   0.772   4.470
 5448TIP3    H216351   0.844   0.702   4.586
 5449TIP3   OH216352   2.625   0.092   2.362
 5449TIP3    H116353   2.610   0.044   2.444
 5449TIP3    H216354   2.592   0.180   2.379
 5450TIP3   OH216355   4.313   2.887   1.760
 5450TIP3    H116356   4.329   2.849   1.674
 5450TIP3    H216357   4.386   2.947   1.774
 5451TIP3   OH216358   5.580   4.527   2.431
 5451TIP3    H116359   5.602   4.570   2.348
 5451TIP3    H216360   5.659   4.481   2.456
 5452TIP3   OH216361   1.622   1.929   0.253
 5452TIP3    H116362   1.677   1.940   0.330
 5452TIP3    H216363   1.670   1.972   0.183
 5453TIP3   OH216364   2.919   5.339   3.175
 5453TIP3    H116365   2.962   5.262   3.136
 5453TIP3    H216366   2.893   5.309   3.262
 5454TIP3   OH216367   3.644   5.125   2.210
 5454TIP3    H116368   3.635   5.159   2.121
 5454TIP3    H216369   3.622   5.032   2.203
 5455TIP3   OH216370   1.746   4.326   0.417
 5455TIP3    H116371   1.759   4.420   0.408
 5455TIP3    H216372   1.651   4.314   0.413
 5456TIP3   OH216373   5.917   1.616   4.368
 5456TIP3    H116374   5.999   1.578   4.336
 5456TIP3    H216375   5.915   1.594   4.461
 5457TIP3   OH216376   1.807   4.169   2.996
 5457TIP3    H116377   1.720   4.138   3.019
 5457TIP3    H216378   1.797   4.208   2.909
 5458TIP3   OH216379   5.713   2.276   4.473
 5458TIP3    H116380   5.773   2.224   4.527
 5458TIP3    H216381   5.746   2.366   4.480
 5459TIP3   OH216382   4.649   4.380   0.953
 5459TIP3    H116383   4.585   4.364   1.023
 5459TIP3    H216384   4.599   4.371   0.872
 5460TIP3   OH216385   4.151   3.169   0.787
 5460TIP3    H116386   4.116   3.229   0.721
 5460TIP3    H216387   4.079   3.156   0.849
 5461TIP3   OH216388   5.079   3.127   0.160
 5461TIP3    H116389   5.150   3.171   0.206
 5461TIP3    H216390   5.007   3.190   0.160
 5462TIP3   OH216391   4.393   4.515   1.302
 5462TIP3    H116392   4.314   4.513   1.247
 5462TIP3    H216393   4.431   4.601   1.286
 5463TIP3   OH216394   6.176   0.797   1.831
 5463TIP3    H116395   6.166   0.886   1.798
 5463TIP3    H216396   6.096   0.752   1.802
 5464TIP3   OH216397   4.548   0.467   0.292
 5464TIP3    H116398   4.601   0.390   0.314
 5464TIP3    H216399   4.567   0.530   0.361
 5465TIP3   OH216400   1.710   3.763   3.460
 5465TIP3    H116401   1.682   3.850   3.431
 5465TIP3    H216402   1.729   3.774   3.553
 5466TIP3   OH216403   2.773   2.984   3.933
 5466TIP3    H116404   2.786   2.890   3.942
 5466TIP3    H216405   2.851   3.015   3.888
 5467TIP3   OH216406   0.511   4.113   3.546
 5467TIP3    H116407   0.462   4.188   3.579
 5467TIP3    H216408   0.483   4.040   3.601
 5468TIP3   OH216409   2.335   5.009   1.166
 5468TIP3    H116410   2.405   4.944   1.158
 5468TIP3    H216411   2.371   5.089   1.127
 5469TIP3   OH216412   3.262   5.623   3.734
 5469TIP3    H116413   3.266   5.575   3.651
 5469TIP3    H216414   3.292   5.560   3.799
 5470TIP3   OH216415   1.211   5.824   2.686
 5470TIP3    H116416   1.159   5.832   2.766
 5470TIP3    H216417   1.207   5.911   2.645
 5471TIP3   OH216418   4.780   3.260   2.032
 5471TIP3    H116419   4.790   3.298   1.945
 5471TIP3    H216420   4.869   3.245   2.062
 5472TIP3   OH216421   5.662   1.780   2.584
 5472TIP3    H116422   5.601   1.795   2.512
 5472TIP3    H216423   5.729   1.848   2.573
 5473TIP3   OH216424   5.096   5.027   2.490
 5473TIP3    H116425   5.092   5.092   2.420
 5473TIP3    H216426   5.007   5.025   2.526
 5474TIP3   OH216427   0.704   1.986   4.038
 5474TIP3    H116428   0.683   2.033   4.119
 5474TIP3    H216429   0.715   2.055   3.973
 5475TIP3   OH216430   6.308   0.451   2.943
 5475TIP3    H116431   6.377   0.440   3.009
 5475TIP3    H216432   6.228   0.422   2.987
 5476TIP3   OH216433   3.876   1.465   4.374
 5476TIP3    H116434   3.901   1.375   4.391
 5476TIP3    H216435   3.937   1.518   4.426
 5477TIP3   OH216436   4.100   5.982   5.088
 5477TIP3    H116437   4.185   5.941   5.071
 5477TIP3    H216438   4.085   5.970   5.182
 5478TIP3   OH216439   2.970   4.654   0.022
 5478TIP3    H116440   2.939   4.619  -0.061
 5478TIP3    H216441   2.994   4.745   0.003
 5479TIP3   OH216442   3.482   0.785   3.537
 5479TIP3    H116443   3.405   0.838   3.517
 5479TIP3    H216444   3.535   0.839   3.595
 5480TIP3   OH216445   1.897   3.585   3.956
 5480TIP3    H116446   1.923   3.494   3.974
 5480TIP3    H216447   1.831   3.577   3.887
 5481TIP3   OH216448   0.563   5.106   1.680
 5481TIP3    H116449   0.512   5.167   1.628
 5481TIP3    H216450   0.601   5.046   1.616
 5482TIP3   OH216451   2.119   0.544   3.453
 5482TIP3    H116452   2.156   0.614   3.507
 5482TIP3    H216453   2.026   0.544   3.474
 5483TIP3   OH216454   0.233   5.329   3.754
 5483TIP3    H116455   0.305   5.266   3.755
 5483TIP3    H216456   0.163   5.285   3.705
 5484TIP3   OH216457   4.805   4.906   1.217
 5484TIP3    H116458   4.756   4.984   1.191
 5484TIP3    H216459   4.813   4.854   1.138
 5485TIP3   OH216460   1.840   4.675   2.944
 5485TIP3    H116461   1.881   4.759   2.963
 5485TIP3    H216462   1.904   4.629   2.889
 5486TIP3   OH216463   3.662   2.915   2.618
 5486TIP3    H116464   3.742   2.877   2.656
 5486TIP3    H216465   3.689   2.946   2.532
 5487TIP3   OH216466   1.209   2.511   1.797
 5487TIP3    H116467   1.190   2.491   1.705
 5487TIP3    H216468   1.176   2.436   1.846
 5488TIP3   OH216469   0.103   3.570   0.249
 5488TIP3    H116470   0.014   3.534   0.246
 5488TIP3    H216471   0.108   3.625   0.171
 5489TIP3   OH216472   2.228   2.685   1.859
 5489TIP3    H116473   2.319   2.685   1.828
 5489TIP3    H216474   2.176   2.665   1.782
 5490TIP3   OH216475   3.544   0.875   0.889
 5490TIP3    H116476   3.500   0.823   0.957
 5490TIP3    H216477   3.481   0.877   0.817
 5491TIP3   OH216478   0.691   2.927   3.330
 5491TIP3    H116479   0.681   3.022   3.323
 5491TIP3    H216480   0.623   2.890   3.273
 5492TIP3   OH216481   5.271   4.809   3.474
 5492TIP3    H116482   5.283   4.903   3.486
 5492TIP3    H216483   5.360   4.774   3.466
 5493TIP3   OH216484   3.947   4.116   1.105
 5493TIP3    H116485   3.865   4.124   1.154
 5493TIP3    H216486   3.988   4.036   1.138
 5494TIP3   OH216487   2.076   0.307   4.277
 5494TIP3    H116488   2.020   0.251   4.331
 5494TIP3    H216489   2.092   0.254   4.199
 5495TIP3   OH216490   5.746   1.283   4.178
 5495TIP3    H116491   5.751   1.371   4.140
 5495TIP3    H216492   5.674   1.289   4.241
 5496TIP3   OH216493   0.961   5.355   3.512
 5496TIP3    H116494   1.034   5.335   3.571
 5496TIP3    H216495   0.901   5.407   3.565
 5497TIP3   OH216496   2.701   1.641   3.833
 5497TIP3    H116497   2.660   1.670   3.914
 5497TIP3    H216498   2.751   1.563   3.858
 5498TIP3   OH216499   0.617   1.552   4.164
 5498TIP3    H116500   0.568   1.635   4.168
 5498TIP3    H216501   0.707   1.579   4.143
 5499TIP3   OH216502   3.511   0.362   4.417
 5499TIP3    H116503   3.535   0.324   4.502
 5499TIP3    H216504   3.420   0.388   4.428
 5500TIP3   OH216505   6.229   0.490   0.707
 5500TIP3    H116506   6.177   0.557   0.752
 5500TIP3    H216507   6.305   0.538   0.673
 5501TIP3   OH216508   4.713   3.635   3.241
 5501TIP3    H116509   4.629   3.596   3.267
 5501TIP3    H216510   4.729   3.703   3.306
 5502TIP3   OH216511   4.596   0.341   1.377
 5502TIP3    H116512   4.568   0.250   1.372
 5502TIP3    H216513   4.566   0.380   1.294
 5503TIP3   OH216514   0.188   5.113   3.974
 5503TIP3    H116515   0.154   5.202   3.964
 5503TIP3    H216516   0.278   5.118   3.942
 5504TIP3   OH216517   0.217   1.890   4.951
 5504TIP3    H116518   0.249   1.889   4.861
 5504TIP3    H216519   0.179   1.804   4.964
 5505TIP3   OH216520   1.196   3.637   3.844
 5505TIP3    H116521   1.140   3.713   3.860
 5505TIP3    H216522   1.175   3.576   3.915
 5506TIP3   OH216523   2.405   4.998   0.071
 5506TIP3    H116524   2.354   4.952   0.004
 5506TIP3    H216525   2.488   4.951   0.074
 5507TIP3   OH216526   3.620   2.312   2.965
 5507TIP3    H116527   3.695   2.356   2.926
 5507TIP3    H216528   3.560   2.297   2.892
 5508TIP3   OH216529   6.218   4.124   0.284
 5508TIP3    H116530   6.198   4.035   0.312
 5508TIP3    H216531   6.219   4.120   0.188
 5509TIP3   OH216532   4.476   5.034   4.631
 5509TIP3    H116533   4.570   5.045   4.615
 5509TIP3    H216534   4.435   5.046   4.546
 5510TIP3   OH216535   3.546   4.913   1.442
 5510TIP3    H116536   3.615   4.909   1.509
 5510TIP3    H216537   3.575   4.983   1.383
 5511TIP3   OH216538   1.376   1.645   1.005
 5511TIP3    H116539   1.450   1.667   1.061
 5511TIP3    H216540   1.349   1.557   1.033
 5512TIP3   OH216541   1.356   5.569   4.796
 5512TIP3    H116542   1.444   5.536   4.810
 5512TIP3    H216543   1.302   5.519   4.857
 5513TIP3   OH216544   1.881   2.989   3.732
 5513TIP3    H116545   1.867   2.958   3.643
 5513TIP3    H216546   1.895   2.909   3.783
 5514TIP3   OH216547   4.308   2.490   1.138
 5514TIP3    H116548   4.306   2.403   1.098
 5514TIP3    H216549   4.298   2.474   1.232
 5515TIP3   OH216550   5.256   1.232   2.244
 5515TIP3    H116551   5.326   1.230   2.178
 5515TIP3    H216552   5.302   1.216   2.327
 5516TIP3   OH216553   5.957   1.898   0.821
 5516TIP3    H116554   5.945   1.977   0.768
 5516TIP3    H216555   6.037   1.858   0.787
 5517TIP3   OH216556   4.144   2.718   0.939
 5517TIP3    H116557   4.154   2.808   0.970
 5517TIP3    H216558   4.143   2.665   1.019
 5518TIP3   OH216559   6.154   5.414   4.572
 5518TIP3    H116560   6.147   5.496   4.621
 5518TIP3    H216561   6.185   5.350   4.635
 5519TIP3   OH216562   5.416   4.719   0.022
 5519TIP3    H116563   5.380   4.690   0.105
 5519TIP3    H216564   5.509   4.736   0.041
 5520TIP3   OH216565   5.830   5.932   2.783
 5520TIP3    H116566   5.821   5.908   2.876
 5520TIP3    H216567   5.751   5.983   2.764
 5521TIP3   OH216568   1.674   1.517   2.722
 5521TIP3    H116569   1.602   1.455   2.738
 5521TIP3    H216570   1.633   1.590   2.676
 5522TIP3   OH216571   1.373   5.537   2.739
 5522TIP3    H116572   1.411   5.482   2.670
 5522TIP3    H216573   1.448   5.579   2.780
 5523TIP3   OH216574   2.993   0.859   3.492
 5523TIP3    H116575   3.063   0.793   3.497
 5523TIP3    H216576   3.032   0.931   3.442
 5524TIP3   OH216577   1.677   1.624   0.654
 5524TIP3    H116578   1.690   1.533   0.681
 5524TIP3    H216579   1.634   1.617   0.569
 5525TIP3   OH216580   0.222   5.531   2.956
 5525TIP3    H116581   0.274   5.585   2.898
 5525TIP3    H216582   0.221   5.579   3.039
 5526TIP3   OH216583   4.453   5.305   3.828
 5526TIP3    H116584   4.415   5.316   3.741
 5526TIP3    H216585   4.456   5.210   3.841
 5527TIP3   OH216586   2.358   0.332   3.254
 5527TIP3    H116587   2.292   0.311   3.320
 5527TIP3    H216588   2.402   0.410   3.289
 5528TIP3   OH216589   4.254   4.051   0.036
 5528TIP3    H116590   4.214   3.988   0.096
 5528TIP3    H216591   4.236   4.136   0.076
 5529TIP3   OH216592   6.160   0.520   0.099
 5529TIP3    H116593   6.103   0.584   0.142
 5529TIP3    H216594   6.137   0.436   0.139
 5530TIP3   OH216595   0.409   5.864   2.217
 5530TIP3    H116596   0.447   5.932   2.273
 5530TIP3    H216597   0.329   5.837   2.263
 5531TIP3   OH216598   1.910   0.076   1.938
 5531TIP3    H116599   2.005   0.066   1.938
 5531TIP3    H216600   1.887   0.088   1.846
 5532TIP3   OH216601   4.197   0.401   3.125
 5532TIP3    H116602   4.188   0.473   3.186
 5532TIP3    H216603   4.209   0.323   3.180
 5533TIP3   OH216604   0.533   2.005   3.365
 5533TIP3    H116605   0.541   1.963   3.450
 5533TIP3    H216606   0.552   2.097   3.382
 5534TIP3   OH216607   1.940   3.194   1.982
 5534TIP3    H116608   1.860   3.233   2.016
 5534TIP3    H216609   1.948   3.110   2.029
 5535TIP3   OH216610   3.559   5.529   1.021
 5535TIP3    H116611   3.609   5.492   0.948
 5535TIP3    H216612   3.475   5.555   0.982
 5536TIP3   OH216613   4.584   2.201   0.673
 5536TIP3    H116614   4.552   2.291   0.664
 5536TIP3    H216615   4.544   2.154   0.600
 5537TIP3   OH216616   3.684   5.727   0.266
 5537TIP3    H116617   3.616   5.780   0.307
 5537TIP3    H216618   3.659   5.637   0.287
 5538TIP3   OH216619   6.017   0.567   3.516
 5538TIP3    H116620   6.051   0.602   3.598
 5538TIP3    H216621   5.981   0.643   3.470
 5539TIP3   OH216622   6.023   5.364   4.264
 5539TIP3    H116623   5.956   5.315   4.216
 5539TIP3    H216624   6.084   5.297   4.295
 5540TIP3   OH216625   6.084   4.241   3.275
 5540TIP3    H116626   5.993   4.240   3.243
 5540TIP3    H216627   6.076   4.250   3.370
 5541TIP3   OH216628   5.320   5.930   2.522
 5541TIP3    H116629   5.371   6.010   2.536
 5541TIP3    H216630   5.343   5.901   2.434
 5542TIP3   OH216631   0.816   2.138   0.772
 5542TIP3    H116632   0.726   2.106   0.773
 5542TIP3    H216633   0.870   2.058   0.770
 5543TIP3   OH216634   3.315   1.013   4.761
 5543TIP3    H116635   3.305   1.052   4.848
 5543TIP3    H216636   3.301   0.919   4.776
 5544TIP3   OH216637   4.306   0.825   0.580
 5544TIP3    H116638   4.378   0.814   0.518
 5544TIP3    H216639   4.254   0.746   0.571
 5545TIP3   OH216640   2.931   0.810   4.612
 5545TIP3    H116641   3.007   0.753   4.600
 5545TIP3    H216642   2.945   0.851   4.697
 5546TIP3   OH216643   1.525   1.822   3.664
 5546TIP3    H116644   1.523   1.784   3.752
 5546TIP3    H216645   1.563   1.909   3.677
 5547TIP3   OH216646   5.999   2.713   4.712
 5547TIP3    H116647   5.934   2.665   4.660
 5547TIP3    H216648   6.008   2.662   4.792
 5548TIP3   OH216649   6.092   3.920   1.553
 5548TIP3    H116650   6.048   3.966   1.481
 5548TIP3    H216651   6.148   3.855   1.509
 5549TIP3   OH216652   3.335   1.423   0.098
 5549TIP3    H116653   3.418   1.382   0.073
 5549TIP3    H216654   3.268   1.364   0.064
 5550TIP3   OH216655   1.233   2.099   1.782
 5550TIP3    H116656   1.295   2.025   1.786
 5550TIP3    H216657   1.254   2.143   1.700
 5551TIP3   OH216658   2.545   3.681   3.898
 5551TIP3    H116659   2.542   3.588   3.873
 5551TIP3    H216660   2.479   3.723   3.843
 5552TIP3   OH216661   5.103   1.617   4.545
 5552TIP3    H116662   5.169   1.671   4.503
 5552TIP3    H216663   5.020   1.645   4.506
 5553TIP3   OH216664   4.405   5.184   1.124
 5553TIP3    H116665   4.348   5.136   1.064
 5553TIP3    H216666   4.377   5.275   1.115
 5554TIP3   OH216667   1.582   1.520   3.007
 5554TIP3    H116668   1.509   1.460   3.024
 5554TIP3    H216669   1.552   1.574   2.934
 5555TIP3   OH216670   2.723   5.458   1.593
 5555TIP3    H116671   2.633   5.451   1.562
 5555TIP3    H216672   2.725   5.404   1.672
 5556TIP3   OH216673   5.918   4.014   4.105
 5556TIP3    H116674   5.893   4.104   4.128
 5556TIP3    H216675   6.013   4.013   4.116
 5557TIP3   OH216676   3.280   2.704   2.410
 5557TIP3    H116677   3.293   2.798   2.422
 5557TIP3    H216678   3.337   2.663   2.474
 5558TIP3   OH216679   4.713   4.287   1.699
 5558TIP3    H116680   4.766   4.338   1.637
 5558TIP3    H216681   4.722   4.333   1.782
 5559TIP3   OH216682   2.277   0.971   5.006
 5559TIP3    H116683   2.289   0.912   5.081
 5559TIP3    H216684   2.210   1.033   5.034
 5560TIP3   OH216685   3.415   0.309   5.077
 5560TIP3    H116686   3.379   0.354   5.154
 5560TIP3    H216687   3.506   0.290   5.101
 5561TIP3   OH216688   3.221   1.620   0.613
 5561TIP3    H116689   3.289   1.563   0.650
 5561TIP3    H216690   3.151   1.560   0.586
 5562TIP3   OH216691   1.951   5.070   3.969
 5562TIP3    H116692   1.937   5.005   4.038
 5562TIP3    H216693   2.008   5.136   4.010
 5563TIP3   OH216694   0.248   0.427   0.742
 5563TIP3    H116695   0.261   0.517   0.710
 5563TIP3    H216696   0.182   0.390   0.683
 5564TIP3   OH216697   2.468   3.084   1.709
 5564TIP3    H116698   2.397   3.119   1.763
 5564TIP3    H216699   2.486   3.154   1.646
 5565TIP3   OH216700   3.149   4.803   2.901
 5565TIP3    H116701   3.065   4.840   2.876
 5565TIP3    H216702   3.214   4.856   2.854
 5566TIP3   OH216703   2.959   5.640   3.682
 5566TIP3    H116704   3.025   5.696   3.724
 5566TIP3    H216705   3.006   5.598   3.610
 5567TIP3   OH216706   1.280   4.542   3.184
 5567TIP3    H116707   1.256   4.594   3.261
 5567TIP3    H216708   1.356   4.491   3.212
 5568TIP3   OH216709   0.903   1.743   3.582
 5568TIP3    H116710   0.929   1.697   3.662
 5568TIP3    H216711   0.809   1.727   3.574
 5569TIP3   OH216712   5.299   2.500   0.270
 5569TIP3    H116713   5.375   2.507   0.213
 5569TIP3    H216714   5.230   2.547   0.223
 5570TIP3   OH216715   3.343   4.333   1.653
 5570TIP3    H116716   3.431   4.323   1.616
 5570TIP3    H216717   3.330   4.254   1.706
 5571TIP3   OH216718   2.225   2.255   3.769
 5571TIP3    H116719   2.257   2.232   3.682
 5571TIP3    H216720   2.271   2.336   3.791
 5572TIP3   OH216721   1.424   4.714   0.951
 5572TIP3    H116722   1.437   4.803   0.917
 5572TIP3    H216723   1.339   4.687   0.916
 5573TIP3   OH216724   5.318   1.135   1.308
 5573TIP3    H116725   5.244   1.172   1.261
 5573TIP3    H216726   5.351   1.206   1.362
 5574TIP3   OH216727   1.469   4.246   2.469
 5574TIP3    H116728   1.528   4.210   2.535
 5574TIP3    H216729   1.388   4.263   2.516
 5575TIP3   OH216730   3.404   4.772   0.077
 5575TIP3    H116731   3.457   4.806   0.149
 5575TIP3    H216732   3.346   4.708   0.118
 5576TIP3   OH216733   0.781   1.961   4.526
 5576TIP3    H116734   0.780   2.034   4.588
 5576TIP3    H216735   0.839   1.896   4.566
 5577TIP3   OH216736   0.350   1.588   4.645
 5577TIP3    H116737   0.412   1.519   4.666
 5577TIP3    H216738   0.404   1.661   4.617
 5578TIP3   OH216739   2.605   2.735   2.105
 5578TIP3    H116740   2.556   2.781   2.037
 5578TIP3    H216741   2.661   2.673   2.058
 5579TIP3   OH216742   1.229   3.290   4.547
 5579TIP3    H116743   1.169   3.279   4.620
 5579TIP3    H216744   1.173   3.299   4.470
 5580TIP3   OH216745   1.315   2.914   2.901
 5580TIP3    H116746   1.354   2.923   2.988
 5580TIP3    H216747   1.378   2.956   2.842
 5581TIP3   OH216748   0.132   2.573   2.555
 5581TIP3    H116749   0.048   2.570   2.602
 5581TIP3    H216750   0.198   2.558   2.623
 5582TIP3   OH216751   2.923   1.862   0.390
 5582TIP3    H116752   2.953   1.849   0.300
 5582TIP3    H216753   3.002   1.883   0.439
 5583TIP3   OH216754   4.569   0.276   4.694
 5583TIP3    H116755   4.539   0.293   4.605
 5583TIP3    H216756   4.522   0.197   4.720
 5584TIP3   OH216757   2.435   5.667   0.461
 5584TIP3    H116758   2.453   5.713   0.542
 5584TIP3    H216759   2.497   5.704   0.398
 5585TIP3   OH216760   2.282   3.330   2.342
 5585TIP3    H116761   2.267   3.235   2.348
 5585TIP3    H216762   2.195   3.369   2.355
 5586TIP3   OH216763   2.670   0.521   0.511
 5586TIP3    H116764   2.752   0.477   0.534
 5586TIP3    H216765   2.604   0.451   0.512
 5587TIP3   OH216766   3.892   3.716   1.291
 5587TIP3    H116767   3.851   3.792   1.332
 5587TIP3    H216768   3.907   3.655   1.363
 5588TIP3   OH216769   5.765   2.079   3.909
 5588TIP3    H116770   5.832   2.131   3.863
 5588TIP3    H216771   5.694   2.141   3.926
 5589TIP3   OH216772   2.287   3.645   3.216
 5589TIP3    H116773   2.304   3.614   3.305
 5589TIP3    H216774   2.256   3.735   3.227
 5590TIP3   OH216775   0.914   0.483   5.022
 5590TIP3    H116776   0.824   0.449   5.025
 5590TIP3    H216777   0.906   0.568   4.979
 5591TIP3   OH216778   6.088   3.633   4.413
 5591TIP3    H116779   6.174   3.638   4.453
 5591TIP3    H216780   6.105   3.610   4.321
 5592TIP3   OH216781   2.762   5.202   2.150
 5592TIP3    H116782   2.720   5.116   2.149
 5592TIP3    H216783   2.851   5.185   2.117
 5593TIP3   OH216784   5.703   0.770   4.240
 5593TIP3    H116785   5.654   0.688   4.235
 5593TIP3    H216786   5.732   0.776   4.331
 5594TIP3   OH216787   0.511   1.352   0.815
 5594TIP3    H116788   0.581   1.287   0.820
 5594TIP3    H216789   0.499   1.366   0.721
 5595TIP3   OH216790   0.227   5.605   2.505
 5595TIP3    H116791   0.151   5.554   2.532
 5595TIP3    H216792   0.297   5.540   2.494
 5596TIP3   OH216793   5.322   2.317   2.973
 5596TIP3    H116794   5.417   2.309   2.980
 5596TIP3    H216795   5.291   2.228   2.958
 5597TIP3   OH216796   3.286   3.441   0.210
 5597TIP3    H116797   3.244   3.355   0.216
 5597TIP3    H216798   3.298   3.455   0.116
 5598TIP3   OH216799   3.845   2.614   3.816
 5598TIP3    H116800   3.793   2.618   3.896
 5598TIP3    H216801   3.922   2.668   3.834
 5599TIP3   OH216802   4.319   2.438   3.275
 5599TIP3    H116803   4.288   2.510   3.330
 5599TIP3    H216804   4.354   2.374   3.337
 5600TIP3   OH216805   1.743   3.316   1.748
 5600TIP3    H116806   1.789   3.395   1.720
 5600TIP3    H216807   1.653   3.330   1.721
 5601TIP3   OH216808   4.981   2.692   0.497
 5601TIP3    H116809   5.012   2.766   0.444
 5601TIP3    H216810   4.939   2.733   0.572
 5602TIP3   OH216811   3.823   2.381   4.559
 5602TIP3    H116812   3.790   2.307   4.508
 5602TIP3    H216813   3.865   2.437   4.494
 5603TIP3   OH216814   3.105   4.944   3.306
 5603TIP3    H116815   3.025   4.895   3.289
 5603TIP3    H216816   3.163   4.922   3.233
 5604TIP3   OH216817   3.400   0.024   2.494
 5604TIP3    H116818   3.476  -0.031   2.512
 5604TIP3    H216819   3.435   0.095   2.440
 5605TIP3   OH216820   3.798   5.906   2.041
 5605TIP3    H116821   3.882   5.920   1.998
 5605TIP3    H216822   3.816   5.839   2.108
 5606TIP3   OH216823   4.831   5.349   4.243
 5606TIP3    H116824   4.805   5.329   4.333
 5606TIP3    H216825   4.770   5.300   4.189
 5607TIP3   OH216826   4.327   2.822   4.679
 5607TIP3    H116827   4.304   2.741   4.726
 5607TIP3    H216828   4.274   2.819   4.600
 5608TIP3   OH216829   3.309   2.142   3.147
 5608TIP3    H116830   3.260   2.085   3.206
 5608TIP3    H216831   3.387   2.166   3.197
 5609TIP3   OH216832   5.061   1.861   0.086
 5609TIP3    H116833   4.976   1.818   0.074
 5609TIP3    H216834   5.125   1.791   0.080
 5610TIP3   OH216835   6.025   0.700   2.544
 5610TIP3    H116836   5.967   0.764   2.587
 5610TIP3    H216837   6.104   0.699   2.598
 5611TIP3   OH216838   4.520   4.863   2.921
 5611TIP3    H116839   4.511   4.768   2.929
 5611TIP3    H216840   4.606   4.876   2.882
 5612TIP3   OH216841   3.955   0.526   0.568
 5612TIP3    H116842   3.987   0.490   0.651
 5612TIP3    H216843   3.886   0.465   0.541
 5613TIP3   OH216844   4.978   2.074   0.525
 5613TIP3    H116845   5.041   2.088   0.454
 5613TIP3    H216846   4.943   2.161   0.543
 5614TIP3   OH216847   5.440   0.697   0.514
 5614TIP3    H116848   5.426   0.746   0.432
 5614TIP3    H216849   5.526   0.658   0.504
 5615TIP3   OH216850   0.975   3.904   4.088
 5615TIP3    H116851   0.960   3.815   4.118
 5615TIP3    H216852   0.976   3.898   3.993
 5616TIP3   OH216853   4.937   2.161   1.210
 5616TIP3    H116854   5.028   2.131   1.207
 5616TIP3    H216855   4.928   2.218   1.134
 5617TIP3   OH216856   5.033   1.246   2.389
 5617TIP3    H116857   4.967   1.195   2.341
 5617TIP3    H216858   5.095   1.274   2.322
 5618TIP3   OH216859   5.145   2.667   1.561
 5618TIP3    H116860   5.088   2.593   1.540
 5618TIP3    H216861   5.233   2.634   1.545
 5619TIP3   OH216862   4.806   2.528   0.384
 5619TIP3    H116863   4.734   2.590   0.400
 5619TIP3    H216864   4.885   2.580   0.398
 5620TIP3   OH216865   5.713   0.532   0.902
 5620TIP3    H116866   5.664   0.598   0.950
 5620TIP3    H216867   5.757   0.480   0.969
 5621TIP3   OH216868   4.348   3.455   3.985
 5621TIP3    H116869   4.368   3.548   3.992
 5621TIP3    H216870   4.316   3.430   4.071
 5622TIP3   OH216871   1.213   4.658   0.732
 5622TIP3    H116872   1.148   4.697   0.791
 5622TIP3    H216873   1.166   4.590   0.685
 5623TIP3   OH216874   2.030   1.176   2.424
 5623TIP3    H116875   2.099   1.234   2.458
 5623TIP3    H216876   2.068   1.138   2.344
 5624TIP3   OH216877   1.351   4.830   4.216
 5624TIP3    H116878   1.321   4.746   4.182
 5624TIP3    H216879   1.323   4.894   4.151
 5625TIP3   OH216880   5.364   2.685   0.625
 5625TIP3    H116881   5.328   2.623   0.562
 5625TIP3    H216882   5.373   2.635   0.706
 5626TIP3   OH216883   1.345   3.367   0.424
 5626TIP3    H116884   1.359   3.274   0.445
 5626TIP3    H216885   1.251   3.381   0.442
 5627TIP3   OH216886   2.435   0.882   1.840
 5627TIP3    H116887   2.381   0.860   1.916
 5627TIP3    H216888   2.512   0.925   1.876
 5628TIP3   OH216889   1.062   3.530   2.067
 5628TIP3    H116890   1.053   3.468   1.996
 5628TIP3    H216891   1.093   3.478   2.141
 5629TIP3   OH216892   4.006   1.824   1.468
 5629TIP3    H116893   4.010   1.914   1.501
 5629TIP3    H216894   3.918   1.817   1.430
 5630TIP3   OH216895   0.534   3.359   1.381
 5630TIP3    H116896   0.618   3.317   1.399
 5630TIP3    H216897   0.557   3.450   1.361
 5631TIP3   OH216898   3.290   0.963   3.517
 5631TIP3    H116899   3.271   1.054   3.493
 5631TIP3    H216900   3.253   0.953   3.604
 5632TIP3   OH216901   0.484   4.026   0.210
 5632TIP3    H116902   0.491   3.978   0.292
 5632TIP3    H216903   0.561   4.083   0.209
 5633TIP3   OH216904   4.296   5.734   0.014
 5633TIP3    H116905   4.225   5.735   0.079
 5633TIP3    H216906   4.376   5.736   0.066
 5634TIP3   OH216907   0.912   5.503   0.233
 5634TIP3    H116908   0.992   5.521   0.183
 5634TIP3    H216909   0.892   5.586   0.277
 5635TIP3   OH216910   5.919   4.352   2.743
 5635TIP3    H116911   5.975   4.299   2.686
 5635TIP3    H216912   5.975   4.375   2.817
 5636TIP3   OH216913   5.282   4.191   1.002
 5636TIP3    H116914   5.230   4.272   1.000
 5636TIP3    H216915   5.306   4.176   0.910
 5637TIP3   OH216916   0.610   0.809   3.883
 5637TIP3    H116917   0.671   0.881   3.870
 5637TIP3    H216918   0.546   0.818   3.812
 5638TIP3   OH216919   0.131   4.181   0.275
 5638TIP3    H116920   0.142   4.129   0.195
 5638TIP3    H216921   0.039   4.169   0.299
 5639TIP3   OH216922   3.049   3.394   0.629
 5639TIP3    H116923   3.041   3.323   0.692
 5639TIP3    H216924   3.122   3.447   0.661
 5640TIP3   OH216925   5.140   3.226   1.848
 5640TIP3    H116926   5.136   3.254   1.940
 5640TIP3    H216927   5.084   3.148   1.845
 5641TIP3   OH216928   5.826   3.315  -0.019
 5641TIP3    H116929   5.814   3.339   0.072
 5641TIP3    H216930   5.889   3.243  -0.016
 5642TIP3   OH216931   1.396   1.431   0.387
 5642TIP3    H116932   1.317   1.469   0.349
 5642TIP3    H216933   1.459   1.503   0.387
 5643TIP3   OH216934   1.821   5.815   1.482
 5643TIP3    H116935   1.904   5.813   1.434
 5643TIP3    H216936   1.842   5.859   1.564
 5644TIP3   OH216937   5.831   5.112   4.317
 5644TIP3    H116938   5.739   5.122   4.292
 5644TIP3    H216939   5.851   5.190   4.368
 5645TIP3   OH216940   2.724   3.531   3.148
 5645TIP3    H116941   2.690   3.494   3.229
 5645TIP3    H216942   2.715   3.626   3.159
 5646TIP3   OH216943   2.520   5.632   2.374
 5646TIP3    H116944   2.468   5.552   2.380
 5646TIP3    H216945   2.605   5.607   2.411
 5647TIP3   OH216946   2.016   3.032   4.507
 5647TIP3    H116947   2.065   3.099   4.460
 5647TIP3    H216948   2.000   3.071   4.594
 5648TIP3   OH216949   5.596   2.442   0.586
 5648TIP3    H116950   5.665   2.427   0.650
 5648TIP3    H216951   5.586   2.537   0.583
 5649TIP3   OH216952   5.612   2.945   2.343
 5649TIP3    H116953   5.608   2.916   2.434
 5649TIP3    H216954   5.544   2.894   2.298
 5650TIP3   OH216955   1.244   1.404   4.472
 5650TIP3    H116956   1.199   1.320   4.472
 5650TIP3    H216957   1.315   1.394   4.536
 5651TIP3   OH216958   1.486   2.965   0.052
 5651TIP3    H116959   1.410   2.908   0.035
 5651TIP3    H216960   1.448   3.046   0.085
 5652TIP3   OH216961   2.844   2.645   1.786
 5652TIP3    H116962   2.777   2.608   1.844
 5652TIP3    H216963   2.813   2.623   1.698
 5653TIP3   OH216964   1.361   5.855   2.922
 5653TIP3    H116965   1.330   5.815   2.841
 5653TIP3    H216966   1.357   5.949   2.904
 5654TIP3   OH216967   1.046   2.755   1.823
 5654TIP3    H116968   1.027   2.831   1.767
 5654TIP3    H216969   1.093   2.694   1.766
 5655TIP3   OH216970   3.542   0.236   3.316
 5655TIP3    H116971   3.584   0.300   3.373
 5655TIP3    H216972   3.451   0.233   3.346
 5656TIP3   OH216973   5.487   0.479   0.245
 5656TIP3    H116974   5.513   0.494   0.336
 5656TIP3    H216975   5.455   0.389   0.243
 5657TIP3   OH216976   6.050   3.484   4.177
 5657TIP3    H116977   5.956   3.467   4.177
 5657TIP3    H216978   6.090   3.398   4.185
 5658TIP3   OH216979   1.779   5.104   2.817
 5658TIP3    H116980   1.784   5.129   2.725
 5658TIP3    H216981   1.685   5.095   2.835
 5659TIP3   OH216982   3.706   2.976   3.920
 5659TIP3    H116983   3.785   2.929   3.894
 5659TIP3    H216984   3.719   2.994   4.013
 5660TIP3   OH216985   5.568   1.010   2.402
 5660TIP3    H116986   5.618   1.080   2.360
 5660TIP3    H216987   5.558   0.943   2.335
 5661TIP3   OH216988   0.144   0.737   2.079
 5661TIP3    H116989   0.141   0.810   2.141
 5661TIP3    H216990   0.237   0.715   2.071
 5662TIP3   OH216991   6.036   2.147   4.997
 5662TIP3    H116992   6.097   2.084   5.034
 5662TIP3    H216993   6.091   2.208   4.948
 5663TIP3   OH216994   1.872   4.593   5.123
 5663TIP3    H116995   1.799   4.606   5.062
 5663TIP3    H216996   1.950   4.593   5.067
 5664TIP3   OH216997   2.237   3.971   1.398
 5664TIP3    H116998   2.163   3.920   1.430
 5664TIP3    H216999   2.260   4.028   1.472
 5665TIP3   OH217000   0.955   4.375   4.846
 5665TIP3    H117001   0.942   4.415   4.760
 5665TIP3    H217002   0.941   4.282   4.831
 5666TIP3   OH217003   2.275   2.067   5.089
 5666TIP3    H117004   2.212   2.056   5.160
 5666TIP3    H217005   2.226   2.112   5.020
 5667TIP3   OH217006   4.281   5.861   1.226
 5667TIP3    H117007   4.278   5.953   1.252
 5667TIP3    H217008   4.322   5.862   1.139
 5668TIP3   OH217009   0.693   3.152   0.596
 5668TIP3    H117010   0.731   3.237   0.572
 5668TIP3    H217011   0.721   3.093   0.525
 5669TIP3   OH217012   3.357   1.696   3.403
 5669TIP3    H117013   3.339   1.730   3.491
 5669TIP3    H217014   3.447   1.725   3.384
 5670TIP3   OH217015   5.322   0.796   1.703
 5670TIP3    H117016   5.280   0.866   1.752
 5670TIP3    H217017   5.312   0.821   1.611
 5671TIP3   OH217018   3.372   5.104   1.561
 5671TIP3    H117019   3.322   5.083   1.639
 5671TIP3    H217020   3.432   5.030   1.551
 5672TIP3   OH217021   0.244   0.035   1.019
 5672TIP3    H117022   0.170   0.049   1.078
 5672TIP3    H217023   0.208  -0.021   0.949
 5673TIP3   OH217024   3.097   0.098   3.053
 5673TIP3    H117025   3.176   0.097   3.107
 5673TIP3    H217026   3.112   0.030   2.987
 5674TIP3   OH217027   2.052   2.960   1.735
 5674TIP3    H117028   2.051   2.928   1.645
 5674TIP3    H217029   2.139   2.934   1.768
 5675TIP3   OH217030   0.992   5.368   4.071
 5675TIP3    H117031   1.079   5.395   4.098
 5675TIP3    H217032   0.952   5.331   4.150
 5676TIP3   OH217033   3.635   1.103   1.755
 5676TIP3    H117034   3.660   1.045   1.683
 5676TIP3    H217035   3.718   1.135   1.790
 5677TIP3   OH217036   3.892   5.752   2.245
 5677TIP3    H117037   3.975   5.772   2.289
 5677TIP3    H217038   3.887   5.657   2.246
 5678TIP3   OH217039   4.713   0.046   4.669
 5678TIP3    H117040   4.651   0.118   4.660
 5678TIP3    H217041   4.794   0.079   4.632
 5679TIP3   OH217042   4.463   2.651   2.151
 5679TIP3    H117043   4.503   2.572   2.189
 5679TIP3    H217044   4.462   2.714   2.223
 5680TIP3   OH217045   0.731   5.364   4.952
 5680TIP3    H117046   0.754   5.272   4.968
 5680TIP3    H217047   0.691   5.364   4.865
 5681TIP3   OH217048   2.736   4.856   3.551
 5681TIP3    H117049   2.816   4.909   3.550
 5681TIP3    H217050   2.746   4.798   3.475
 5682TIP3   OH217051   0.895   3.407   3.221
 5682TIP3    H117052   0.845   3.448   3.151
 5682TIP3    H217053   0.984   3.400   3.186
 5683TIP3   OH217054   1.547   4.240   5.177
 5683TIP3    H117055   1.620   4.295   5.147
 5683TIP3    H217056   1.549   4.248   5.272
 5684TIP3   OH217057   0.975   4.331   0.527
 5684TIP3    H117058   0.880   4.323   0.518
 5684TIP3    H217059   0.995   4.285   0.609
 5685TIP3   OH217060   5.155   3.432   4.343
 5685TIP3    H117061   5.167   3.507   4.401
 5685TIP3    H217062   5.073   3.449   4.297
 5686TIP3   OH217063   0.098   1.447   3.324
 5686TIP3    H117064   0.128   1.537   3.316
 5686TIP3    H217065   0.051   1.446   3.408
 5687TIP3   OH217066   6.011   2.543   4.913
 5687TIP3    H117067   5.927   2.500   4.900
 5687TIP3    H217068   6.021   2.549   5.008
 5688TIP3   OH217069   2.995   0.313   1.213
 5688TIP3    H117070   3.001   0.222   1.187
 5688TIP3    H217071   3.085   0.344   1.215
 5689TIP3   OH217072   1.158   5.729   4.696
 5689TIP3    H117073   1.149   5.686   4.611
 5689TIP3    H217074   1.227   5.682   4.741
 5690TIP3   OH217075   2.250   0.993   0.399
 5690TIP3    H117076   2.216   0.907   0.375
 5690TIP3    H217077   2.345   0.985   0.391
 5691TIP3   OH217078   3.709   1.357   3.407
 5691TIP3    H117079   3.793   1.391   3.439
 5691TIP3    H217080   3.647   1.374   3.478
 5692TIP3   OH217081   4.266   4.289   4.402
 5692TIP3    H117082   4.319   4.315   4.478
 5692TIP3    H217083   4.309   4.330   4.327
 5693TIP3   OH217084   4.254   0.643   5.122
 5693TIP3    H117085   4.172   0.625   5.076
 5693TIP3    H217086   4.311   0.680   5.055
 5694TIP3   OH217087   1.954   1.767   1.971
 5694TIP3    H117088   1.983   1.710   1.900
 5694TIP3    H217089   2.033   1.783   2.023
 5695TIP3   OH217090   5.617   1.779   1.264
 5695TIP3    H117091   5.678   1.799   1.192
 5695TIP3    H217092   5.667   1.722   1.322
 5696TIP3   OH217093   3.473   0.194   3.908
 5696TIP3    H117094   3.540   0.231   3.851
 5696TIP3    H217095   3.501   0.216   3.996
 5697TIP3   OH217096   5.590   0.049   3.853
 5697TIP3    H117097   5.531   0.110   3.809
 5697TIP3    H217098   5.588  -0.030   3.798
 5698TIP3   OH217099   4.803   2.386   3.763
 5698TIP3    H117100   4.873   2.347   3.815
 5698TIP3    H217101   4.754   2.440   3.824
 5699TIP3   OH217102   3.007   0.319   2.951
 5699TIP3    H117103   2.940   0.322   2.884
 5699TIP3    H217104   3.044   0.231   2.944
 5700TIP3   OH217105   2.811   4.512   4.223
 5700TIP3    H117106   2.849   4.579   4.166
 5700TIP3    H217107   2.863   4.433   4.204
 5701TIP3   OH217108   1.461   1.343   0.635
 5701TIP3    H117109   1.403   1.407   0.676
 5701TIP3    H217110   1.443   1.349   0.542
 5702TIP3   OH217111   1.728   4.267   1.567
 5702TIP3    H117112   1.745   4.220   1.486
 5702TIP3    H217113   1.814   4.299   1.594
 5703TIP3   OH217114   4.198   1.791   3.831
 5703TIP3    H117115   4.217   1.795   3.738
 5703TIP3    H217116   4.165   1.703   3.846
 5704TIP3   OH217117   6.208   2.729   2.744
 5704TIP3    H117118   6.113   2.720   2.753
 5704TIP3    H217119   6.243   2.645   2.773
 5705TIP3   OH217120   5.221   1.628   0.689
 5705TIP3    H117121   5.189   1.683   0.618
 5705TIP3    H217122   5.165   1.651   0.764
 5706TIP3   OH217123   6.186   3.251   1.607
 5706TIP3    H117124   6.129   3.176   1.622
 5706TIP3    H217125   6.126   3.323   1.588
 5707TIP3   OH217126   5.988   3.108   0.103
 5707TIP3    H117127   6.024   3.036   0.156
 5707TIP3    H217128   6.060   3.171   0.096
 5708TIP3   OH217129   3.257   2.166   4.467
 5708TIP3    H117130   3.328   2.122   4.421
 5708TIP3    H217131   3.210   2.214   4.398
 5709TIP3   OH217132   2.244   5.590   4.228
 5709TIP3    H117133   2.294   5.651   4.175
 5709TIP3    H217134   2.175   5.557   4.170
 5710TIP3   OH217135   2.705   5.057   4.419
 5710TIP3    H117136   2.668   5.022   4.499
 5710TIP3    H217137   2.766   5.125   4.449
 5711TIP3   OH217138   2.494   1.476   4.133
 5711TIP3    H117139   2.484   1.549   4.071
 5711TIP3    H217140   2.588   1.457   4.133
 5712TIP3   OH217141   1.149   5.382   1.359
 5712TIP3    H117142   1.094   5.345   1.428
 5712TIP3    H217143   1.237   5.352   1.380
 5713TIP3   OH217144   1.584   0.816   3.896
 5713TIP3    H117145   1.643   0.886   3.926
 5713TIP3    H217146   1.533   0.792   3.974
 5714TIP3   OH217147   2.863   4.567   1.091
 5714TIP3    H117148   2.866   4.553   1.186
 5714TIP3    H217149   2.901   4.654   1.078
 5715TIP3   OH217150   6.093   2.610   3.035
 5715TIP3    H117151   6.167   2.567   2.992
 5715TIP3    H217152   6.109   2.596   3.129
 5716TIP3   OH217153   6.024   5.309   0.597
 5716TIP3    H117154   6.001   5.395   0.561
 5716TIP3    H217155   5.941   5.262   0.602
 5717TIP3   OH217156   2.899   5.580   0.965
 5717TIP3    H117157   2.980   5.546   1.003
 5717TIP3    H217158   2.869   5.646   1.029
 5718TIP3   OH217159   0.645   0.963   0.204
 5718TIP3    H117160   0.665   1.020   0.278
 5718TIP3    H217161   0.610   1.021   0.137
 5719TIP3   OH217162   4.085   1.137   3.249
 5719TIP3    H117163   4.070   1.171   3.337
 5719TIP3    H217164   3.999   1.108   3.220
 5720TIP3   OH217165   5.881   1.127   1.553
 5720TIP3    H117166   5.951   1.104   1.613
 5720TIP3    H217167   5.839   1.044   1.531
 5721TIP3   OH217168   1.313   4.554   1.815
 5721TIP3    H117169   1.352   4.493   1.878
 5721TIP3    H217170   1.377   4.624   1.806
 5722TIP3   OH217171   4.895   3.197   4.390
 5722TIP3    H117172   4.938   3.232   4.312
 5722TIP3    H217173   4.815   3.249   4.399
 5723TIP3   OH217174   3.126   4.930   3.785
 5723TIP3    H117175   3.188   4.934   3.858
 5723TIP3    H217176   3.046   4.893   3.824
 5724TIP3   OH217177   6.150   5.628   2.532
 5724TIP3    H117178   6.119   5.657   2.446
 5724TIP3    H217179   6.073   5.587   2.572
 5725TIP3   OH217180   5.333   3.501   1.427
 5725TIP3    H117181   5.298   3.489   1.515
 5725TIP3    H217182   5.349   3.412   1.395
 5726TIP3   OH217183   3.791   5.493   0.833
 5726TIP3    H117184   3.841   5.412   0.820
 5726TIP3    H217185   3.754   5.512   0.747
 5727TIP3   OH217186   3.974   3.027   3.683
 5727TIP3    H117187   3.958   3.097   3.746
 5727TIP3    H217188   3.977   2.947   3.737
 5728TIP3   OH217189   1.903   4.633   1.427
 5728TIP3    H117190   1.928   4.591   1.345
 5728TIP3    H217191   1.922   4.726   1.414
 5729TIP3   OH217192   4.090   3.603   1.747
 5729TIP3    H117193   4.148   3.632   1.817
 5729TIP3    H217194   4.030   3.542   1.790
 5730TIP3   OH217195   3.675   5.063   1.052
 5730TIP3    H117196   3.662   5.061   1.147
 5730TIP3    H217197   3.718   4.980   1.032
 5731TIP3   OH217198   5.765   2.730   1.382
 5731TIP3    H117199   5.850   2.772   1.369
 5731TIP3    H217200   5.771   2.647   1.336
 5732TIP3   OH217201   0.938   4.188   4.271
 5732TIP3    H117202   0.890   4.127   4.327
 5732TIP3    H217203   0.936   4.147   4.184
 5733TIP3   OH217204   0.448   1.885   3.909
 5733TIP3    H117205   0.462   1.931   3.826
 5733TIP3    H217206   0.528   1.901   3.959
 5734TIP3   OH217207   2.075   0.203   1.226
 5734TIP3    H117208   2.144   0.240   1.281
 5734TIP3    H217209   1.994   0.225   1.271
 5735TIP3   OH217210   5.664   1.495   4.389
 5735TIP3    H117211   5.621   1.556   4.329
 5735TIP3    H217212   5.758   1.512   4.378
 5736TIP3   OH217213   0.240   3.856   1.208
 5736TIP3    H117214   0.199   3.771   1.223
 5736TIP3    H217215   0.178   3.919   1.242
 5737TIP3   OH217216   0.915   4.236   3.858
 5737TIP3    H117217   0.834   4.279   3.830
 5737TIP3    H217218   0.925   4.162   3.797
 5738TIP3   OH217219   4.239   2.529   4.330
 5738TIP3    H117220   4.202   2.460   4.275
 5738TIP3    H217221   4.314   2.488   4.374
 5739TIP3   OH217222   0.169   4.223   3.835
 5739TIP3    H117223   0.110   4.169   3.887
 5739TIP3    H217224   0.219   4.273   3.899
 5740TIP3   OH217225   0.537   4.692   3.722
 5740TIP3    H117226   0.631   4.682   3.707
 5740TIP3    H217227   0.497   4.671   3.638
 5741TIP3   OH217228   3.124   3.623   2.934
 5741TIP3    H117229   3.208   3.647   2.973
 5741TIP3    H217230   3.059   3.671   2.986
 5742TIP3   OH217231   1.658   1.077   1.938
 5742TIP3    H117232   1.635   0.991   1.973
 5742TIP3    H217233   1.712   1.117   2.007
 5743TIP3   OH217234   3.678   3.566   4.903
 5743TIP3    H117235   3.761   3.580   4.950
 5743TIP3    H217236   3.690   3.482   4.860
 5744TIP3   OH217237   0.318   5.837   0.525
 5744TIP3    H117238   0.380   5.790   0.581
 5744TIP3    H217239   0.258   5.879   0.587
 5745TIP3   OH217240   4.816   4.860   2.523
 5745TIP3    H117241   4.856   4.773   2.529
 5745TIP3    H217242   4.799   4.872   2.430
 5746TIP3   OH217243   6.112   4.733   4.926
 5746TIP3    H117244   6.038   4.702   4.977
 5746TIP3    H217245   6.096   4.700   4.838
 5747TIP3   OH217246   5.563   0.107   0.157
 5747TIP3    H117247   5.640   0.135   0.107
 5747TIP3    H217248   5.596   0.041   0.218
 5748TIP3   OH217249   1.016   3.291   2.532
 5748TIP3    H117250   1.015   3.202   2.495
 5748TIP3    H217251   1.077   3.285   2.606
 5749TIP3   OH217252   0.316   2.250   3.386
 5749TIP3    H117253   0.250   2.276   3.449
 5749TIP3    H217254   0.272   2.186   3.330
 5750TIP3   OH217255   0.423   4.457   4.688
 5750TIP3    H117256   0.433   4.420   4.776
 5750TIP3    H217257   0.370   4.393   4.641
 5751TIP3   OH217258   6.056   0.259   4.522
 5751TIP3    H117259   6.141   0.296   4.498
 5751TIP3    H217260   5.992   0.322   4.489
 5752TIP3   OH217261   1.379   4.400   4.257
 5752TIP3    H117262   1.441   4.472   4.265
 5752TIP3    H217263   1.382   4.357   4.342
 5753TIP3   OH217264   5.441   1.508   1.131
 5753TIP3    H117265   5.437   1.432   1.072
 5753TIP3    H217266   5.515   1.489   1.189
 5754TIP3   OH217267   0.377   0.457   2.129
 5754TIP3    H117268   0.404   0.531   2.075
 5754TIP3    H217269   0.393   0.485   2.218
 5755TIP3   OH217270   0.471   3.981   4.659
 5755TIP3    H117271   0.456   4.073   4.638
 5755TIP3    H217272   0.530   3.982   4.734
 5756TIP3   OH217273   0.395   2.885   2.678
 5756TIP3    H117274   0.352   2.916   2.757
 5756TIP3    H217275   0.468   2.831   2.709
 5757TIP3   OH217276   5.426   0.495   3.092
 5757TIP3    H117277   5.421   0.488   2.996
 5757TIP3    H217278   5.372   0.571   3.113
 5758TIP3   OH217279   3.491   5.689   4.577
 5758TIP3    H117280   3.491   5.662   4.669
 5758TIP3    H217281   3.415   5.644   4.539
 5759TIP3   OH217282   2.448   5.160   1.752
 5759TIP3    H117283   2.437   5.103   1.828
 5759TIP3    H217284   2.364   5.206   1.745
 5760TIP3   OH217285   4.074   3.663   2.267
 5760TIP3    H117286   4.101   3.751   2.292
 5760TIP3    H217287   3.993   3.676   2.217
 5761TIP3   OH217288   2.487   0.330   2.434
 5761TIP3    H117289   2.414   0.308   2.492
 5761TIP3    H217290   2.520   0.413   2.468
 5762TIP3   OH217291   6.140   3.883   3.157
 5762TIP3    H117292   6.105   3.869   3.246
 5762TIP3    H217293   6.234   3.888   3.169
 5763TIP3   OH217294   6.328   5.465   1.171
 5763TIP3    H117295   6.265   5.537   1.171
 5763TIP3    H217296   6.412   5.506   1.152
 5764TIP3   OH217297   0.479   1.578   5.024
 5764TIP3    H117298   0.428   1.560   4.945
 5764TIP3    H217299   0.551   1.515   5.021
 5765TIP3   OH217300   2.517   0.970   0.323
 5765TIP3    H117301   2.525   0.879   0.352
 5765TIP3    H217302   2.606   0.994   0.296
 5766TIP3   OH217303   4.410   4.517   5.002
 5766TIP3    H117304   4.466   4.450   5.042
 5766TIP3    H217305   4.438   4.519   4.910
 5767TIP3   OH217306   3.774   4.197   3.463
 5767TIP3    H117307   3.745   4.250   3.389
 5767TIP3    H217308   3.740   4.109   3.444
 5768TIP3   OH217309   1.680   4.052   0.553
 5768TIP3    H117310   1.711   4.098   0.475
 5768TIP3    H217311   1.593   4.088   0.569
 5769TIP3   OH217312   5.200   0.712   4.211
 5769TIP3    H117313   5.253   0.728   4.132
 5769TIP3    H217314   5.109   0.711   4.179
 5770TIP3   OH217315   6.211   2.818   4.162
 5770TIP3    H117316   6.171   2.848   4.244
 5770TIP3    H217317   6.295   2.781   4.189
 5771TIP3   OH217318   5.077   0.333   3.856
 5771TIP3    H117319   5.136   0.288   3.917
 5771TIP3    H217320   4.996   0.346   3.906
 5772TIP3   OH217321   0.405   0.020   4.094
 5772TIP3    H117322   0.483   0.038   4.147
 5772TIP3    H217323   0.345   0.090   4.116
 5773TIP3   OH217324   3.539   5.910   1.976
 5773TIP3    H117325   3.543   5.901   1.881
 5773TIP3    H217326   3.631   5.906   2.004
 5774TIP3   OH217327   1.882   2.702   1.024
 5774TIP3    H117328   1.908   2.624   0.975
 5774TIP3    H217329   1.810   2.673   1.079
 5775TIP3   OH217330   5.352   2.294   1.253
 5775TIP3    H117331   5.434   2.272   1.208
 5775TIP3    H217332   5.319   2.210   1.284
 5776TIP3   OH217333   0.563   0.438   0.090
 5776TIP3    H117334   0.517   0.448   0.173
 5776TIP3    H217335   0.656   0.439   0.114
 5777TIP3   OH217336   1.661   5.878   0.981
 5777TIP3    H117337   1.640   5.971   0.987
 5777TIP3    H217338   1.755   5.873   0.998
 5778TIP3   OH217339   2.076   2.627   4.863
 5778TIP3    H117340   2.162   2.589   4.878
 5778TIP3    H217341   2.047   2.589   4.780
 5779TIP3   OH217342   5.864   1.497   3.046
 5779TIP3    H117343   5.829   1.573   3.094
 5779TIP3    H217344   5.798   1.429   3.057
 5780TIP3   OH217345   1.103   5.766   3.444
 5780TIP3    H117346   1.046   5.834   3.480
 5780TIP3    H217347   1.043   5.705   3.400
 5781TIP3   OH217348   4.049   2.896   3.444
 5781TIP3    H117349   3.974   2.837   3.440
 5781TIP3    H217350   4.027   2.958   3.513
 5782TIP3   OH217351   1.804   1.391   2.446
 5782TIP3    H117352   1.726   1.388   2.392
 5782TIP3    H217353   1.775   1.361   2.532
 5783TIP3   OH217354   0.755   5.097   2.375
 5783TIP3    H117355   0.800   5.181   2.367
 5783TIP3    H217356   0.797   5.041   2.309
 5784TIP3   OH217357   3.417   5.027   1.847
 5784TIP3    H117358   3.487   5.091   1.837
 5784TIP3    H217359   3.458   4.943   1.826
 5785TIP3   OH217360   1.764   0.284   2.723
 5785TIP3    H117361   1.747   0.246   2.809
 5785TIP3    H217362   1.720   0.368   2.725
 5786TIP3   OH217363   0.491   0.617   1.238
 5786TIP3    H117364   0.422   0.553   1.258
 5786TIP3    H217365   0.527   0.588   1.154
 5787TIP3   OH217366   1.549   2.493   3.006
 5787TIP3    H117367   1.479   2.545   3.046
 5787TIP3    H217368   1.502   2.429   2.951
 5788TIP3   OH217369   0.353   2.615   0.179
 5788TIP3    H117370   0.388   2.644   0.263
 5788TIP3    H217371   0.357   2.692   0.122
 5789TIP3   OH217372   2.006   4.364   3.062
 5789TIP3    H117373   1.921   4.323   3.075
 5789TIP3    H217374   2.068   4.292   3.063
 5790TIP3   OH217375   3.068   4.032   1.432
 5790TIP3    H117376   3.090   3.940   1.449
 5790TIP3    H217377   2.972   4.035   1.441
 5791TIP3   OH217378   2.958   5.002   3.565
 5791TIP3    H117379   3.017   4.992   3.639
 5791TIP3    H217380   3.012   4.983   3.488
 5792TIP3   OH217381   5.486   2.158   3.169
 5792TIP3    H117382   5.545   2.193   3.102
 5792TIP3    H217383   5.544   2.122   3.236
 5793TIP3   OH217384   5.055   4.391   1.246
 5793TIP3    H117385   5.031   4.314   1.298
 5793TIP3    H217386   4.981   4.451   1.259
 5794TIP3   OH217387   2.000   1.329   0.652
 5794TIP3    H117388   2.010   1.385   0.575
 5794TIP3    H217389   1.914   1.351   0.687
 5795TIP3   OH217390   3.746   1.839   1.456
 5795TIP3    H117391   3.684   1.813   1.388
 5795TIP3    H217392   3.721   1.787   1.533
 5796TIP3   OH217393   3.787   4.086   2.389
 5796TIP3    H117394   3.842   4.151   2.346
 5796TIP3    H217395   3.729   4.138   2.445
 5797TIP3   OH217396   2.892   0.206   3.197
 5797TIP3    H117397   2.954   0.176   3.130
 5797TIP3    H217398   2.851   0.284   3.158
 5798TIP3   OH217399   0.974   5.102   1.803
 5798TIP3    H117400   0.980   5.038   1.733
 5798TIP3    H217401   0.919   5.172   1.768
 5799TIP3   OH217402   2.789   1.171   0.108
 5799TIP3    H117403   2.728   1.213   0.168
 5799TIP3    H217404   2.776   1.077   0.123
 5800TIP3   OH217405   2.227   0.064   3.353
 5800TIP3    H117406   2.295   0.009   3.393
 5800TIP3    H217407   2.170   0.002   3.308
 5801TIP3   OH217408   4.044   3.359   3.462
 5801TIP3    H117409   4.012   3.385   3.549
 5801TIP3    H217410   3.971   3.310   3.424
 5802TIP3   OH217411   3.677   1.951   3.804
 5802TIP3    H117412   3.696   2.030   3.754
 5802TIP3    H217413   3.597   1.972   3.853
 5803TIP3   OH217414   3.791   2.978   4.989
 5803TIP3    H117415   3.713   2.948   5.037
 5803TIP3    H217416   3.770   2.961   4.897
 5804TIP3   OH217417   6.112   0.027   1.335
 5804TIP3    H117418   6.087   0.037   1.243
 5804TIP3    H217419   6.207   0.019   1.333
 5805TIP3   OH217420   4.670   5.402   3.944
 5805TIP3    H117421   4.594   5.374   3.893
 5805TIP3    H217422   4.675   5.497   3.929
 5806TIP3   OH217423   2.497   3.317   1.550
 5806TIP3    H117424   2.547   3.366   1.484
 5806TIP3    H217425   2.408   3.351   1.543
 5807TIP3   OH217426   3.758   2.473   0.158
 5807TIP3    H117427   3.681   2.504   0.110
 5807TIP3    H217428   3.760   2.379   0.140
 5808TIP3   OH217429   3.447   1.323   3.608
 5808TIP3    H117430   3.456   1.407   3.654
 5808TIP3    H217431   3.356   1.298   3.621
 5809TIP3   OH217432   5.010   4.736   4.904
 5809TIP3    H117433   4.982   4.655   4.946
 5809TIP3    H217434   5.106   4.728   4.899
 5810TIP3   OH217435   5.050   4.748   0.923
 5810TIP3    H117436   5.036   4.654   0.919
 5810TIP3    H217437   4.968   4.783   0.958
 5811TIP3   OH217438   1.597   1.741   2.491
 5811TIP3    H117439   1.527   1.692   2.533
 5811TIP3    H217440   1.638   1.677   2.432
 5812TIP3   OH217441   3.758   2.626   1.440
 5812TIP3    H117442   3.735   2.606   1.531
 5812TIP3    H217443   3.717   2.711   1.423
 5813TIP3   OH217444   2.592   2.098   4.505
 5813TIP3    H117445   2.659   2.119   4.570
 5813TIP3    H217446   2.528   2.046   4.553
 5814TIP3   OH217447   0.648   1.702   3.356
 5814TIP3    H117448   0.671   1.768   3.291
 5814TIP3    H217449   0.596   1.751   3.420
 5815TIP3   OH217450   1.929   4.969   1.621
 5815TIP3    H117451   1.926   4.991   1.714
 5815TIP3    H217452   1.838   4.958   1.596
 5816TIP3   OH217453   0.242   1.218   0.679
 5816TIP3    H117454   0.271   1.274   0.607
 5816TIP3    H217455   0.149   1.237   0.689
 5817TIP3   OH217456   4.783   4.278   4.794
 5817TIP3    H117457   4.700   4.250   4.832
 5817TIP3    H217458   4.845   4.272   4.866
 5818TIP3   OH217459   0.775   0.453   0.720
 5818TIP3    H117460   0.778   0.538   0.764
 5818TIP3    H217461   0.702   0.407   0.763
 5819TIP3   OH217462   5.382   3.694   4.780
 5819TIP3    H117463   5.369   3.756   4.853
 5819TIP3    H217464   5.441   3.628   4.816
 5820TIP3   OH217465   4.183   1.998   4.572
 5820TIP3    H117466   4.175   2.090   4.546
 5820TIP3    H217467   4.140   1.993   4.657
 5821TIP3   OH217468   4.889   4.391   2.136
 5821TIP3    H117469   4.870   4.379   2.230
 5821TIP3    H217470   4.950   4.464   2.133
 5822TIP3   OH217471   6.083   3.011   4.943
 5822TIP3    H117472   6.136   3.090   4.937
 5822TIP3    H217473   6.063   2.987   4.853
 5823TIP3   OH217474   5.467   2.722   2.274
 5823TIP3    H117475   5.505   2.660   2.212
 5823TIP3    H217476   5.459   2.672   2.356
 5824TIP3   OH217477   5.670   1.955   0.385
 5824TIP3    H117478   5.622   2.038   0.389
 5824TIP3    H217479   5.688   1.934   0.477
 5825TIP3   OH217480   3.293   5.893   3.469
 5825TIP3    H117481   3.275   5.986   3.455
 5825TIP3    H217482   3.207   5.852   3.472
 5826TIP3   OH217483   4.321   0.227   1.008
 5826TIP3    H117484   4.365   0.159   0.956
 5826TIP3    H217485   4.361   0.309   0.979
 5827TIP3   OH217486   5.837   2.147   0.854
 5827TIP3    H117487   5.759   2.115   0.899
 5827TIP3    H217488   5.820   2.239   0.837
 5828TIP3   OH217489   0.579   3.653   4.158
 5828TIP3    H117490   0.618   3.636   4.244
 5828TIP3    H217491   0.649   3.636   4.096
 5829TIP3   OH217492   2.851   3.659   0.671
 5829TIP3    H117493   2.792   3.671   0.597
 5829TIP3    H217494   2.795   3.625   0.741
 5830TIP3   OH217495   5.069   1.238   1.181
 5830TIP3    H117496   5.080   1.307   1.115
 5830TIP3    H217497   5.014   1.278   1.248
 5831TIP3   OH217498   4.630   0.966   3.579
 5831TIP3    H117499   4.714   0.944   3.620
 5831TIP3    H217500   4.574   0.991   3.653
 5832TIP3   OH217501   2.547   1.555   3.589
 5832TIP3    H117502   2.535   1.640   3.548
 5832TIP3    H217503   2.603   1.572   3.664
 5833TIP3   OH217504   0.574   1.115   4.517
 5833TIP3    H117505   0.602   1.047   4.579
 5833TIP3    H217506   0.652   1.135   4.467
 5834TIP3   OH217507   0.711   0.320   5.012
 5834TIP3    H117508   0.627   0.292   5.047
 5834TIP3    H217509   0.691   0.348   4.922
 5835TIP3   OH217510   1.319   4.852   3.703
 5835TIP3    H117511   1.255   4.783   3.719
 5835TIP3    H217512   1.396   4.806   3.669
 5836TIP3   OH217513   4.625   1.746   0.483
 5836TIP3    H117514   4.643   1.724   0.575
 5836TIP3    H217515   4.707   1.783   0.451
 5837TIP3   OH217516   1.848   1.091   2.625
 5837TIP3    H117517   1.892   1.108   2.542
 5837TIP3    H217518   1.916   1.053   2.681
 5838TIP3   OH217519   6.276   4.528   4.567
 5838TIP3    H117520   6.188   4.507   4.599
 5838TIP3    H217521   6.333   4.467   4.613
 5839TIP3   OH217522   1.404   2.776   0.613
 5839TIP3    H117523   1.383   2.734   0.529
 5839TIP3    H217524   1.478   2.726   0.647
 5840TIP3   OH217525   1.887   4.078   2.457
 5840TIP3    H117526   1.877   4.091   2.551
 5840TIP3    H217527   1.808   4.031   2.430
 5841TIP3   OH217528   6.272   2.903   1.712
 5841TIP3    H117529   6.182   2.923   1.685
 5841TIP3    H217530   6.324   2.976   1.678
 5842TIP3   OH217531   4.000   5.319   2.061
 5842TIP3    H117532   4.061   5.271   2.117
 5842TIP3    H217533   3.968   5.391   2.117
 5843TIP3   OH217534   5.029   5.600   4.403
 5843TIP3    H117535   4.941   5.590   4.441
 5843TIP3    H217536   5.036   5.693   4.382
 5844TIP3   OH217537   0.490   2.643   5.109
 5844TIP3    H117538   0.430   2.590   5.057
 5844TIP3    H217539   0.549   2.580   5.150
 5845TIP3   OH217540   4.127   1.576   1.452
 5845TIP3    H117541   4.090   1.664   1.449
 5845TIP3    H217542   4.075   1.527   1.388
 5846TIP3   OH217543   3.871   2.039   1.736
 5846TIP3    H117544   3.811   2.072   1.802
 5846TIP3    H217545   3.820   2.037   1.655
 5847TIP3   OH217546   4.760   5.339   1.906
 5847TIP3    H117547   4.736   5.357   1.996
 5847TIP3    H217548   4.771   5.244   1.902
 5848TIP3   OH217549   4.622   4.362   3.918
 5848TIP3    H117550   4.680   4.408   3.858
 5848TIP3    H217551   4.591   4.429   3.979
 5849TIP3   OH217552   2.878   3.741   4.062
 5849TIP3    H117553   2.961   3.746   4.109
 5849TIP3    H217554   2.831   3.821   4.088
 5850TIP3   OH217555   3.065   3.837   1.657
 5850TIP3    H117556   2.986   3.883   1.685
 5850TIP3    H217557   3.046   3.745   1.676
 5851TIP3   OH217558   5.370   0.225   0.347
 5851TIP3    H117559   5.397   0.184   0.265
 5851TIP3    H217560   5.448   0.225   0.401
 5852TIP3   OH217561   5.599   0.954   1.561
 5852TIP3    H117562   5.664   0.885   1.575
 5852TIP3    H217563   5.535   0.914   1.502
 5853TIP3   OH217564   2.100   0.852   2.511
 5853TIP3    H117565   2.045   0.830   2.586
 5853TIP3    H217566   2.189   0.853   2.546
 5854TIP3   OH217567   4.359   3.087   3.411
 5854TIP3    H117568   4.363   3.127   3.324
 5854TIP3    H217569   4.440   3.115   3.454
 5855TIP3   OH217570   3.492   2.554   2.516
 5855TIP3    H117571   3.588   2.555   2.519
 5855TIP3    H217572   3.467   2.487   2.579
 5856TIP3   OH217573   3.318   2.139   1.252
 5856TIP3    H117574   3.379   2.117   1.322
 5856TIP3    H217575   3.232   2.120   1.288
 5857TIP3   OH217576   5.629   3.122   0.832
 5857TIP3    H117577   5.689   3.197   0.828
 5857TIP3    H217578   5.673   3.059   0.890
 5858TIP3   OH217579   0.470   2.871   3.152
 5858TIP3    H117580   0.379   2.896   3.166
 5858TIP3    H217581   0.467   2.794   3.096
 5859TIP3   OH217582   4.213   2.258   4.844
 5859TIP3    H117583   4.239   2.260   4.751
 5859TIP3    H217584   4.257   2.334   4.882
 5860TIP3   OH217585   3.767   3.392   5.127
 5860TIP3    H117586   3.802   3.344   5.052
 5860TIP3    H217587   3.816   3.357   5.202
 5861TIP3   OH217588   2.350   4.922   3.828
 5861TIP3    H117589   2.320   4.948   3.916
 5861TIP3    H217590   2.443   4.904   3.840
 5862TIP3   OH217591   5.213   2.883   0.783
 5862TIP3    H117592   5.267   2.849   0.855
 5862TIP3    H217593   5.241   2.834   0.706
 5863TIP3   OH217594   0.123   3.052   0.586
 5863TIP3    H117595   0.179   2.981   0.553
 5863TIP3    H217596   0.071   3.011   0.655
 5864TIP3   OH217597   3.246   2.155   0.188
 5864TIP3    H117598   3.156   2.190   0.193
 5864TIP3    H217599   3.243   2.093   0.116
 5865TIP3   OH217600   1.731   4.047   0.073
 5865TIP3    H117601   1.764   4.137   0.070
 5865TIP3    H217602   1.794   4.001   0.130
 5866TIP3   OH217603   0.146   5.135   0.253
 5866TIP3    H117604   0.089   5.072   0.296
 5866TIP3    H217605   0.090   5.180   0.189
 5867TIP3   OH217606   1.838   0.080   2.199
 5867TIP3    H117607   1.757   0.127   2.183
 5867TIP3    H217608   1.865   0.048   2.113
 5868TIP3   OH217609   2.699   4.275   4.961
 5868TIP3    H117610   2.756   4.285   4.884
 5868TIP3    H217611   2.650   4.194   4.944
 5869TIP3   OH217612   4.633   1.500   2.305
 5869TIP3    H117613   4.655   1.566   2.371
 5869TIP3    H217614   4.698   1.512   2.236
 5870TIP3   OH217615   1.231   1.379   2.660
 5870TIP3    H117616   1.309   1.323   2.669
 5870TIP3    H217617   1.162   1.330   2.705
 5871TIP3   OH217618   1.465   1.585   4.134
 5871TIP3    H117619   1.487   1.633   4.214
 5871TIP3    H217620   1.441   1.498   4.165
 5872TIP3   OH217621   6.271   4.283   0.600
 5872TIP3    H117622   6.194   4.303   0.547
 5872TIP3    H217623   6.268   4.189   0.614
 5873TIP3   OH217624   1.819   2.504   0.215
 5873TIP3    H117625   1.830   2.461   0.300
 5873TIP3    H217626   1.732   2.476   0.185
 5874TIP3   OH217627   3.811   2.202   2.146
 5874TIP3    H117628   3.777   2.112   2.155
 5874TIP3    H217629   3.757   2.241   2.077
 5875TIP3   OH217630   3.421   5.896   1.119
 5875TIP3    H117631   3.428   5.824   1.182
 5875TIP3    H217632   3.426   5.975   1.173
 5876TIP3   OH217633   3.191   5.827   0.016
 5876TIP3    H117634   3.235   5.910   0.039
 5876TIP3    H217635   3.195   5.824  -0.079
 5877TIP3   OH217636   3.392   4.311   3.044
 5877TIP3    H117637   3.474   4.281   3.084
 5877TIP3    H217638   3.348   4.360   3.114
 5878TIP3   OH217639   2.758   4.225   4.526
 5878TIP3    H117640   2.670   4.261   4.537
 5878TIP3    H217641   2.788   4.207   4.615
 5879TIP3   OH217642   0.669   4.566   1.971
 5879TIP3    H117643   0.700   4.622   1.900
 5879TIP3    H217644   0.745   4.555   2.028
 5880TIP3   OH217645   3.325   5.651   4.208
 5880TIP3    H117646   3.268   5.719   4.172
 5880TIP3    H217647   3.406   5.697   4.229
 5881TIP3   OH217648   4.383   4.299   2.826
 5881TIP3    H117649   4.477   4.299   2.842
 5881TIP3    H217650   4.371   4.355   2.749
 5882TIP3   OH217651   2.822   1.870   0.042
 5882TIP3    H117652   2.801   1.800  -0.020
 5882TIP3    H217653   2.745   1.927   0.042
 5883TIP3   OH217654   1.337   0.957   4.357
 5883TIP3    H117655   1.411   1.003   4.319
 5883TIP3    H217656   1.374   0.907   4.430
 5884TIP3   OH217657   6.089   3.446   0.839
 5884TIP3    H117658   6.182   3.464   0.831
 5884TIP3    H217659   6.049   3.492   0.765
 5885TIP3   OH217660   1.287   0.099   1.300
 5885TIP3    H117661   1.282   0.119   1.393
 5885TIP3    H217662   1.325   0.178   1.260
 5886TIP3   OH217663   5.387   2.977   1.541
 5886TIP3    H117664   5.440   2.906   1.506
 5886TIP3    H217665   5.430   3.002   1.622
 5887TIP3   OH217666   5.451   3.436   4.283
 5887TIP3    H117667   5.362   3.412   4.308
 5887TIP3    H217668   5.486   3.478   4.362
 5888TIP3   OH217669   2.819   5.261   3.456
 5888TIP3    H117670   2.791   5.304   3.537
 5888TIP3    H217671   2.780   5.174   3.461
 5889TIP3   OH217672   3.154   3.773   2.701
 5889TIP3    H117673   3.117   3.709   2.761
 5889TIP3    H217674   3.249   3.757   2.703
 5890TIP3   OH217675   1.510   1.254   2.757
 5890TIP3    H117676   1.485   1.212   2.839
 5890TIP3    H217677   1.542   1.183   2.702
 5891TIP3   OH217678   0.341   0.841   3.115
 5891TIP3    H117679   0.435   0.839   3.095
 5891TIP3    H217680   0.303   0.892   3.044
 5892TIP3   OH217681   5.953   2.720   1.693
 5892TIP3    H117682   5.926   2.678   1.774
 5892TIP3    H217683   5.967   2.647   1.632
 5893TIP3   OH217684   1.660   3.040   0.745
 5893TIP3    H117685   1.625   3.114   0.793
 5893TIP3    H217686   1.633   2.963   0.796
 5894TIP3   OH217687   5.316   2.034   2.375
 5894TIP3    H117688   5.347   2.069   2.458
 5894TIP3    H217689   5.225   2.009   2.392
 5895TIP3   OH217690   4.674   1.719   2.497
 5895TIP3    H117691   4.739   1.730   2.567
 5895TIP3    H217692   4.631   1.804   2.491
 5896TIP3   OH217693   2.397   5.407   4.415
 5896TIP3    H117694   2.487   5.413   4.383
 5896TIP3    H217695   2.351   5.477   4.369
 5897TIP3   OH217696   3.629   2.609   3.610
 5897TIP3    H117697   3.545   2.651   3.630
 5897TIP3    H217698   3.683   2.627   3.687
 5898TIP3   OH217699   0.174   4.488   4.024
 5898TIP3    H117700   0.110   4.556   4.003
 5898TIP3    H217701   0.256   4.520   3.985
 5899TIP3   OH217702   6.131   3.169   2.302
 5899TIP3    H117703   6.061   3.140   2.361
 5899TIP3    H217704   6.191   3.095   2.298
 5900TIP3   OH217705   5.510   4.425   1.791
 5900TIP3    H117706   5.464   4.405   1.709
 5900TIP3    H217707   5.453   4.391   1.860
 5901TIP3   OH217708   4.815   5.593   0.913
 5901TIP3    H117709   4.806   5.665   0.975
 5901TIP3    H217710   4.846   5.635   0.832
 5902TIP3   OH217711   5.822   1.991   4.901
 5902TIP3    H117712   5.814   2.048   4.823
 5902TIP3    H217713   5.885   2.037   4.957
 5903TIP3   OH217714   0.568   1.880   3.107
 5903TIP3    H117715   0.486   1.899   3.061
 5903TIP3    H217716   0.563   1.931   3.188
 5904TIP3   OH217717   1.494   1.017   1.037
 5904TIP3    H117718   1.570   0.991   0.986
 5904TIP3    H217719   1.421   0.967   1.000
 5905TIP3   OH217720   6.109   1.975   3.992
 5905TIP3    H117721   6.189   1.924   4.009
 5905TIP3    H217722   6.038   1.910   3.996
 5906TIP3   OH217723   4.792   0.718   4.635
 5906TIP3    H117724   4.702   0.723   4.602
 5906TIP3    H217725   4.791   0.647   4.698
 5907TIP3   OH217726   2.412   4.712   2.946
 5907TIP3    H117727   2.331   4.665   2.965
 5907TIP3    H217728   2.466   4.700   3.024
 5908TIP3   OH217729   4.828   0.817   5.104
 5908TIP3    H117730   4.844   0.875   5.029
 5908TIP3    H217731   4.906   0.828   5.159
 5909TIP3   OH217732   1.755   2.757   3.555
 5909TIP3    H117733   1.795   2.687   3.605
 5909TIP3    H217734   1.802   2.758   3.472
 5910TIP3   OH217735   1.339   2.383   0.288
 5910TIP3    H117736   1.246   2.368   0.306
 5910TIP3    H217737   1.377   2.296   0.284
 5911TIP3   OH217738   0.773   1.231   4.366
 5911TIP3    H117739   0.815   1.314   4.387
 5911TIP3    H217740   0.779   1.224   4.270
 5912TIP3   OH217741   2.369   1.557   0.626
 5912TIP3    H117742   2.413   1.633   0.589
 5912TIP3    H217743   2.309   1.593   0.692
 5913TIP3   OH217744   0.082   1.736   3.604
 5913TIP3    H117745   0.153   1.737   3.540
 5913TIP3    H217746   0.024   1.807   3.576
 5914TIP3   OH217747   4.053   5.564   4.645
 5914TIP3    H117748   4.020   5.551   4.556
 5914TIP3    H217749   4.044   5.478   4.687
 5915TIP3   OH217750   3.715   5.208   0.481
 5915TIP3    H117751   3.655   5.202   0.555
 5915TIP3    H217752   3.708   5.124   0.437
 5916TIP3   OH217753   5.878   4.667   5.081
 5916TIP3    H117754   5.851   4.583   5.042
 5916TIP3    H217755   5.850   4.733   5.017
 5917TIP3   OH217756   2.120   4.038   4.863
 5917TIP3    H117757   2.092   4.010   4.951
 5917TIP3    H217758   2.211   4.010   4.857
 5918TIP3   OH217759   2.050   1.777   4.296
 5918TIP3    H117760   1.990   1.705   4.274
 5918TIP3    H217761   2.080   1.809   4.211
 5919TIP3   OH217762   5.526   2.789   0.887
 5919TIP3    H117763   5.492   2.846   0.956
 5919TIP3    H217764   5.511   2.701   0.919
 5920TIP3   OH217765   3.850   0.449   1.498
 5920TIP3    H117766   3.876   0.361   1.472
 5920TIP3    H217767   3.821   0.440   1.589
 5921TIP3   OH217768   2.525   3.797   0.754
 5921TIP3    H117769   2.598   3.746   0.790
 5921TIP3    H217770   2.488   3.841   0.831
 5922TIP3   OH217771   0.271   4.903   4.490
 5922TIP3    H117772   0.245   4.811   4.489
 5922TIP3    H217773   0.245   4.937   4.405
 5923TIP3   OH217774   5.768   1.771   5.068
 5923TIP3    H117775   5.813   1.838   5.016
 5923TIP3    H217776   5.739   1.817   5.146
 5924TIP3   OH217777   2.482   2.572   0.746
 5924TIP3    H117778   2.553   2.569   0.811
 5924TIP3    H217779   2.416   2.628   0.786
 5925TIP3   OH217780   0.723   4.722   3.108
 5925TIP3    H117781   0.695   4.785   3.041
 5925TIP3    H217782   0.705   4.766   3.191
 5926TIP3   OH217783   6.203   3.232   4.213
 5926TIP3    H117784   6.139   3.206   4.147
 5926TIP3    H217785   6.287   3.230   4.168
 5927TIP3   OH217786   0.042   2.375   1.511
 5927TIP3    H117787   0.006   2.454   1.470
 5927TIP3    H217788   0.079   2.325   1.439
 5928TIP3   OH217789   4.610   1.761   5.095
 5928TIP3    H117790   4.701   1.747   5.122
 5928TIP3    H217791   4.616   1.805   5.010
 5929TIP3   OH217792   0.089   4.398   2.093
 5929TIP3    H117793   0.027   4.325   2.082
 5929TIP3    H217794   0.174   4.359   2.076
 5930TIP3   OH217795   0.553   3.166   1.673
 5930TIP3    H117796   0.648   3.158   1.666
 5930TIP3    H217797   0.522   3.077   1.686
 5931TIP3   OH217798   3.207   4.187   1.910
 5931TIP3    H117799   3.209   4.144   1.996
 5931TIP3    H217800   3.145   4.135   1.859
 5932TIP3   OH217801   3.429   0.651   0.425
 5932TIP3    H117802   3.402   0.604   0.346
 5932TIP3    H217803   3.525   0.653   0.421
 5933TIP3   OH217804   4.954   0.488   0.481
 5933TIP3    H117805   4.967   0.429   0.555
 5933TIP3    H217806   5.040   0.498   0.442
 5934TIP3   OH217807   0.389   5.765   4.342
 5934TIP3    H117808   0.404   5.737   4.251
 5934TIP3    H217809   0.329   5.699   4.377
 5935TIP3   OH217810   1.446   1.167   4.908
 5935TIP3    H117811   1.467   1.259   4.925
 5935TIP3    H217812   1.451   1.125   4.994
 5936TIP3   OH217813   1.093   0.489   3.828
 5936TIP3    H117814   1.147   0.497   3.906
 5936TIP3    H217815   1.004   0.505   3.859
 5937TIP3   OH217816   4.907   1.544   1.161
 5937TIP3    H117817   4.949   1.571   1.243
 5937TIP3    H217818   4.981   1.522   1.103
 5938TIP3   OH217819   1.097   2.056   4.577
 5938TIP3    H117820   1.036   2.108   4.628
 5938TIP3    H217821   1.087   1.967   4.611
 5939TIP3   OH217822   0.020   2.097   1.256
 5939TIP3    H117823  -0.035   2.029   1.295
 5939TIP3    H217824   0.091   2.110   1.318
 5940TIP3   OH217825   0.383   5.665   4.100
 5940TIP3    H117826   0.420   5.720   4.031
 5940TIP3    H217827   0.310   5.619   4.058
 5941TIP3   OH217828   4.902   4.436   1.543
 5941TIP3    H117829   4.902   4.519   1.494
 5941TIP3    H217830   4.991   4.428   1.576
 5942TIP3   OH217831   4.608   2.454   2.303
 5942TIP3    H117832   4.608   2.372   2.253
 5942TIP3    H217833   4.577   2.429   2.390
 5943TIP3   OH217834   6.380   3.502   3.180
 5943TIP3    H117835   6.312   3.501   3.113
 5943TIP3    H217836   6.343   3.555   3.251
 5944TIP3   OH217837   1.687   5.238   2.275
 5944TIP3    H117838   1.771   5.251   2.232
 5944TIP3    H217839   1.641   5.322   2.263
 5945TIP3   OH217840   1.778   2.204   1.512
 5945TIP3    H117841   1.696   2.155   1.517
 5945TIP3    H217842   1.763   2.268   1.442
 5946TIP3   OH217843   3.270   3.096   1.767
 5946TIP3    H117844   3.337   3.137   1.821
 5946TIP3    H217845   3.187   3.131   1.801
 5947TIP3   OH217846   3.817   4.827   1.066
 5947TIP3    H117847   3.888   4.798   1.124
 5947TIP3    H217848   3.758   4.752   1.061
 5948TIP3   OH217849   4.077   1.899   2.719
 5948TIP3    H117850   4.095   1.826   2.779
 5948TIP3    H217851   4.163   1.921   2.683
 5949TIP3   OH217852   2.026   5.911   0.113
 5949TIP3    H117853   2.021   5.850   0.039
 5949TIP3    H217854   2.059   5.992   0.074
 5950TIP3   OH217855   4.773   2.738   0.704
 5950TIP3    H117856   4.820   2.820   0.691
 5950TIP3    H217857   4.683   2.757   0.680
 5951TIP3   OH217858   5.495   4.173   3.135
 5951TIP3    H117859   5.519   4.081   3.126
 5951TIP3    H217860   5.459   4.197   3.050
 5952TIP3   OH217861   1.429   5.211   1.589
 5952TIP3    H117862   1.413   5.200   1.496
 5952TIP3    H217863   1.450   5.304   1.599
 5953TIP3   OH217864   0.552   3.551   2.802
 5953TIP3    H117865   0.530   3.473   2.752
 5953TIP3    H217866   0.482   3.613   2.781
 5954TIP3   OH217867   2.089   1.567   0.018
 5954TIP3    H117868   2.145   1.555  -0.059
 5954TIP3    H217869   2.133   1.518   0.087
 5955TIP3   OH217870   1.966   2.244   4.079
 5955TIP3    H117871   1.879   2.260   4.116
 5955TIP3    H217872   1.996   2.163   4.120
 5956TIP3   OH217873   0.893   5.964   4.685
 5956TIP3    H117874   0.880   5.879   4.642
 5956TIP3    H217875   0.979   5.992   4.655
 5957TIP3   OH217876   6.171   0.112   0.436
 5957TIP3    H117877   6.248   0.090   0.488
 5957TIP3    H217878   6.150   0.031   0.389
 5958TIP3   OH217879   3.267   3.092  -0.010
 5958TIP3    H117880   3.312   3.035   0.053
 5958TIP3    H217881   3.178   3.099   0.024
 5959TIP3   OH217882   0.829   2.751   5.097
 5959TIP3    H117883   0.843   2.667   5.054
 5959TIP3    H217884   0.894   2.752   5.168
 5960TIP3   OH217885   4.855   1.884   4.186
 5960TIP3    H117886   4.765   1.851   4.192
 5960TIP3    H217887   4.887   1.885   4.276
 5961TIP3   OH217888   2.084   2.402   1.990
 5961TIP3    H117889   2.013   2.342   2.014
 5961TIP3    H217890   2.066   2.426   1.899
 5962TIP3   OH217891   5.410   3.842   3.106
 5962TIP3    H117892   5.324   3.860   3.068
 5962TIP3    H217893   5.391   3.812   3.195
 5963TIP3   OH217894   1.325   3.759   1.945
 5963TIP3    H117895   1.356   3.819   2.013
 5963TIP3    H217896   1.239   3.730   1.977
 5964TIP3   OH217897   5.095   3.465   2.460
 5964TIP3    H117898   5.039   3.467   2.538
 5964TIP3    H217899   5.036   3.488   2.388
 5965TIP3   OH217900   4.963   2.986   0.842
 5965TIP3    H117901   4.955   2.919   0.910
 5965TIP3    H217902   5.049   2.970   0.803
 5966TIP3   OH217903   3.805   2.526   0.651
 5966TIP3    H117904   3.748   2.586   0.604
 5966TIP3    H217905   3.746   2.471   0.702
 5967TIP3   OH217906   1.182   3.442   4.056
 5967TIP3    H117907   1.274   3.461   4.071
 5967TIP3    H217908   1.181   3.351   4.026
 5968TIP3   OH217909   1.027   4.404   3.551
 5968TIP3    H117910   0.995   4.461   3.481
 5968TIP3    H217911   0.962   4.412   3.620
 5969TIP3   OH217912   4.714   2.291   4.714
 5969TIP3    H117913   4.776   2.222   4.690
 5969TIP3    H217914   4.629   2.260   4.681
 5970TIP3   OH217915   4.485   4.900   1.973
 5970TIP3    H117916   4.480   4.953   1.894
 5970TIP3    H217917   4.517   4.960   2.041
 5971TIP3   OH217918   2.365   4.518   4.899
 5971TIP3    H117919   2.432   4.473   4.847
 5971TIP3    H217920   2.411   4.544   4.979
 5972TIP3   OH217921   5.280   5.627   2.457
 5972TIP3    H117922   5.188   5.638   2.435
 5972TIP3    H217923   5.293   5.682   2.534
 5973TIP3   OH217924   6.257   3.850   3.430
 5973TIP3    H117925   6.348   3.877   3.438
 5973TIP3    H217926   6.257   3.759   3.459
 5974TIP3   OH217927   1.720   1.249   0.963
 5974TIP3    H117928   1.811   1.219   0.958
 5974TIP3    H217929   1.670   1.169   0.978
 5975TIP3   OH217930   4.708   4.396   0.075
 5975TIP3    H117931   4.670   4.341   0.006
 5975TIP3    H217932   4.740   4.474   0.029
 5976TIP3   OH217933   1.680   5.351   1.822
 5976TIP3    H117934   1.764   5.397   1.827
 5976TIP3    H217935   1.693   5.271   1.874
 5977TIP3   OH217936   0.010   2.874   4.627
 5977TIP3    H117937   0.024   2.968   4.622
 5977TIP3    H217938   0.087   2.835   4.585
 5978TIP3   OH217939   5.896   0.131   0.474
 5978TIP3    H117940   5.989   0.144   0.492
 5978TIP3    H217941   5.894   0.066   0.403
 5979TIP3   OH217942   3.307   4.864   3.987
 5979TIP3    H117943   3.367   4.896   4.055
 5979TIP3    H217944   3.254   4.797   4.031
 5980TIP3   OH217945   0.853   3.783   0.570
 5980TIP3    H117946   0.800   3.807   0.646
 5980TIP3    H217947   0.925   3.732   0.606
 5981TIP3   OH217948   0.568   4.245   3.289
 5981TIP3    H117949   0.543   4.176   3.350
 5981TIP3    H217950   0.662   4.256   3.301
 5982TIP3   OH217951   3.711   4.328   2.966
 5982TIP3    H117952   3.667   4.346   2.882
 5982TIP3    H217953   3.705   4.234   2.977
 5983TIP3   OH217954   3.896   1.783   0.236
 5983TIP3    H117955   3.982   1.807   0.271
 5983TIP3    H217956   3.912   1.701   0.189
 5984TIP3   OH217957   5.413   3.154   3.984
 5984TIP3    H117958   5.326   3.114   3.981
 5984TIP3    H217959   5.468   3.090   4.029
 5985TIP3   OH217960   0.570   3.628   3.734
 5985TIP3    H117961   0.608   3.563   3.675
 5985TIP3    H217962   0.565   3.583   3.819
 5986TIP3   OH217963   2.300   0.392   0.190
 5986TIP3    H117964   2.313   0.323   0.125
 5986TIP3    H217965   2.372   0.381   0.252
 5987TIP3   OH217966   0.651   5.000   3.155
 5987TIP3    H117967   0.677   4.986   3.246
 5987TIP3    H217968   0.718   5.059   3.119
 5988TIP3   OH217969   2.342   0.131   4.155
 5988TIP3    H117970   2.379   0.082   4.081
 5988TIP3    H217971   2.411   0.127   4.222
 5989TIP3   OH217972   4.574   4.168   2.991
 5989TIP3    H117973   4.586   4.254   3.031
 5989TIP3    H217974   4.575   4.107   3.064
 5990TIP3   OH217975   2.525   4.430   5.157
 5990TIP3    H117976   2.475   4.366   5.207
 5990TIP3    H217977   2.562   4.381   5.084
 5991TIP3   OH217978   2.472   1.149   0.932
 5991TIP3    H117979   2.466   1.131   1.026
 5991TIP3    H217980   2.489   1.063   0.893
 5992TIP3   OH217981   5.050   0.316   2.939
 5992TIP3    H117982   5.048   0.400   2.894
 5992TIP3    H217983   5.143   0.296   2.950
 5993TIP3   OH217984   6.319   5.544   1.800
 5993TIP3    H117985   6.265   5.586   1.866
 5993TIP3    H217986   6.388   5.608   1.782
 5994TIP3   OH217987   1.690   4.606   1.992
 5994TIP3    H117988   1.694   4.541   2.062
 5994TIP3    H217989   1.694   4.554   1.912
 5995TIP3   OH217990   4.682   5.241   0.571
 5995TIP3    H117991   4.743   5.313   0.586
 5995TIP3    H217992   4.680   5.231   0.476
 5996TIP3   OH217993   5.595   5.774   2.015
 5996TIP3    H117994   5.551   5.760   1.932
 5996TIP3    H217995   5.581   5.692   2.064
 5997TIP3   OH217996   3.124   1.211   3.608
 5997TIP3    H117997   3.103   1.294   3.652
 5997TIP3    H217998   3.087   1.144   3.664
 5998TIP3   OH217999   5.445   0.425   1.103
 5998TIP3    H118000   5.469   0.356   1.041
 5998TIP3    H218001   5.526   0.443   1.152
 5999TIP3   OH218002   2.364   3.830   4.774
 5999TIP3    H118003   2.339   3.774   4.847
 5999TIP3    H218004   2.357   3.774   4.696
 6000TIP3   OH218005   0.704   4.448   1.107
 6000TIP3    H118006   0.673   4.464   1.018
 6000TIP3    H218007   0.627   4.465   1.162
 6001TIP3   OH218008   2.310   2.168   1.339
 6001TIP3    H118009   2.272   2.256   1.337
 6001TIP3    H218010   2.278   2.130   1.421
 6002TIP3   OH218011   4.415   0.448   2.115
 6002TIP3    H118012   4.326   0.419   2.136
 6002TIP3    H218013   4.471   0.376   2.145
 6003TIP3   OH218014   1.189   3.414   3.295
 6003TIP3    H118015   1.194   3.344   3.361
 6003TIP3    H218016   1.185   3.494   3.346
 6004TIP3   OH218017   3.134   5.835   3.811
 6004TIP3    H118018   3.188   5.773   3.763
 6004TIP3    H218019   3.138   5.805   3.902
 6005TIP3   OH218020   0.879   0.160   4.247
 6005TIP3    H118021   0.820   0.165   4.322
 6005TIP3    H218022   0.950   0.221   4.268
 6006TIP3   OH218023   2.371   3.905   0.966
 6006TIP3    H118024   2.406   3.986   0.928
 6006TIP3    H218025   2.298   3.934   1.020
 6007TIP3   OH218026   5.076   1.705   3.812
 6007TIP3    H118027   5.038   1.783   3.853
 6007TIP3    H218028   5.056   1.634   3.872
 6008TIP3   OH218029   5.333   3.549   2.562
 6008TIP3    H118030   5.381   3.608   2.505
 6008TIP3    H218031   5.264   3.512   2.507
 6009TIP3   OH218032   0.641   5.241   2.800
 6009TIP3    H118033   0.589   5.275   2.873
 6009TIP3    H218034   0.624   5.302   2.728
 6010TIP3   OH218035   3.751   3.235   1.719
 6010TIP3    H118036   3.736   3.195   1.804
 6010TIP3    H218037   3.702   3.180   1.657
 6011TIP3   OH218038   0.809   2.804   0.224
 6011TIP3    H118039   0.887   2.857   0.206
 6011TIP3    H218040   0.843   2.730   0.275
 6012TIP3   OH218041   3.527   4.166   4.995
 6012TIP3    H118042   3.558   4.179   4.905
 6012TIP3    H218043   3.540   4.073   5.012
 6013TIP3   OH218044   3.974   1.713   2.335
 6013TIP3    H118045   3.887   1.679   2.312
 6013TIP3    H218046   4.033   1.670   2.273
 6014TIP3   OH218047   1.644   5.066   1.653
 6014TIP3    H118048   1.678   5.112   1.730
 6014TIP3    H218049   1.567   5.116   1.627
 6015TIP3   OH218050   4.150   4.547   1.838
 6015TIP3    H118051   4.224   4.609   1.838
 6015TIP3    H218052   4.164   4.494   1.760
 6016TIP3   OH218053   5.213   2.033   1.647
 6016TIP3    H118054   5.146   2.057   1.584
 6016TIP3    H218055   5.172   2.045   1.733
 6017TIP3   OH218056   1.064   3.044   2.338
 6017TIP3    H118057   1.110   2.972   2.382
 6017TIP3    H218058   0.978   3.046   2.379
 6018TIP3   OH218059   5.001   5.175   4.439
 6018TIP3    H118060   5.040   5.147   4.356
 6018TIP3    H218061   5.044   5.120   4.505
 6019TIP3   OH218062   1.588   5.478   2.230
 6019TIP3    H118063   1.605   5.538   2.303
 6019TIP3    H218064   1.493   5.476   2.222
 6020TIP3   OH218065   2.993   2.401   4.950
 6020TIP3    H118066   3.081   2.411   4.915
 6020TIP3    H218067   2.999   2.434   5.040
 6021TIP3   OH218068   3.061   4.306   1.324
 6021TIP3    H118069   3.087   4.231   1.378
 6021TIP3    H218070   3.028   4.267   1.243
 6022TIP3   OH218071   5.191   4.201   4.757
 6022TIP3    H118072   5.191   4.217   4.663
 6022TIP3    H218073   5.177   4.106   4.765
 6023TIP3   OH218074   6.296   4.609   0.302
 6023TIP3    H118075   6.307   4.684   0.244
 6023TIP3    H218076   6.206   4.579   0.286
 6024TIP3   OH218077   1.251   0.695   4.238
 6024TIP3    H118078   1.337   0.672   4.201
 6024TIP3    H218079   1.256   0.790   4.252
 6025TIP3   OH218080   3.387   5.095   3.842
 6025TIP3    H118081   3.408   5.035   3.771
 6025TIP3    H218082   3.382   5.039   3.920
 6026TIP3   OH218083   0.417   2.501   0.491
 6026TIP3    H118084   0.459   2.417   0.510
 6026TIP3    H218085   0.488   2.555   0.456
 6027TIP3   OH218086   2.016   5.169   4.927
 6027TIP3    H118087   2.075   5.171   5.003
 6027TIP3    H218088   2.073   5.164   4.851
 6028TIP3   OH218089   5.904   1.497   4.885
 6028TIP3    H118090   5.834   1.557   4.909
 6028TIP3    H218091   5.901   1.427   4.951
 6029TIP3   OH218092   0.710   0.181   2.993
 6029TIP3    H118093   0.769   0.188   2.918
 6029TIP3    H218094   0.687   0.088   2.998
 6030TIP3   OH218095   6.171   1.815   0.508
 6030TIP3    H118096   6.079   1.789   0.519
 6030TIP3    H218097   6.210   1.806   0.595
 6031TIP3   OH218098   1.090   5.838   4.958
 6031TIP3    H118099   1.113   5.797   4.875
 6031TIP3    H218100   1.075   5.930   4.937
 6032TIP3   OH218101   3.798   3.102   3.114
 6032TIP3    H118102   3.817   3.088   3.207
 6032TIP3    H218103   3.880   3.081   3.069
 6033TIP3   OH218104   6.278   1.267   1.459
 6033TIP3    H118105   6.222   1.258   1.382
 6033TIP3    H218106   6.223   1.241   1.532
 6034TIP3   OH218107   0.159   0.484   4.367
 6034TIP3    H118108   0.181   0.566   4.411
 6034TIP3    H218109   0.154   0.506   4.274
 6035TIP3   OH218110   0.909   2.500   3.700
 6035TIP3    H118111   0.849   2.526   3.771
 6035TIP3    H218112   0.860   2.435   3.650
 6036TIP3   OH218113   4.306   1.602   0.865
 6036TIP3    H118114   4.240   1.671   0.862
 6036TIP3    H218115   4.310   1.576   0.958
 6037TIP3   OH218116   2.894   1.808   3.743
 6037TIP3    H118117   2.810   1.764   3.731
 6037TIP3    H218118   2.877   1.875   3.809
 6038TIP3   OH218119   0.689   3.499   3.044
 6038TIP3    H118120   0.665   3.564   3.110
 6038TIP3    H218121   0.633   3.520   2.969
 6039TIP3   OH218122   3.018   5.236   1.123
 6039TIP3    H118123   3.063   5.319   1.139
 6039TIP3    H218124   3.077   5.169   1.156
 6040TIP3   OH218125   1.992   0.515   4.578
 6040TIP3    H118126   2.068   0.493   4.523
 6040TIP3    H218127   1.945   0.582   4.528
 6041TIP3   OH218128   1.518   4.254   3.697
 6041TIP3    H118129   1.608   4.249   3.730
 6041TIP3    H218130   1.507   4.346   3.673
 6042TIP3   OH218131   4.215   0.087   4.917
 6042TIP3    H118132   4.220   0.131   5.002
 6042TIP3    H218133   4.137   0.031   4.924
 6043TIP3   OH218134   0.621   4.008   0.449
 6043TIP3    H118135   0.568   4.034   0.525
 6043TIP3    H218136   0.616   3.913   0.447
 6044TIP3   OH218137   1.597   4.844   2.049
 6044TIP3    H118138   1.610   4.881   2.136
 6044TIP3    H218139   1.631   4.755   2.056
 6045TIP3   OH218140   2.536   5.387   0.458
 6045TIP3    H118141   2.509   5.467   0.502
 6045TIP3    H218142   2.606   5.414   0.399
 6046TIP3   OH218143   2.052   4.818   4.903
 6046TIP3    H118144   1.958   4.836   4.902
 6046TIP3    H218145   2.077   4.828   4.995
 6047TIP3   OH218146   2.045   2.546   2.219
 6047TIP3    H118147   2.075   2.500   2.298
 6047TIP3    H218148   2.064   2.485   2.147
 6048TIP3   OH218149   3.396   2.958   2.392
 6048TIP3    H118150   3.487   2.954   2.363
 6048TIP3    H218151   3.397   3.016   2.469
 6049TIP3   OH218152   6.073   2.840   3.346
 6049TIP3    H118153   6.107   2.927   3.326
 6049TIP3    H218154   6.105   2.821   3.434
 6050TIP3   OH218155   2.476   3.269   4.093
 6050TIP3    H118156   2.570   3.259   4.106
 6050TIP3    H218157   2.448   3.185   4.056
 6051TIP3   OH218158   3.178   1.597   2.554
 6051TIP3    H118159   3.207   1.561   2.638
 6051TIP3    H218160   3.121   1.671   2.577
 6052TIP3   OH218161   3.420   5.225   0.935
 6052TIP3    H118162   3.512   5.219   0.911
 6052TIP3    H218163   3.376   5.164   0.876
 6053TIP3   OH218164   5.652   2.755   4.755
 6053TIP3    H118165   5.680   2.746   4.664
 6053TIP3    H218166   5.717   2.813   4.795
 6054TIP3   OH218167   0.885   3.733   1.976
 6054TIP3    H118168   0.798   3.700   1.953
 6054TIP3    H218169   0.933   3.656   2.008
 6055TIP3   OH218170   1.564   0.750   4.399
 6055TIP3    H118171   1.617   0.765   4.478
 6055TIP3    H218172   1.504   0.680   4.424
 6056TIP3   OH218173   0.860   0.464   0.199
 6056TIP3    H118174   0.941   0.433   0.159
 6056TIP3    H218175   0.846   0.407   0.274
 6057TIP3   OH218176   5.736   2.536   2.837
 6057TIP3    H118177   5.799   2.506   2.902
 6057TIP3    H218178   5.655   2.549   2.886
 6058TIP3   OH218179   4.408   1.362   3.844
 6058TIP3    H118180   4.340   1.311   3.887
 6058TIP3    H218181   4.364   1.404   3.770
 6059TIP3   OH218182   4.852   3.753   1.952
 6059TIP3    H118183   4.818   3.688   2.013
 6059TIP3    H218184   4.783   3.762   1.887
 6060TIP3   OH218185   0.428   5.346   3.007
 6060TIP3    H118186   0.348   5.394   2.989
 6060TIP3    H218187   0.472   5.396   3.076
 6061TIP3   OH218188   2.024   5.900   0.759
 6061TIP3    H118189   1.972   5.980   0.753
 6061TIP3    H218190   2.111   5.931   0.786
 6062TIP3   OH218191   0.058   0.521   2.286
 6062TIP3    H118192   0.142   0.530   2.242
 6062TIP3    H218193   0.034   0.610   2.312
 6063TIP3   OH218194   2.895   0.073   4.974
 6063TIP3    H118195   2.883   0.161   5.010
 6063TIP3    H218196   2.932   0.022   5.046
 6064TIP3   OH218197   5.326   5.763   4.842
 6064TIP3    H118198   5.318   5.858   4.838
 6064TIP3    H218199   5.291   5.739   4.927
 6065TIP3   OH218200   2.610   3.376   2.354
 6065TIP3    H118201   2.667   3.312   2.311
 6065TIP3    H218202   2.522   3.338   2.345
 6066TIP3   OH218203   3.329   2.420   3.543
 6066TIP3    H118204   3.324   2.423   3.639
 6066TIP3    H218205   3.249   2.465   3.514
 6067TIP3   OH218206   0.027   5.171   0.820
 6067TIP3    H118207  -0.026   5.173   0.900
 6067TIP3    H218208   0.000   5.249   0.772
 6068TIP3   OH218209   5.932   2.928   4.292
 6068TIP3    H118210   5.886   2.864   4.238
 6068TIP3    H218211   5.999   2.878   4.338
 6069TIP3   OH218212   5.481   3.602   3.819
 6069TIP3    H118213   5.575   3.620   3.819
 6069TIP3    H218214   5.470   3.530   3.881
 6070TIP3   OH218215   2.205   1.191   0.015
 6070TIP3    H118216   2.248   1.110   0.041
 6070TIP3    H218217   2.274   1.257   0.017
 6071TIP3   OH218218   3.462   4.443   4.595
 6071TIP3    H118219   3.378   4.448   4.641
 6071TIP3    H218220   3.441   4.398   4.513
 6072TIP3   OH218221   2.169   2.845   4.004
 6072TIP3    H118222   2.240   2.858   3.942
 6072TIP3    H218223   2.183   2.757   4.039
 6073TIP3   OH218224   4.656   3.601   0.007
 6073TIP3    H118225   4.629   3.544   0.079
 6073TIP3    H218226   4.606   3.570  -0.068
 6074TIP3   OH218227   3.428   3.682   1.458
 6074TIP3    H118228   3.377   3.726   1.526
 6074TIP3    H218229   3.519   3.706   1.476
 6075TIP3   OH218230   3.011   3.973   2.588
 6075TIP3    H118231   3.050   3.898   2.633
 6075TIP3    H218232   3.005   4.041   2.654
 6076TIP3   OH218233   6.247   1.114   4.309
 6076TIP3    H118234   6.173   1.164   4.274
 6076TIP3    H218235   6.288   1.173   4.372
 6077TIP3   OH218236   3.692   5.136   0.777
 6077TIP3    H118237   3.679   5.137   0.872
 6077TIP3    H218238   3.778   5.095   0.765
 6078TIP3   OH218239   5.132   2.839   1.881
 6078TIP3    H118240   5.131   2.780   1.956
 6078TIP3    H218241   5.169   2.921   1.916
 6079TIP3   OH218242   4.749   2.107   1.623
 6079TIP3    H118243   4.716   2.156   1.548
 6079TIP3    H218244   4.711   2.151   1.699
 6080TIP3   OH218245   0.941   5.519   5.027
 6080TIP3    H118246   0.941   5.534   5.122
 6080TIP3    H218247   0.868   5.460   5.012
 6081TIP3   OH218248   0.673   4.469   2.858
 6081TIP3    H118249   0.758   4.513   2.857
 6081TIP3    H218250   0.692   4.377   2.841
 6082TIP3   OH218251   6.117   5.191   5.099
 6082TIP3    H118252   6.055   5.211   5.169
 6082TIP3    H218253   6.074   5.221   5.019
 6083TIP3   OH218254   1.282   4.286   0.129
 6083TIP3    H118255   1.261   4.285   0.222
 6083TIP3    H218256   1.346   4.215   0.118
 6084TIP3   OH218257   3.251   3.981   5.172
 6084TIP3    H118258   3.222   3.890   5.176
 6084TIP3    H218259   3.342   3.975   5.143
 6085TIP3   OH218260   1.539   0.964   3.631
 6085TIP3    H118261   1.509   1.040   3.681
 6085TIP3    H218262   1.551   0.895   3.696
 6086TIP3   OH218263   3.985   4.679   2.899
 6086TIP3    H118264   3.922   4.728   2.846
 6086TIP3    H218265   4.068   4.688   2.852
 6087TIP3   OH218266   1.736   3.625   2.919
 6087TIP3    H118267   1.721   3.532   2.935
 6087TIP3    H218268   1.754   3.631   2.825
 6088TIP3   OH218269   3.114   2.577   0.696
 6088TIP3    H118270   3.166   2.585   0.616
 6088TIP3    H218271   3.026   2.557   0.665
 6089TIP3   OH218272   5.076   5.596   4.723
 6089TIP3    H118273   5.097   5.503   4.730
 6089TIP3    H218274   4.999   5.599   4.667
 6090TIP3   OH218275   2.876   5.561   3.328
 6090TIP3    H118276   2.842   5.635   3.277
 6090TIP3    H218277   2.828   5.485   3.295
 6091TIP3   OH218278   2.828   5.748   4.501
 6091TIP3    H118279   2.781   5.721   4.580
 6091TIP3    H218280   2.920   5.752   4.528
 6092TIP3   OH218281   3.450   0.748   2.426
 6092TIP3    H118282   3.405   0.703   2.497
 6092TIP3    H218283   3.422   0.702   2.347
 6093TIP3   OH218284   6.055   1.889   2.594
 6093TIP3    H118285   6.053   1.794   2.598
 6093TIP3    H218286   6.038   1.910   2.503
 6094TIP3   OH218287   5.709   3.922   4.403
 6094TIP3    H118288   5.712   3.856   4.472
 6094TIP3    H218289   5.736   3.876   4.324
 6095TIP3   OH218290   4.000   0.003   4.172
 6095TIP3    H118291   4.014  -0.013   4.266
 6095TIP3    H218292   3.908  -0.019   4.158
 6096TIP3   OH218293   5.836   1.539   1.690
 6096TIP3    H118294   5.787   1.598   1.633
 6096TIP3    H218295   5.861   1.466   1.633
 6097TIP3   OH218296   1.480   2.277   5.075
 6097TIP3    H118297   1.568   2.311   5.087
 6097TIP3    H218298   1.469   2.272   4.980
 6098TIP3   OH218299   0.696   0.379   1.379
 6098TIP3    H118300   0.740   0.358   1.297
 6098TIP3    H218301   0.706   0.474   1.388
 6099TIP3   OH218302   5.100   4.398   3.822
 6099TIP3    H118303   5.035   4.390   3.752
 6099TIP3    H218304   5.124   4.491   3.822
 6100TIP3   OH218305   1.418   0.834   1.311
 6100TIP3    H118306   1.438   0.923   1.283
 6100TIP3    H218307   1.492   0.782   1.282
 6101TIP3   OH218308   4.616   0.451   2.872
 6101TIP3    H118309   4.527   0.436   2.840
 6101TIP3    H218310   4.605   0.510   2.946
 6102TIP3   OH218311   2.332   1.424   2.286
 6102TIP3    H118312   2.413   1.397   2.242
 6102TIP3    H218313   2.279   1.344   2.291
 6103TIP3   OH218314   3.554   0.476   4.016
 6103TIP3    H118315   3.574   0.520   3.933
 6103TIP3    H218316   3.566   0.543   4.082
 6104TIP3   OH218317   0.821   4.129   1.354
 6104TIP3    H118318   0.869   4.151   1.434
 6104TIP3    H218319   0.733   4.108   1.383
 6105TIP3   OH218320   3.366   1.540   2.778
 6105TIP3    H118321   3.358   1.554   2.872
 6105TIP3    H218322   3.455   1.570   2.757
 6106TIP3   OH218323   0.393   3.500   1.125
 6106TIP3    H118324   0.332   3.466   1.190
 6106TIP3    H218325   0.462   3.542   1.177
 6107TIP3   OH218326   5.175   2.772   4.709
 6107TIP3    H118327   5.261   2.814   4.719
 6107TIP3    H218328   5.138   2.811   4.630
 6108TIP3   OH218329   0.146   2.092   3.221
 6108TIP3    H118330   0.209   2.047   3.165
 6108TIP3    H218331   0.070   2.034   3.224
 6109TIP3   OH218332   6.117   5.271   2.772
 6109TIP3    H118333   6.197   5.320   2.788
 6109TIP3    H218334   6.107   5.271   2.677
 6110TIP3   OH218335   3.554   1.673   4.757
 6110TIP3    H118336   3.560   1.625   4.674
 6110TIP3    H218337   3.493   1.622   4.810
 6111TIP3   OH218338   4.266   5.421   3.991
 6111TIP3    H118339   4.246   5.504   3.948
 6111TIP3    H218340   4.331   5.379   3.935
 6112TIP3   OH218341   1.012   4.329   5.143
 6112TIP3    H118342   0.974   4.354   5.059
 6112TIP3    H218343   1.107   4.330   5.128
 6113TIP3   OH218344   1.963   1.648   0.716
 6113TIP3    H118345   1.876   1.634   0.678
 6113TIP3    H218346   2.024   1.633   0.644
 6114TIP3   OH218347   1.121   2.721   2.802
 6114TIP3    H118348   1.162   2.800   2.838
 6114TIP3    H218349   1.189   2.681   2.748
 6115TIP3   OH218350   0.784   2.795   3.806
 6115TIP3    H118351   0.754   2.716   3.852
 6115TIP3    H218352   0.767   2.866   3.868
 6116TIP3   OH218353   0.849   0.209   3.776
 6116TIP3    H118354   0.901   0.131   3.797
 6116TIP3    H218355   0.827   0.246   3.862
 6117TIP3   OH218356   0.550   2.123   4.241
 6117TIP3    H118357   0.483   2.058   4.218
 6117TIP3    H218358   0.542   2.133   4.336
 6118TIP3   OH218359   2.506   2.990   5.130
 6118TIP3    H118360   2.434   3.052   5.120
 6118TIP3    H218361   2.578   3.042   5.163
 6119TIP3   OH218362   1.429   3.938   3.585
 6119TIP3    H118363   1.481   3.941   3.505
 6119TIP3    H218364   1.460   4.012   3.637
 6120TIP3   OH218365   4.914   4.133   4.216
 6120TIP3    H118366   4.855   4.114   4.289
 6120TIP3    H218367   4.980   4.192   4.253
 6121TIP3   OH218368   2.599   3.009   3.611
 6121TIP3    H118369   2.619   2.994   3.519
 6121TIP3    H218370   2.519   2.959   3.626
 6122TIP3   OH218371   3.101   5.036   4.405
 6122TIP3    H118372   3.090   5.036   4.500
 6122TIP3    H218373   3.157   4.960   4.388
 6123TIP3   OH218374   2.956   1.941   2.864
 6123TIP3    H118375   3.051   1.935   2.874
 6123TIP3    H218376   2.934   2.029   2.892
 6124TIP3   OH218377   1.949   0.094   4.716
 6124TIP3    H118378   2.041   0.121   4.718
 6124TIP3    H218379   1.917   0.112   4.805
 6125TIP3   OH218380   1.358   1.612   2.613
 6125TIP3    H118381   1.293   1.675   2.582
 6125TIP3    H218382   1.308   1.533   2.631
 6126TIP3   OH218383   5.092   3.034   3.769
 6126TIP3    H118384   5.067   3.120   3.734
 6126TIP3    H218385   5.165   3.006   3.714
 6127TIP3   OH218386   5.860   0.751   0.449
 6127TIP3    H118387   5.794   0.815   0.422
 6127TIP3    H218388   5.923   0.802   0.501
 6128TIP3   OH218389   4.272   4.591   0.054
 6128TIP3    H118390   4.288   4.682   0.030
 6128TIP3    H218391   4.198   4.595   0.115
 6129TIP3   OH218392   3.712   0.950   3.370
 6129TIP3    H118393   3.643   1.005   3.331
 6129TIP3    H218394   3.781   0.948   3.304
 6130TIP3   OH218395   2.427   3.501   0.663
 6130TIP3    H118396   2.482   3.472   0.591
 6130TIP3    H218397   2.412   3.594   0.646
 6131TIP3   OH218398   0.590   3.096   1.948
 6131TIP3    H118399   0.683   3.106   1.926
 6131TIP3    H218400   0.544   3.155   1.888
 6132TIP3   OH218401   4.388   1.539   2.203
 6132TIP3    H118402   4.413   1.604   2.138
 6132TIP3    H218403   4.469   1.520   2.251
 6133TIP3   OH218404   5.702   4.730   1.512
 6133TIP3    H118405   5.765   4.720   1.440
 6133TIP3    H218406   5.754   4.761   1.585
 6134TIP3   OH218407   2.036   2.211   2.731
 6134TIP3    H118408   1.957   2.205   2.678
 6134TIP3    H218409   2.084   2.130   2.713
 6135TIP3   OH218410   1.221   2.404   1.248
 6135TIP3    H118411   1.177   2.488   1.237
 6135TIP3    H218412   1.182   2.347   1.182
 6136TIP3   OH218413   5.221   1.008   4.862
 6136TIP3    H118414   5.173   0.961   4.931
 6136TIP3    H218415   5.305   1.031   4.903
 6137TIP3   OH218416   3.294   0.536   1.246
 6137TIP3    H118417   3.271   0.477   1.175
 6137TIP3    H218418   3.288   0.483   1.326
 6138TIP3   OH218419   2.626   4.464   1.009
 6138TIP3    H118420   2.589   4.495   0.926
 6138TIP3    H218421   2.708   4.511   1.018
 6139TIP3   OH218422  -0.003   5.901   1.209
 6139TIP3    H118423   0.059   5.866   1.144
 6139TIP3    H218424  -0.003   5.995   1.194
 6140TIP3   OH218425   5.949   3.767   2.695
 6140TIP3    H118426   5.994   3.835   2.646
 6140TIP3    H218427   5.954   3.795   2.786
 6141TIP3   OH218428   3.547   2.977   3.431
 6141TIP3    H118429   3.496   2.926   3.493
 6141TIP3    H218430   3.496   3.056   3.417
 6142TIP3   OH218431   5.482   0.139   1.306
 6142TIP3    H118432   5.521   0.168   1.388
 6142TIP3    H218433   5.414   0.203   1.288
 6143TIP3   OH218434   3.018   4.288   3.217
 6143TIP3    H118435   3.084   4.226   3.184
 6143TIP3    H218436   3.041   4.371   3.177
 6144TIP3   OH218437   0.026   1.863   0.000
 6144TIP3    H118438  -0.042   1.929   0.014
 6144TIP3    H218439   0.039   1.824   0.086
 6145TIP3   OH218440   5.507   0.579   3.599
 6145TIP3    H118441   5.572   0.510   3.585
 6145TIP3    H218442   5.540   0.629   3.674
 6146TIP3   OH218443   5.167   3.358   0.865
 6146TIP3    H118444   5.173   3.444   0.823
 6146TIP3    H218445   5.256   3.324   0.865
 6147TIP3   OH218446   2.562   4.435   3.986
 6147TIP3    H118447   2.620   4.369   4.024
 6147TIP3    H218448   2.613   4.473   3.915
 6148TIP3   OH218449   5.913   4.293   4.206
 6148TIP3    H118450   5.997   4.337   4.190
 6148TIP3    H218451   5.916   4.270   4.298
 6149TIP3   OH218452   4.602   5.133   1.547
 6149TIP3    H118453   4.584   5.143   1.453
 6149TIP3    H218454   4.518   5.152   1.590
 6150TIP3   OH218455   5.696   2.854   3.604
 6150TIP3    H118456   5.666   2.861   3.694
 6150TIP3    H218457   5.630   2.901   3.553
 6151TIP3   OH218458   5.928   0.400   3.296
 6151TIP3    H118459   5.845   0.440   3.270
 6151TIP3    H218460   5.977   0.471   3.336
 6152TIP3   OH218461   2.836   1.936   1.928
 6152TIP3    H118462   2.812   1.968   1.841
 6152TIP3    H218463   2.871   2.012   1.973
 6153TIP3   OH218464   1.891   1.365   2.805
 6153TIP3    H118465   1.845   1.443   2.774
 6153TIP3    H218466   1.979   1.373   2.767
 6154TIP3   OH218467   3.712   4.384   0.079
 6154TIP3    H118468   3.621   4.407   0.099
 6154TIP3    H218469   3.717   4.389  -0.016
 6155TIP3   OH218470   2.312   2.386   0.018
 6155TIP3    H118471   2.325   2.292   0.026
 6155TIP3    H218472   2.217   2.398   0.020
 6156TIP3   OH218473   3.416   2.361   1.633
 6156TIP3    H118474   3.421   2.432   1.697
 6156TIP3    H218475   3.405   2.405   1.549
 6157TIP3   OH218476   3.547   2.073   2.239
 6157TIP3    H118477   3.542   2.168   2.244
 6157TIP3    H218478   3.463   2.047   2.202
 6158TIP3   OH218479   4.333   3.825   3.896
 6158TIP3    H118480   4.363   3.816   3.805
 6158TIP3    H218481   4.374   3.907   3.925
 6159TIP3   OH218482   5.107   3.170   1.218
 6159TIP3    H118483   5.021   3.207   1.201
 6159TIP3    H218484   5.126   3.117   1.141
 6160TIP3   OH218485   1.806   2.186   0.857
 6160TIP3    H118486   1.772   2.124   0.921
 6160TIP3    H218487   1.901   2.183   0.869
 6161TIP3   OH218488   0.111   1.392   2.962
 6161TIP3    H118489   0.056   1.446   2.905
 6161TIP3    H218490   0.050   1.332   3.004
 6162TIP3   OH218491   3.324   5.519   2.645
 6162TIP3    H118492   3.306   5.590   2.706
 6162TIP3    H218493   3.420   5.516   2.640
 6163TIP3   OH218494   4.572   1.601   4.702
 6163TIP3    H118495   4.495   1.544   4.692
 6163TIP3    H218496   4.626   1.582   4.625
 6164TIP3   OH218497   0.729   5.725   3.029
 6164TIP3    H118498   0.720   5.674   3.109
 6164TIP3    H218499   0.780   5.802   3.054
 6165TIP3   OH218500   1.477   3.405   4.297
 6165TIP3    H118501   1.500   3.356   4.218
 6165TIP3    H218502   1.445   3.339   4.358
 6166TIP3   OH218503   2.675   6.014   2.805
 6166TIP3    H118504   2.736   6.070   2.757
 6166TIP3    H218505   2.725   5.935   2.826
 6167TIP3   OH218506   4.811   3.887   3.296
 6167TIP3    H118507   4.893   3.840   3.312
 6167TIP3    H218508   4.837   3.979   3.286
 6168TIP3   OH218509   4.293   2.882   0.423
 6168TIP3    H118510   4.277   2.816   0.490
 6168TIP3    H218511   4.281   2.966   0.467
 6169TIP3   OH218512   2.376   0.933   4.335
 6169TIP3    H118513   2.391   0.915   4.242
 6169TIP3    H218514   2.408   1.023   4.347
 6170TIP3   OH218515   2.289   5.849   1.162
 6170TIP3    H118516   2.249   5.856   1.248
 6170TIP3    H218517   2.383   5.842   1.180
 6171TIP3   OH218518   3.530   5.357   3.513
 6171TIP3    H118519   3.437   5.360   3.492
 6171TIP3    H218520   3.539   5.416   3.589
 6172TIP3   OH218521   3.847   5.724   2.759
 6172TIP3    H118522   3.939   5.750   2.765
 6172TIP3    H218523   3.812   5.735   2.847
 6173TIP3   OH218524   6.348   2.036   1.897
 6173TIP3    H118525   6.306   2.117   1.867
 6173TIP3    H218526   6.392   2.061   1.978
 6174TIP3   OH218527   4.388   0.883   3.463
 6174TIP3    H118528   4.317   0.864   3.525
 6174TIP3    H218529   4.460   0.914   3.519
 6175TIP3   OH218530   3.281   1.272   2.677
 6175TIP3    H118531   3.288   1.355   2.724
 6175TIP3    H218532   3.343   1.214   2.720
 6176TIP3   OH218533   0.870   5.700   4.523
 6176TIP3    H118534   0.876   5.627   4.462
 6176TIP3    H218535   0.914   5.669   4.602
 6177TIP3   OH218536   3.184   1.990   5.196
 6177TIP3    H118537   3.089   2.006   5.202
 6177TIP3    H218538   3.191   1.897   5.179
 6178TIP3   OH218539   5.940   1.553   4.612
 6178TIP3    H118540   5.932   1.565   4.706
 6178TIP3    H218541   6.034   1.546   4.596
 6179TIP3   OH218542   5.786   5.147   0.046
 6179TIP3    H118543   5.856   5.106  -0.004
 6179TIP3    H218544   5.705   5.108   0.012
 6180TIP3   OH218545   5.709   4.730   0.057
 6180TIP3    H118546   5.729   4.745  -0.035
 6180TIP3    H218547   5.745   4.643   0.075
 6181TIP3   OH218548   2.453   2.022   4.744
 6181TIP3    H118549   2.361   2.000   4.760
 6181TIP3    H218550   2.451   2.114   4.716
 6182TIP3   OH218551   1.506   4.487   1.161
 6182TIP3    H118552   1.459   4.561   1.123
 6182TIP3    H218553   1.552   4.525   1.236
 6183TIP3   OH218554   2.114   4.502   5.025
 6183TIP3    H118555   2.134   4.489   5.118
 6183TIP3    H218556   2.199   4.519   4.984
 6184TIP3   OH218557   3.860   3.910   3.321
 6184TIP3    H118558   3.921   3.863   3.264
 6184TIP3    H218559   3.913   3.934   3.398
 6185TIP3   OH218560   3.781   1.928   2.100
 6185TIP3    H118561   3.850   1.874   2.062
 6185TIP3    H218562   3.761   1.885   2.183
 6186TIP3   OH218563   5.480   5.292   1.145
 6186TIP3    H118564   5.394   5.334   1.137
 6186TIP3    H218565   5.525   5.341   1.214
 6187TIP3   OH218566   2.283   2.722   0.852
 6187TIP3    H118567   2.285   2.736   0.947
 6187TIP3    H218568   2.200   2.758   0.823
 6188TIP3   OH218569   1.957   0.049   2.957
 6188TIP3    H118570   1.863   0.047   2.976
 6188TIP3    H218571   1.997  -0.001   3.028
 6189TIP3   OH218572   3.120   1.269   0.738
 6189TIP3    H118573   3.038   1.278   0.787
 6189TIP3    H218574   3.175   1.213   0.793
 6190TIP3   OH218575   4.641   0.185   3.286
 6190TIP3    H118576   4.625   0.104   3.334
 6190TIP3    H218577   4.630   0.162   3.194
 6191TIP3   OH218578   1.821   1.646   3.516
 6191TIP3    H118579   1.758   1.627   3.446
 6191TIP3    H218580   1.905   1.654   3.470
 6192TIP3   OH218581   3.201   5.797   4.814
 6192TIP3    H118582   3.264   5.746   4.865
 6192TIP3    H218583   3.143   5.836   4.880
 6193TIP3   OH218584   6.258   1.848   4.795
 6193TIP3    H118585   6.234   1.784   4.862
 6193TIP3    H218586   6.345   1.878   4.822
 6194TIP3   OH218587   4.102   5.099   5.142
 6194TIP3    H118588   4.135   5.023   5.189
 6194TIP3    H218589   4.162   5.110   5.068
 6195TIP3   OH218590   2.757   4.460   0.390
 6195TIP3    H118591   2.819   4.467   0.462
 6195TIP3    H218592   2.692   4.529   0.407
 6196TIP3   OH218593   1.511   0.484   1.441
 6196TIP3    H118594   1.504   0.459   1.349
 6196TIP3    H218595   1.546   0.573   1.439
 6197TIP3   OH218596   0.875   5.488   3.870
 6197TIP3    H118597   0.917   5.463   3.952
 6197TIP3    H218598   0.782   5.471   3.885
 6198TIP3   OH218599   4.675   1.110   2.474
 6198TIP3    H118600   4.650   1.195   2.509
 6198TIP3    H218601   4.645   1.110   2.383
 6199TIP3   OH218602   4.399   4.043   4.665
 6199TIP3    H118603   4.355   4.105   4.722
 6199TIP3    H218604   4.482   4.024   4.709
 6200TIP3   OH218605   4.878   5.872   4.330
 6200TIP3    H118606   4.791   5.834   4.316
 6200TIP3    H218607   4.868   5.926   4.408
 6201TIP3   OH218608   0.263   4.229   2.768
 6201TIP3    H118609   0.208   4.159   2.803
 6201TIP3    H218610   0.317   4.256   2.841
 6202TIP3   OH218611   2.988   0.393   3.847
 6202TIP3    H118612   2.909   0.341   3.866
 6202TIP3    H218613   3.060   0.339   3.878
 6203TIP3   OH218614   5.613   2.060   0.985
 6203TIP3    H118615   5.522   2.038   0.966
 6203TIP3    H218616   5.609   2.112   1.065
 6204TIP3   OH218617   4.558   4.462   2.207
 6204TIP3    H118618   4.511   4.408   2.272
 6204TIP3    H218619   4.621   4.512   2.259
 6205TIP3   OH218620   1.335   4.338   2.715
 6205TIP3    H118621   1.269   4.306   2.776
 6205TIP3    H218622   1.334   4.433   2.726
 6206TIP3   OH218623   1.988   2.541   1.745
 6206TIP3    H118624   1.985   2.456   1.701
 6206TIP3    H218625   1.896   2.560   1.765
 6207TIP3   OH218626   4.872   4.193   1.047
 6207TIP3    H118627   4.803   4.258   1.061
 6207TIP3    H218628   4.915   4.186   1.132
 6208TIP3   OH218629   5.564   1.558   0.164
 6208TIP3    H118630   5.582   1.646   0.130
 6208TIP3    H218631   5.505   1.573   0.238
 6209TIP3   OH218632   6.073   6.030   5.205
 6209TIP3    H118633   6.033   6.048   5.120
 6209TIP3    H218634   6.076   5.935   5.211
 6210TIP3   OH218635   6.137   1.255   0.389
 6210TIP3    H118636   6.160   1.306   0.467
 6210TIP3    H218637   6.106   1.320   0.326
 6211TIP3   OH218638   0.527   0.434   0.384
 6211TIP3    H118639   0.435   0.460   0.375
 6211TIP3    H218640   0.557   0.480   0.462
 6212TIP3   OH218641   5.913   5.902   4.989
 6212TIP3    H118642   5.866   5.971   4.942
 6212TIP3    H218643   5.852   5.828   4.989
 6213TIP3   OH218644   2.346   3.809   0.169
 6213TIP3    H118645   2.268   3.864   0.165
 6213TIP3    H218646   2.413   3.866   0.206
 6214TIP3   OH218647   1.578   1.824   0.840
 6214TIP3    H118648   1.594   1.871   0.757
 6214TIP3    H218649   1.614   1.737   0.825
 6215TIP3   OH218650   4.228   2.429   3.004
 6215TIP3    H118651   4.231   2.334   2.992
 6215TIP3    H218652   4.272   2.444   3.087
 6216TIP3   OH218653   0.728   4.482   3.855
 6216TIP3    H118654   0.713   4.433   3.774
 6216TIP3    H218655   0.801   4.541   3.834
 6217TIP3   OH218656   1.689   4.190   1.288
 6217TIP3    H118657   1.688   4.152   1.200
 6217TIP3    H218658   1.642   4.273   1.279
 6218TIP3   OH218659   4.862   1.318   1.355
 6218TIP3    H118660   4.861   1.396   1.409
 6218TIP3    H218661   4.801   1.338   1.283
 6219TIP3   OH218662   5.023   2.997   2.105
 6219TIP3    H118663   4.955   2.977   2.169
 6219TIP3    H218664   5.081   2.921   2.106
 6220TIP3   OH218665   6.325   4.260   1.096
 6220TIP3    H118666   6.322   4.309   1.015
 6220TIP3    H218667   6.238   4.220   1.104
 6221TIP3   OH218668   5.445   2.593   4.566
 6221TIP3    H118669   5.509   2.589   4.495
 6221TIP3    H218670   5.360   2.597   4.522
 6222TIP3   OH218671   2.159   4.086   3.838
 6222TIP3    H118672   2.251   4.061   3.832
 6222TIP3    H218673   2.151   4.129   3.923
 6223TIP3   OH218674   5.376   4.037   1.377
 6223TIP3    H118675   5.310   4.100   1.349
 6223TIP3    H218676   5.338   3.951   1.359
 6224TIP3   OH218677   0.881   2.042   1.103
 6224TIP3    H118678   0.861   2.038   1.196
 6224TIP3    H218679   0.797   2.056   1.060
 6225TIP3   OH218680   2.894   4.141   4.790
 6225TIP3    H118681   2.934   4.224   4.814
 6225TIP3    H218682   2.968   4.080   4.785
 6226TIP3   OH218683   3.419   5.027   4.476
 6226TIP3    H118684   3.442   5.013   4.384
 6226TIP3    H218685   3.481   5.093   4.507
 6227TIP3   OH218686   5.082   0.310   3.561
 6227TIP3    H118687   4.990   0.323   3.536
 6227TIP3    H218688   5.083   0.325   3.655
 6228TIP3   OH218689   5.295   4.388   2.027
 6228TIP3    H118690   5.224   4.444   2.058
 6228TIP3    H218691   5.299   4.317   2.090
 6229TIP3   OH218692   5.404   2.641   1.761
 6229TIP3    H118693   5.390   2.685   1.844
 6229TIP3    H218694   5.334   2.576   1.756
 6230TIP3   OH218695   5.122   2.479   3.123
 6230TIP3    H118696   5.035   2.442   3.140
 6230TIP3    H218697   5.155   2.430   3.049
 6231TIP3   OH218698   5.715   3.770   0.559
 6231TIP3    H118699   5.637   3.811   0.597
 6231TIP3    H218700   5.748   3.834   0.497
 6232TIP3   OH218701   2.572   5.791   1.569
 6232TIP3    H118702   2.569   5.700   1.539
 6232TIP3    H218703   2.652   5.826   1.530
 6233TIP3   OH218704   0.922   0.949   2.328
 6233TIP3    H118705   0.884   1.009   2.264
 6233TIP3    H218706   0.984   0.896   2.277
 6234TIP3   OH218707   1.161   3.211   3.677
 6234TIP3    H118708   1.230   3.256   3.726
 6234TIP3    H218709   1.208   3.149   3.621
 6235TIP3   OH218710   0.218   2.921   2.123
 6235TIP3    H118711   0.291   2.983   2.136
 6235TIP3    H218712   0.217   2.905   2.029
 6236TIP3   OH218713   1.902   2.531   0.665
 6236TIP3    H118714   1.935   2.514   0.753
 6236TIP3    H218715   1.828   2.471   0.655
 6237TIP3   OH218716   2.030   1.512   1.460
 6237TIP3    H118717   1.994   1.477   1.379
 6237TIP3    H218718   2.118   1.475   1.466
 6238TIP3   OH218719   0.122   1.631   4.483
 6238TIP3    H118720   0.182   1.611   4.411
 6238TIP3    H218721   0.174   1.624   4.562
 6239TIP3   OH218722   3.270   4.474   2.534
 6239TIP3    H118723   3.180   4.506   2.533
 6239TIP3    H218724   3.296   4.476   2.626
 6240TIP3   OH218725   4.872   2.292   0.640
 6240TIP3    H118726   4.778   2.285   0.620
 6240TIP3    H218727   4.874   2.320   0.731
 6241TIP3   OH218728   5.828   1.144   3.960
 6241TIP3    H118729   5.806   1.188   4.042
 6241TIP3    H218730   5.780   1.061   3.964
 6242TIP3   OH218731   1.227   3.572   1.100
 6242TIP3    H118732   1.258   3.636   1.037
 6242TIP3    H218733   1.149   3.611   1.139
 6243TIP3   OH218734   3.453   0.358   2.650
 6243TIP3    H118735   3.457   0.344   2.555
 6243TIP3    H218736   3.428   0.450   2.659
 6244TIP3   OH218737   2.704   5.237   0.679
 6244TIP3    H118738   2.635   5.301   0.697
 6244TIP3    H218739   2.665   5.153   0.703
 6245TIP3   OH218740   4.498   0.172   0.286
 6245TIP3    H118741   4.472   0.080   0.291
 6245TIP3    H218742   4.515   0.186   0.193
 6246TIP3   OH218743   3.690   3.703   0.662
 6246TIP3    H118744   3.651   3.786   0.632
 6246TIP3    H218745   3.690   3.647   0.584
 6247TIP3   OH218746   1.161   1.145   4.432
 6247TIP3    H118747   1.139   1.090   4.357
 6247TIP3    H218748   1.223   1.092   4.482
 6248TIP3   OH218749   2.107   2.589   2.986
 6248TIP3    H118750   2.188   2.632   2.958
 6248TIP3    H218751   2.054   2.584   2.907
 6249TIP3   OH218752   2.473   2.076   3.591
 6249TIP3    H118753   2.552   2.124   3.565
 6249TIP3    H218754   2.402   2.115   3.541
 6250TIP3   OH218755   1.941   3.640   5.050
 6250TIP3    H118756   1.852   3.650   5.017
 6250TIP3    H218757   1.934   3.579   5.123
 6251TIP3   OH218758   6.342   0.601   3.499
 6251TIP3    H118759   6.348   0.634   3.409
 6251TIP3    H218760   6.280   0.528   3.494
 6252TIP3   OH218761   0.102   0.323   0.944
 6252TIP3    H118762   0.147   0.376   0.878
 6252TIP3    H218763   0.117   0.233   0.916
 6253TIP3   OH218764   5.933   0.819   1.057
 6253TIP3    H118765   5.840   0.834   1.039
 6253TIP3    H218766   5.938   0.813   1.153
 6254TIP3   OH218767   5.566   5.370   4.032
 6254TIP3    H118768   5.479   5.396   4.062
 6254TIP3    H218769   5.590   5.436   3.967
 6255TIP3   OH218770   4.877   3.179   1.021
 6255TIP3    H118771   4.801   3.144   1.068
 6255TIP3    H218772   4.908   3.106   0.968
 6256TIP3   OH218773   5.542   1.079   3.826
 6256TIP3    H118774   5.543   1.059   3.920
 6256TIP3    H218775   5.620   1.035   3.792
 6257TIP3   OH218776   2.260   5.312   2.089
 6257TIP3    H118777   2.262   5.352   2.002
 6257TIP3    H218778   2.269   5.218   2.072
 6258TIP3   OH218779   1.350   0.606   4.531
 6258TIP3    H118780   1.304   0.652   4.600
 6258TIP3    H218781   1.282   0.560   4.482
 6259TIP3   OH218782   3.278   2.857   5.213
 6259TIP3    H118783   3.196   2.902   5.237
 6259TIP3    H218784   3.263   2.827   5.123
 6260TIP3   OH218785   5.474   5.544   0.298
 6260TIP3    H118786   5.553   5.598   0.296
 6260TIP3    H218787   5.496   5.468   0.244
 6261TIP3   OH218788   4.400   3.344   4.441
 6261TIP3    H118789   4.341   3.376   4.374
 6261TIP3    H218790   4.384   3.401   4.516
 6262TIP3   OH218791   2.058   2.936   2.106
 6262TIP3    H118792   2.109   2.856   2.116
 6262TIP3    H218793   1.976   2.907   2.067
 6263TIP3   OH218794   1.473   1.621   4.746
 6263TIP3    H118795   1.411   1.598   4.815
 6263TIP3    H218796   1.429   1.688   4.694
 6264TIP3   OH218797   0.361   0.333   4.763
 6264TIP3    H118798   0.409   0.414   4.744
 6264TIP3    H218799   0.350   0.290   4.678
 6265TIP3   OH218800   2.597   1.227   3.151
 6265TIP3    H118801   2.530   1.214   3.083
 6265TIP3    H218802   2.575   1.164   3.219
 6266TIP3   OH218803   3.397   2.838   0.532
 6266TIP3    H118804   3.459   2.849   0.604
 6266TIP3    H218805   3.327   2.902   0.550
 6267TIP3   OH218806   5.062   1.545   4.799
 6267TIP3    H118807   5.076   1.565   4.707
 6267TIP3    H218808   4.971   1.516   4.803
 6268TIP3   OH218809   5.910   0.950   3.047
 6268TIP3    H118810   5.817   0.968   3.038
 6268TIP3    H218811   5.942   1.016   3.109
 6269TIP3   OH218812   0.053   0.472   4.685
 6269TIP3    H118813  -0.028   0.467   4.635
 6269TIP3    H218814   0.068   0.382   4.716
 6270TIP3   OH218815   6.328   5.872   1.738
 6270TIP3    H118816   6.255   5.841   1.791
 6270TIP3    H218817   6.309   5.841   1.650
 6271TIP3   OH218818   3.060   5.464   5.044
 6271TIP3    H118819   2.968   5.440   5.052
 6271TIP3    H218820   3.107   5.382   5.051
 6272TIP3   OH218821   5.198   2.907   3.028
 6272TIP3    H118822   5.119   2.857   3.046
 6272TIP3    H218823   5.204   2.911   2.932
 6273TIP3   OH218824   1.342   3.069   0.486
 6273TIP3    H118825   1.360   2.978   0.511
 6273TIP3    H218826   1.247   3.078   0.496
 6274TIP3   OH218827   0.391   3.781   2.743
 6274TIP3    H118828   0.297   3.794   2.758
 6274TIP3    H218829   0.433   3.852   2.792
 6275TIP3   OH218830   0.107   0.938   1.310
 6275TIP3    H118831   0.104   0.943   1.405
 6275TIP3    H218832   0.136   0.848   1.292
 6276TIP3   OH218833   6.329   4.114   3.974
 6276TIP3    H118834   6.280   4.042   4.015
 6276TIP3    H218835   6.374   4.156   4.048
 6277TIP3   OH218836   0.067   5.761   3.904
 6277TIP3    H118837   0.145   5.816   3.918
 6277TIP3    H218838   0.019   5.767   3.986
 6278TIP3   OH218839   5.502   5.441   2.487
 6278TIP3    H118840   5.408   5.423   2.492
 6278TIP3    H218841   5.542   5.369   2.536
 6279TIP3   OH218842   5.155   5.259   0.341
 6279TIP3    H118843   5.224   5.231   0.281
 6279TIP3    H218844   5.094   5.185   0.344
 6280TIP3   OH218845   3.013   4.525   3.831
 6280TIP3    H118846   3.061   4.566   3.760
 6280TIP3    H218847   3.001   4.434   3.804
 6281TIP3   OH218848   5.734   5.679   0.264
 6281TIP3    H118849   5.797   5.644   0.201
 6281TIP3    H218850   5.755   5.772   0.271
 6282TIP3   OH218851   0.694   4.415   0.035
 6282TIP3    H118852   0.782   4.452   0.047
 6282TIP3    H218853   0.711   4.325   0.007
 6283TIP3   OH218854   4.256   1.925   1.575
 6283TIP3    H118855   4.208   1.872   1.639
 6283TIP3    H218856   4.325   1.867   1.543
 6284TIP3   OH218857   2.936   3.335   4.649
 6284TIP3    H118858   2.932   3.290   4.564
 6284TIP3    H218859   2.945   3.264   4.712
 6285TIP3   OH218860   3.633   2.153   0.898
 6285TIP3    H118861   3.546   2.150   0.937
 6285TIP3    H218862   3.668   2.065   0.912
 6286TIP3   OH218863   5.683   3.542   0.936
 6286TIP3    H118864   5.710   3.576   1.021
 6286TIP3    H218865   5.630   3.611   0.898
 6287TIP3   OH218866   0.369   5.521   0.921
 6287TIP3    H118867   0.452   5.506   0.876
 6287TIP3    H218868   0.327   5.591   0.871
 6288TIP3   OH218869   0.264   2.037   1.745
 6288TIP3    H118870   0.194   1.978   1.718
 6288TIP3    H218871   0.230   2.125   1.728
 6289TIP3   OH218872   3.976   2.114   2.844
 6289TIP3    H118873   3.996   2.147   2.932
 6289TIP3    H218874   4.015   2.026   2.843
 6290TIP3   OH218875   1.384   3.237   0.157
 6290TIP3    H118876   1.311   3.264   0.213
 6290TIP3    H218877   1.431   3.319   0.139
 6291TIP3   OH218878   5.291   1.398   0.496
 6291TIP3    H118879   5.206   1.404   0.452
 6291TIP3    H218880   5.273   1.353   0.578
 6292TIP3   OH218881   1.598   0.304   0.558
 6292TIP3    H118882   1.668   0.369   0.559
 6292TIP3    H218883   1.559   0.312   0.470
 6293TIP3   OH218884   4.344   4.303   3.330
 6293TIP3    H118885   4.364   4.210   3.322
 6293TIP3    H218886   4.308   4.327   3.244
 6294TIP3   OH218887   3.381   4.807   3.407
 6294TIP3    H118888   3.301   4.836   3.364
 6294TIP3    H218889   3.446   4.803   3.337
 6295TIP3   OH218890   5.749   2.654   0.379
 6295TIP3    H118891   5.771   2.743   0.407
 6295TIP3    H218892   5.657   2.643   0.403
 6296TIP3   OH218893   5.103   2.125   2.890
 6296TIP3    H118894   5.193   2.093   2.897
 6296TIP3    H218895   5.057   2.081   2.961
 6297TIP3   OH218896   4.585   2.618   1.861
 6297TIP3    H118897   4.649   2.685   1.887
 6297TIP3    H218898   4.536   2.601   1.941
 6298TIP3   OH218899   1.783   2.399   2.400
 6298TIP3    H118900   1.756   2.460   2.331
 6298TIP3    H218901   1.878   2.405   2.402
 6299TIP3   OH218902   4.183   1.767   1.193
 6299TIP3    H118903   4.219   1.679   1.202
 6299TIP3    H218904   4.219   1.816   1.267
 6300TIP3   OH218905   4.733   3.260   5.125
 6300TIP3    H118906   4.692   3.183   5.164
 6300TIP3    H218907   4.784   3.298   5.197
 6301TIP3   OH218908   0.230   0.270   1.377
 6301TIP3    H118909   0.267   0.322   1.447
 6301TIP3    H218910   0.283   0.292   1.300
 6302TIP3   OH218911   0.570   0.553   5.174
 6302TIP3    H118912   0.659   0.552   5.210
 6302TIP3    H218913   0.552   0.461   5.153
 6303TIP3   OH218914   1.691   1.086   3.162
 6303TIP3    H118915   1.693   1.159   3.224
 6303TIP3    H218916   1.744   1.115   3.088
 6304TIP3   OH218917   5.350   5.589   3.797
 6304TIP3    H118918   5.444   5.605   3.791
 6304TIP3    H218919   5.312   5.638   3.724
 6305TIP3   OH218920   3.742   5.900   2.413
 6305TIP3    H118921   3.688   5.863   2.483
 6305TIP3    H218922   3.766   5.825   2.359
 6306TIP3   OH218923   5.378   3.713   1.714
 6306TIP3    H118924   5.379   3.807   1.696
 6306TIP3    H218925   5.287   3.695   1.739
 6307TIP3   OH218926   1.089   3.943   2.984
 6307TIP3    H118927   1.045   3.872   3.031
 6307TIP3    H218928   1.036   3.957   2.905
 6308TIP3   OH218929   3.169   4.607   0.840
 6308TIP3    H118930   3.255   4.571   0.819
 6308TIP3    H218931   3.182   4.702   0.836
 6309TIP3   OH218932   3.622   5.599   1.713
 6309TIP3    H118933   3.589   5.518   1.675
 6309TIP3    H218934   3.717   5.594   1.702
 6310TIP3   OH218935   3.494   2.391   0.509
 6310TIP3    H118936   3.407   2.364   0.480
 6310TIP3    H218937   3.492   2.380   0.604
 6311TIP3   OH218938   1.369   5.401   0.693
 6311TIP3    H118939   1.321   5.372   0.615
 6311TIP3    H218940   1.392   5.492   0.675
 6312TIP3   OH218941   3.760   4.833   2.854
 6312TIP3    H118942   3.681   4.810   2.805
 6312TIP3    H218943   3.781   4.922   2.826
 6313TIP3   OH218944   3.233   0.326   4.742
 6313TIP3    H118945   3.239   0.245   4.691
 6313TIP3    H218946   3.227   0.395   4.675
 6314TIP3   OH218947   2.203   0.719   4.413
 6314TIP3    H118948   2.271   0.699   4.477
 6314TIP3    H218949   2.240   0.788   4.358
 6315TIP3   OH218950   3.516   3.520   4.185
 6315TIP3    H118951   3.443   3.492   4.241
 6315TIP3    H218952   3.489   3.606   4.152
 6316TIP3   OH218953   2.789   0.741   5.180
 6316TIP3    H118954   2.714   0.682   5.177
 6316TIP3    H218955   2.850   0.706   5.116
 6317TIP3   OH218956   4.628   0.932   4.316
 6317TIP3    H118957   4.611   1.025   4.301
 6317TIP3    H218958   4.616   0.891   4.231
 6318TIP3   OH218959   0.180   4.995   2.285
 6318TIP3    H118960   0.180   4.998   2.189
 6318TIP3    H218961   0.256   4.942   2.307
 6319TIP3   OH218962   5.398   0.228   3.210
 6319TIP3    H118963   5.344   0.218   3.289
 6319TIP3    H218964   5.400   0.322   3.194
 6320TIP3   OH218965   5.061   4.047   2.295
 6320TIP3    H118966   5.057   3.957   2.329
 6320TIP3    H218967   5.074   4.101   2.372
 6321TIP3   OH218968  -0.005   0.321   3.964
 6321TIP3    H118969  -0.036   0.231   3.970
 6321TIP3    H218970   0.022   0.331   3.872
 6322TIP3   OH218971   2.428   4.524   1.924
 6322TIP3    H118972   2.449   4.431   1.924
 6322TIP3    H218973   2.382   4.539   2.007
 6323TIP3   OH218974   3.291   0.328   1.444
 6323TIP3    H118975   3.235   0.323   1.521
 6323TIP3    H218976   3.372   0.283   1.469
 6324TIP3   OH218977   2.729   4.946   1.205
 6324TIP3    H118978   2.706   5.035   1.232
 6324TIP3    H218979   2.789   4.915   1.273
 6325TIP3   OH218980   3.278   5.616   5.045
 6325TIP3    H118981   3.358   5.564   5.049
 6325TIP3    H218982   3.208   5.552   5.034
 6326TIP3   OH218983   0.458   0.826   3.626
 6326TIP3    H118984   0.515   0.757   3.591
 6326TIP3    H218985   0.400   0.849   3.553
 6327TIP3   OH218986   5.913   5.047   3.386
 6327TIP3    H118987   5.907   5.066   3.292
 6327TIP3    H218988   5.908   4.951   3.391
 6328TIP3   OH218989   0.268   2.820   1.842
 6328TIP3    H118990   0.332   2.756   1.872
 6328TIP3    H218991   0.301   2.851   1.758
 6329TIP3   OH218992   5.245   1.476   2.143
 6329TIP3    H118993   5.220   1.427   2.221
 6329TIP3    H218994   5.220   1.419   2.070
 6330TIP3   OH218995   0.706   1.340   0.071
 6330TIP3    H118996   0.650   1.265   0.050
 6330TIP3    H218997   0.738   1.370  -0.013
 6331TIP3   OH218998   1.420   3.524   0.120
 6331TIP3    H118999   1.360   3.581   0.071
 6331TIP3    H219000   1.507   3.556   0.097
 6332TIP3   OH219001   1.338   0.009   0.252
 6332TIP3    H119002   1.337   0.081   0.189
 6332TIP3    H219003   1.248  -0.022   0.254
 6333TIP3   OH219004   2.141   2.263   0.570
 6333TIP3    H119005   2.137   2.276   0.665
 6333TIP3    H219006   2.202   2.331   0.540
 6334TIP3   OH219007   0.568   1.734   2.397
 6334TIP3    H119008   0.648   1.742   2.345
 6334TIP3    H219009   0.545   1.641   2.391
 6335TIP3   OH219010   5.719   2.589   1.040
 6335TIP3    H119011   5.732   2.533   1.117
 6335TIP3    H219012   5.736   2.678   1.073
 6336TIP3   OH219013   5.182   2.867   3.457
 6336TIP3    H119014   5.228   2.847   3.375
 6336TIP3    H219015   5.119   2.935   3.433
 6337TIP3   OH219016   6.113   3.526   2.721
 6337TIP3    H119017   6.070   3.455   2.768
 6337TIP3    H219018   6.052   3.599   2.725
 6338TIP3   OH219019   0.239   2.465   1.302
 6338TIP3    H119020   0.274   2.399   1.242
 6338TIP3    H219021   0.169   2.507   1.252
 6339TIP3   OH219022   5.682   4.178   4.917
 6339TIP3    H119023   5.591   4.176   4.888
 6339TIP3    H219024   5.707   4.086   4.927
 6340TIP3   OH219025   3.921   5.472   2.290
 6340TIP3    H119026   3.992   5.474   2.355
 6340TIP3    H219027   3.853   5.419   2.330
 6341TIP3   OH219028   4.585   4.082   0.017
 6341TIP3    H119029   4.504   4.041   0.047
 6341TIP3    H219030   4.654   4.020   0.040
 6342TIP3   OH219031   4.039   2.846   4.893
 6342TIP3    H119032   3.981   2.870   4.821
 6342TIP3    H219033   4.117   2.811   4.850
 6343TIP3   OH219034   4.329   2.846   5.175
 6343TIP3    H119035   4.250   2.899   5.168
 6343TIP3    H219036   4.374   2.859   5.091
 6344TIP3   OH219037   3.110   4.707   4.814
 6344TIP3    H119038   3.041   4.769   4.837
 6344TIP3    H219039   3.187   4.739   4.862
 6345TIP3   OH219040   3.882   3.833   0.827
 6345TIP3    H119041   3.889   3.771   0.899
 6345TIP3    H219042   3.851   3.781   0.753
 6346TIP3   OH219043   4.714   3.434   1.011
 6346TIP3    H119044   4.773   3.498   1.050
 6346TIP3    H219045   4.760   3.351   1.020
 6347TIP3   OH219046   3.554   1.788   1.284
 6347TIP3    H119047   3.541   1.879   1.258
 6347TIP3    H219048   3.475   1.765   1.333
 6348TIP3   OH219049   2.768   0.041   0.645
 6348TIP3    H119050   2.729   0.077   0.725
 6348TIP3    H219051   2.856   0.014   0.672
 6349TIP3   OH219052   6.255   2.523   4.380
 6349TIP3    H119053   6.170   2.480   4.374
 6349TIP3    H219054   6.266   2.542   4.474
 6350TIP3   OH219055   0.406   0.051   2.804
 6350TIP3    H119056   0.364   0.009   2.729
 6350TIP3    H219057   0.432  -0.021   2.861
 6351TIP3   OH219058   0.250   5.785   2.860
 6351TIP3    H119059   0.324   5.808   2.805
 6351TIP3    H219060   0.178   5.771   2.798
 6352TIP3   OH219061   1.087   1.893   1.208
 6352TIP3    H119062   1.048   1.819   1.162
 6352TIP3    H219063   1.022   1.963   1.201
 6353TIP3   OH219064   1.480   3.455   1.926
 6353TIP3    H119065   1.491   3.510   1.849
 6353TIP3    H219066   1.521   3.505   1.997
 6354TIP3   OH219067   1.864   5.465   3.720
 6354TIP3    H119068   1.794   5.494   3.661
 6354TIP3    H219069   1.865   5.532   3.789
 6355TIP3   OH219070   3.226   2.746   0.910
 6355TIP3    H119071   3.280   2.799   0.851
 6355TIP3    H219072   3.175   2.690   0.852
 6356TIP3   OH219073   4.420   5.622   0.469
 6356TIP3    H119074   4.420   5.551   0.404
 6356TIP3    H219075   4.508   5.619   0.507
 6357TIP3   OH219076   5.333   5.073   3.612
 6357TIP3    H119077   5.427   5.058   3.624
 6357TIP3    H219078   5.318   5.159   3.650
 6358TIP3   OH219079   0.178   2.951   4.331
 6358TIP3    H119080   0.217   2.951   4.419
 6358TIP3    H219081   0.130   2.868   4.326
 6359TIP3   OH219082   1.561   2.790   4.596
 6359TIP3    H119083   1.635   2.830   4.552
 6359TIP3    H219084   1.535   2.854   4.663
 6360TIP3   OH219085   5.148   4.450   1.656
 6360TIP3    H119086   5.192   4.498   1.726
 6360TIP3    H219087   5.219   4.412   1.605
 6361TIP3   OH219088   3.637   5.170   1.307
 6361TIP3    H119089   3.564   5.229   1.287
 6361TIP3    H219090   3.710   5.228   1.328
 6362TIP3   OH219091   2.262   4.559   4.494
 6362TIP3    H119092   2.246   4.625   4.427
 6362TIP3    H219093   2.250   4.605   4.577
 6363TIP3   OH219094   3.966   4.275   2.279
 6363TIP3    H119095   4.000   4.314   2.360
 6363TIP3    H219096   3.942   4.350   2.224
 6364TIP3   OH219097   3.987   5.581   2.558
 6364TIP3    H119098   4.069   5.574   2.606
 6364TIP3    H219099   3.928   5.626   2.619
 6365TIP3   OH219100   3.232   4.174   2.638
 6365TIP3    H119101   3.267   4.263   2.636
 6365TIP3    H219102   3.180   4.170   2.719
 6366TIP3   OH219103   1.344   3.999   0.331
 6366TIP3    H119104   1.407   3.948   0.382
 6366TIP3    H219105   1.388   4.015   0.248
 6367TIP3   OH219106   2.291   5.478   2.327
 6367TIP3    H119107   2.260   5.433   2.406
 6367TIP3    H219108   2.304   5.408   2.263
 6368TIP3   OH219109   3.213   0.429   1.015
 6368TIP3    H119110   3.239   0.507   0.966
 6368TIP3    H219111   3.129   0.403   0.977
 6369TIP3   OH219112   2.046   5.651   3.526
 6369TIP3    H119113   2.104   5.586   3.565
 6369TIP3    H219114   1.957   5.620   3.546
 6370TIP3   OH219115   3.892   5.094   1.890
 6370TIP3    H119116   3.899   5.156   1.962
 6370TIP3    H219117   3.900   5.008   1.931
 6371TIP3   OH219118   3.625   3.970   0.541
 6371TIP3    H119119   3.684   3.927   0.479
 6371TIP3    H219120   3.537   3.946   0.511
 6372TIP3   OH219121   6.058   2.327   2.682
 6372TIP3    H119122   6.109   2.250   2.706
 6372TIP3    H219123   5.967   2.300   2.694
 6373TIP3   OH219124   0.093   5.764   4.613
 6373TIP3    H119125   0.145   5.703   4.560
 6373TIP3    H219126   0.003   5.734   4.603
 6374TIP3   OH219127   3.603   4.582   0.364
 6374TIP3    H119128   3.605   4.529   0.444
 6374TIP3    H219129   3.526   4.552   0.316
 6375TIP3   OH219130   1.213   3.085   5.064
 6375TIP3    H119131   1.131   3.126   5.037
 6375TIP3    H219132   1.216   3.099   5.159
 6376TIP3   OH219133   0.143   3.595   1.318
 6376TIP3    H119134   0.049   3.576   1.313
 6376TIP3    H219135   0.162   3.593   1.412
 6377TIP3   OH219136   0.490   2.553   2.478
 6377TIP3    H119137   0.573   2.524   2.515
 6377TIP3    H219138   0.431   2.560   2.553
 6378TIP3   OH219139   1.520   3.679   4.139
 6378TIP3    H119140   1.545   3.760   4.184
 6378TIP3    H219141   1.520   3.613   4.207
 6379TIP3   OH219142   5.469   0.794   0.773
 6379TIP3    H119143   5.409   0.739   0.824
 6379TIP3    H219144   5.479   0.748   0.690
 6380TIP3   OH219145   2.505   0.800   3.828
 6380TIP3    H119146   2.410   0.814   3.838
 6380TIP3    H219147   2.518   0.794   3.733
 6381TIP3   OH219148   0.692   5.585   3.261
 6381TIP3    H119149   0.660   5.648   3.325
 6381TIP3    H219150   0.634   5.509   3.271
 6382TIP3   OH219151   1.675   2.702   0.707
 6382TIP3    H119152   1.652   2.710   0.800
 6382TIP3    H219153   1.766   2.673   0.707
 6383TIP3   OH219154   0.873   5.765   4.095
 6383TIP3    H119155   0.882   5.822   4.171
 6383TIP3    H219156   0.810   5.698   4.123
 6384TIP3   OH219157   0.051   1.278   2.636
 6384TIP3    H119158   0.142   1.274   2.665
 6384TIP3    H219159   0.000   1.269   2.717
 6385TIP3   OH219160   3.863   1.721   3.466
 6385TIP3    H119161   3.776   1.706   3.430
 6385TIP3    H219162   3.914   1.755   3.392
 6386TIP3   OH219163   5.347   3.920   4.009
 6386TIP3    H119164   5.271   3.977   4.024
 6386TIP3    H219165   5.324   3.838   4.052
 6387TIP3   OH219166   3.966   1.658   1.755
 6387TIP3    H119167   3.879   1.654   1.715
 6387TIP3    H219168   3.987   1.567   1.776
 6388TIP3   OH219169   3.672   3.362   3.964
 6388TIP3    H119170   3.636   3.438   4.010
 6388TIP3    H219171   3.669   3.291   4.028
 6389TIP3   OH219172   4.544   5.730   2.118
 6389TIP3    H119173   4.450   5.718   2.130
 6389TIP3    H219174   4.553   5.761   2.028
 6390TIP3   OH219175   2.171   3.472   1.588
 6390TIP3    H119176   2.087   3.468   1.542
 6390TIP3    H219177   2.169   3.399   1.649
 6391TIP3   OH219178   2.726   2.400   0.185
 6391TIP3    H119179   2.661   2.470   0.187
 6391TIP3    H219180   2.676   2.322   0.158
 6392TIP3   OH219181   2.402   1.699   1.547
 6392TIP3    H119182   2.358   1.652   1.618
 6392TIP3    H219183   2.437   1.778   1.589
 6393TIP3   OH219184   5.179   1.157   0.743
 6393TIP3    H119185   5.160   1.111   0.661
 6393TIP3    H219186   5.105   1.217   0.754
 6394TIP3   OH219187   3.217   2.162   2.494
 6394TIP3    H119188   3.224   2.086   2.553
 6394TIP3    H219189   3.262   2.233   2.541
 6395TIP3   OH219190   2.072   5.855   3.132
 6395TIP3    H119191   2.070   5.840   3.037
 6395TIP3    H219192   1.995   5.909   3.150
 6396TIP3   OH219193   5.080   1.013   3.374
 6396TIP3    H119194   5.144   0.968   3.428
 6396TIP3    H219195   4.995   0.985   3.408
 6397TIP3   OH219196   3.826   1.393   4.736
 6397TIP3    H119197   3.894   1.374   4.672
 6397TIP3    H219198   3.768   1.317   4.732
 6398TIP3   OH219199   4.610   5.741   4.051
 6398TIP3    H119200   4.612   5.834   4.076
 6398TIP3    H219201   4.657   5.738   3.968
 6399TIP3   OH219202   1.426   1.394   1.112
 6399TIP3    H119203   1.437   1.344   1.031
 6399TIP3    H219204   1.332   1.394   1.128
 6400TIP3   OH219205   0.510   5.034   1.158
 6400TIP3    H119206   0.433   5.091   1.147
 6400TIP3    H219207   0.518   4.988   1.074
 6401TIP3   OH219208   0.532   1.840   3.604
 6401TIP3    H119209   0.596   1.786   3.650
 6401TIP3    H219210   0.447   1.800   3.624
 6402TIP3   OH219211   5.415   5.657   4.306
 6402TIP3    H119212   5.340   5.643   4.248
 6402TIP3    H219213   5.380   5.709   4.378
 6403TIP3   OH219214   2.338   3.839   3.759
 6403TIP3    H119215   2.399   3.896   3.805
 6403TIP3    H219216   2.266   3.825   3.822
 6404TIP3   OH219217   3.112   4.224   0.378
 6404TIP3    H119218   3.151   4.167   0.311
 6404TIP3    H219219   3.130   4.313   0.347
 6405TIP3   OH219220   4.069   3.143   4.220
 6405TIP3    H119221   4.116   3.163   4.139
 6405TIP3    H219222   4.031   3.227   4.247
 6406TIP3   OH219223   2.082   2.536   3.303
 6406TIP3    H119224   2.015   2.566   3.243
 6406TIP3    H219225   2.042   2.541   3.389
 6407TIP3   OH219226   2.017   0.325   0.333
 6407TIP3    H119227   2.018   0.230   0.336
 6407TIP3    H219228   2.084   0.348   0.268
 6408TIP3   OH219229   3.747   3.511   0.423
 6408TIP3    H119230   3.773   3.427   0.462
 6408TIP3    H219231   3.670   3.490   0.371
 6409TIP3   OH219232   2.297   0.424   4.692
 6409TIP3    H119233   2.204   0.441   4.708
 6409TIP3    H219234   2.301   0.333   4.663
 6410TIP3   OH219235   4.744   5.675   3.812
 6410TIP3    H119236   4.710   5.696   3.725
 6410TIP3    H219237   4.838   5.693   3.806
 6411TIP3   OH219238   3.107   0.644   3.812
 6411TIP3    H119239   3.134   0.640   3.720
 6411TIP3    H219240   3.055   0.565   3.825
 6412TIP3   OH219241   4.134   2.637   5.138
 6412TIP3    H119242   4.198   2.664   5.204
 6412TIP3    H219243   4.152   2.693   5.062
 6413TIP3   OH219244   5.053   1.690   1.624
 6413TIP3    H119245   5.085   1.747   1.694
 6413TIP3    H219246   5.132   1.649   1.588
 6414TIP3   OH219247   1.374   2.079   0.640
 6414TIP3    H119248   1.366   1.993   0.601
 6414TIP3    H219249   1.467   2.086   0.663
 6415TIP3   OH219250   1.805   2.851   4.466
 6415TIP3    H119251   1.849   2.850   4.551
 6415TIP3    H219252   1.870   2.887   4.406
 6416TIP3   OH219253   0.121   2.509   2.263
 6416TIP3    H119254   0.050   2.565   2.234
 6416TIP3    H219255   0.147   2.544   2.348
 6417TIP3   OH219256   0.373   0.549   2.411
 6417TIP3    H119257   0.327   0.495   2.476
 6417TIP3    H219258   0.465   0.526   2.421
 6418TIP3   OH219259   4.611   3.803   1.793
 6418TIP3    H119260   4.635   3.873   1.733
 6418TIP3    H219261   4.535   3.836   1.840
 6419TIP3   OH219262   1.998   5.748   0.524
 6419TIP3    H119263   2.063   5.682   0.547
 6419TIP3    H219264   1.999   5.810   0.597
 6420TIP3   OH219265   1.366   5.526   1.524
 6420TIP3    H119266   1.271   5.522   1.533
 6420TIP3    H219267   1.394   5.591   1.588
 6421TIP3   OH219268   1.415   3.435   2.702
 6421TIP3    H119269   1.492   3.402   2.747
 6421TIP3    H219270   1.431   3.529   2.691
 6422TIP3   OH219271   4.988   2.007   3.501
 6422TIP3    H119272   4.968   2.075   3.437
 6422TIP3    H219273   5.078   2.025   3.528
 6423TIP3   OH219274   3.865   3.322   1.998
 6423TIP3    H119275   3.883   3.304   2.090
 6423TIP3    H219276   3.801   3.257   1.972
 6424TIP3   OH219277   0.558   2.846   1.718
 6424TIP3    H119278   0.579   2.802   1.800
 6424TIP3    H219279   0.638   2.839   1.665
 6425TIP3   OH219280   6.146   2.013   4.571
 6425TIP3    H119281   6.139   1.951   4.499
 6425TIP3    H219282   6.183   1.962   4.643
 6426TIP3   OH219283   0.310   4.054   2.154
 6426TIP3    H119284   0.383   4.095   2.200
 6426TIP3    H219285   0.251   4.025   2.224
 6427TIP3   OH219286   2.697   2.315   0.802
 6427TIP3    H119287   2.691   2.291   0.710
 6427TIP3    H219288   2.742   2.400   0.802
 6428TIP3   OH219289   1.325   4.570   4.639
 6428TIP3    H119290   1.396   4.559   4.701
 6428TIP3    H219291   1.269   4.638   4.677
 6429TIP3   OH219292   2.004   2.029   1.816
 6429TIP3    H119293   1.917   1.991   1.826
 6429TIP3    H219294   2.009   2.097   1.884
 6430TIP3   OH219295   0.147   3.637   0.650
 6430TIP3    H119296   0.142   3.726   0.682
 6430TIP3    H219297   0.189   3.644   0.564
 6431TIP3   OH219298   3.364   0.146   0.813
 6431TIP3    H119299   3.292   0.203   0.787
 6431TIP3    H219300   3.324   0.059   0.823
 6432TIP3   OH219301   2.637   4.258   1.661
 6432TIP3    H119302   2.725   4.293   1.675
 6432TIP3    H219303   2.579   4.335   1.665
 6433TIP3   OH219304   5.578   0.595   4.551
 6433TIP3    H119305   5.485   0.573   4.545
 6433TIP3    H219306   5.580   0.691   4.551
 6434TIP3   OH219307   5.732   3.286   1.148
 6434TIP3    H119308   5.751   3.323   1.062
 6434TIP3    H219309   5.637   3.294   1.157
 6435TIP3   OH219310   4.922   1.840   0.655
 6435TIP3    H119311   4.942   1.823   0.747
 6435TIP3    H219312   4.962   1.926   0.638
 6436TIP3   OH219313   6.313   5.751   2.217
 6436TIP3    H119314   6.381   5.758   2.284
 6436TIP3    H219315   6.232   5.772   2.263
 6437TIP3   OH219316   6.100   4.191   2.613
 6437TIP3    H119317   6.067   4.138   2.686
 6437TIP3    H219318   6.175   4.238   2.650
 6438TIP3   OH219319   1.582   0.846   2.046
 6438TIP3    H119320   1.537   0.796   1.977
 6438TIP3    H219321   1.533   0.825   2.126
 6439TIP3   OH219322   5.442   4.021   2.476
 6439TIP3    H119323   5.532   3.993   2.458
 6439TIP3    H219324   5.445   4.117   2.474
 6440TIP3   OH219325   5.032   2.328   2.709
 6440TIP3    H119326   5.072   2.267   2.771
 6440TIP3    H219327   5.022   2.278   2.628
 6441TIP3   OH219328   4.259   4.586   4.740
 6441TIP3    H119329   4.184   4.536   4.771
 6441TIP3    H219330   4.269   4.657   4.804
 6442TIP3   OH219331   3.947   1.105   0.375
 6442TIP3    H119332   3.968   1.115   0.468
 6442TIP3    H219333   3.998   1.028   0.348
 6443TIP3   OH219334   2.976   3.127   0.458
 6443TIP3    H119335   2.921   3.067   0.508
 6443TIP3    H219336   2.920   3.202   0.440
 6444TIP3   OH219337   3.480   4.799   2.252
 6444TIP3    H119338   3.483   4.729   2.187
 6444TIP3    H219339   3.408   4.855   2.223
 6445TIP3   OH219340   2.615   4.964   4.692
 6445TIP3    H119341   2.545   5.011   4.646
 6445TIP3    H219342   2.570   4.917   4.762
 6446TIP3   OH219343   2.178   3.825   2.262
 6446TIP3    H119344   2.224   3.881   2.200
 6446TIP3    H219345   2.241   3.757   2.285
 6447TIP3   OH219346   1.887   0.716   1.696
 6447TIP3    H119347   1.869   0.788   1.757
 6447TIP3    H219348   1.866   0.752   1.610
 6448TIP3   OH219349   4.280   0.365   2.842
 6448TIP3    H119350   4.244   0.450   2.816
 6448TIP3    H219351   4.284   0.368   2.938
 6449TIP3   OH219352   0.181   3.689   1.602
 6449TIP3    H119353   0.161   3.596   1.597
 6449TIP3    H219354   0.140   3.718   1.683
 6450TIP3   OH219355   3.244   1.040   0.286
 6450TIP3    H119356   3.211   1.107   0.227
 6450TIP3    H219357   3.328   1.014   0.247
 6451TIP3   OH219358   2.700   4.503   2.926
 6451TIP3    H119359   2.669   4.453   3.001
 6451TIP3    H219360   2.620   4.536   2.885
 6452TIP3   OH219361   2.909   3.018   4.635
 6452TIP3    H119362   2.818   2.987   4.634
 6452TIP3    H219363   2.927   3.036   4.727
 6453TIP3   OH219364   5.381   0.510   1.607
 6453TIP3    H119365   5.376   0.498   1.512
 6453TIP3    H219366   5.308   0.568   1.628
 6454TIP3   OH219367   0.664   1.091   3.582
 6454TIP3    H119368   0.676   1.055   3.495
 6454TIP3    H219369   0.650   1.185   3.568
 6455TIP3   OH219370   6.243   3.454   1.368
 6455TIP3    H119371   6.297   3.478   1.443
 6455TIP3    H219372   6.181   3.390   1.402
 6456TIP3   OH219373   5.495   1.684   5.076
 6456TIP3    H119374   5.462   1.684   4.986
 6456TIP3    H219375   5.589   1.700   5.068
 6457TIP3   OH219376   6.061   2.060   3.368
 6457TIP3    H119377   6.045   2.013   3.286
 6457TIP3    H219378   5.987   2.035   3.424
 6458TIP3   OH219379   3.844   0.622   0.171
 6458TIP3    H119380   3.903   0.547   0.182
 6458TIP3    H219381   3.900   0.693   0.140
 6459TIP3   OH219382   2.250   1.264   4.453
 6459TIP3    H119383   2.233   1.352   4.418
 6459TIP3    H219384   2.313   1.226   4.392
 6460TIP3   OH219385   3.652   0.726   3.042
 6460TIP3    H119386   3.591   0.653   3.049
 6460TIP3    H219387   3.659   0.742   2.948
 6461TIP3   OH219388   2.065   3.330   2.987
 6461TIP3    H119389   2.042   3.413   3.028
 6461TIP3    H219390   2.152   3.310   3.022
 6462TIP3   OH219391   1.009   0.549   3.039
 6462TIP3    H119392   1.002   0.635   2.997
 6462TIP3    H219393   1.023   0.568   3.131
 6463TIP3   OH219394   5.609   4.709   2.846
 6463TIP3    H119395   5.602   4.792   2.798
 6463TIP3    H219396   5.553   4.721   2.923
 6464TIP3   OH219397   2.614   0.274   3.695
 6464TIP3    H119398   2.665   0.279   3.614
 6464TIP3    H219399   2.677   0.246   3.761
 6465TIP3   OH219400   1.858   1.946   2.491
 6465TIP3    H119401   1.831   2.030   2.526
 6465TIP3    H219402   1.868   1.890   2.569
 6466TIP3   OH219403   0.648   3.866   2.696
 6466TIP3    H119404   0.575   3.805   2.704
 6466TIP3    H219405   0.612   3.951   2.722
 6467TIP3   OH219406   0.925   4.281   0.811
 6467TIP3    H119407   0.946   4.361   0.859
 6467TIP3    H219408   0.940   4.210   0.873
 6468TIP3   OH219409   3.991   1.414   0.835
 6468TIP3    H119410   4.025   1.480   0.896
 6468TIP3    H219411   4.017   1.330   0.872
 6469TIP3   OH219412   3.221   2.001   2.226
 6469TIP3    H119413   3.212   2.038   2.314
 6469TIP3    H219414   3.177   1.917   2.231
 6470TIP3   OH219415   2.434   4.022   3.950
 6470TIP3    H119416   2.437   3.953   4.017
 6470TIP3    H219417   2.485   4.094   3.987
 6471TIP3   OH219418   4.044   5.075   1.657
 6471TIP3    H119419   3.999   5.108   1.735
 6471TIP3    H219420   4.136   5.074   1.681
 6472TIP3   OH219421   3.414   0.463   0.221
 6472TIP3    H119422   3.447   0.464   0.132
 6472TIP3    H219423   3.421   0.372   0.249
 6473TIP3   OH219424   5.440   1.934   0.533
 6473TIP3    H119425   5.530   1.916   0.558
 6473TIP3    H219426   5.446   1.955   0.439
 6474TIP3   OH219427   4.421   5.244   2.085
 6474TIP3    H119428   4.339   5.202   2.111
 6474TIP3    H219429   4.403   5.338   2.088
 6475TIP3   OH219430   2.183   1.274   3.116
 6475TIP3    H119431   2.091   1.248   3.115
 6475TIP3    H219432   2.229   1.200   3.155
 6476TIP3   OH219433   6.080   1.613   2.588
 6476TIP3    H119434   6.122   1.558   2.522
 6476TIP3    H219435   6.015   1.555   2.629
 6477TIP3   OH219436   5.871   4.775   3.395
 6477TIP3    H119437   5.798   4.765   3.334
 6477TIP3    H219438   5.947   4.740   3.349
 6478TIP3   OH219439   1.257   3.868   1.575
 6478TIP3    H119440   1.235   3.775   1.574
 6478TIP3    H219441   1.273   3.890   1.483
 6479TIP3   OH219442   1.134   3.626   1.504
 6479TIP3    H119443   1.059   3.622   1.564
 6479TIP3    H219444   1.096   3.640   1.418
 6480TIP3   OH219445   4.720   3.694   2.974
 6480TIP3    H119446   4.810   3.686   2.941
 6480TIP3    H219447   4.724   3.655   3.061
 6481TIP3   OH219448   1.872   4.807   3.234
 6481TIP3    H119449   1.967   4.802   3.222
 6481TIP3    H219450   1.838   4.738   3.176
 6482TIP3   OH219451   1.042   3.655   3.593
 6482TIP3    H119452   1.128   3.670   3.554
 6482TIP3    H219453   1.060   3.602   3.671
 6483TIP3   OH219454   4.522   1.491   3.598
 6483TIP3    H119455   4.497   1.434   3.670
 6483TIP3    H219456   4.517   1.436   3.520
 6484TIP3   OH219457   4.002   0.842   0.103
 6484TIP3    H119458   4.051   0.866   0.025
 6484TIP3    H219459   4.060   0.866   0.176
 6485TIP3   OH219460   2.196   1.837   4.054
 6485TIP3    H119461   2.192   1.801   3.966
 6485TIP3    H219462   2.260   1.908   4.048
 6486TIP3   OH219463   4.501   2.027   0.487
 6486TIP3    H119464   4.480   1.940   0.520
 6486TIP3    H219465   4.593   2.021   0.460
 6487TIP3   OH219466   5.028   1.970   3.124
 6487TIP3    H119467   5.029   1.892   3.178
 6487TIP3    H219468   5.095   2.027   3.163
 6488TIP3   OH219469   3.295   4.093   0.797
 6488TIP3    H119470   3.280   3.999   0.811
 6488TIP3    H219471   3.212   4.125   0.760
 6489TIP3   OH219472   4.890   2.233   1.928
 6489TIP3    H119473   4.975   2.190   1.942
 6489TIP3    H219474   4.905   2.291   1.853
 6490TIP3   OH219475   2.404   4.244   2.005
 6490TIP3    H119476   2.399   4.275   2.095
 6490TIP3    H219477   2.497   4.224   1.992
 6491TIP3   OH219478   5.148   1.399   4.296
 6491TIP3    H119479   5.071   1.343   4.308
 6491TIP3    H219480   5.164   1.437   4.382
 6492TIP3   OH219481   1.084   0.419   0.959
 6492TIP3    H119482   1.109   0.371   0.880
 6492TIP3    H219483   1.055   0.504   0.927
 6493TIP3   OH219484   5.213   0.501   0.381
 6493TIP3    H119485   5.274   0.575   0.385
 6493TIP3    H219486   5.269   0.424   0.389
 6494TIP3   OH219487   4.726   5.086   1.788
 6494TIP3    H119488   4.668   5.094   1.713
 6494TIP3    H219489   4.784   5.013   1.767
 6495TIP3   OH219490   5.441   1.738   0.990
 6495TIP3    H119491   5.433   1.671   1.058
 6495TIP3    H219492   5.436   1.689   0.908
 6496TIP3   OH219493   2.962   4.210   1.074
 6496TIP3    H119494   3.006   4.130   1.046
 6496TIP3    H219495   2.974   4.271   1.001
 6497TIP3   OH219496   0.465   2.080   2.849
 6497TIP3    H119497   0.551   2.080   2.890
 6497TIP3    H219498   0.465   2.003   2.792
 6498TIP3   OH219499   4.161   5.328   2.352
 6498TIP3    H119500   4.084   5.272   2.341
 6498TIP3    H219501   4.177   5.330   2.446
 6499TIP3   OH219502   1.919   1.985   1.150
 6499TIP3    H119503   1.832   2.001   1.186
 6499TIP3    H219504   1.904   1.930   1.073
 6500TIP3   OH219505   5.402   2.261   3.491
 6500TIP3    H119506   5.480   2.263   3.436
 6500TIP3    H219507   5.383   2.353   3.510
 6501TIP3   OH219508   4.367   4.513   4.220
 6501TIP3    H119509   4.278   4.508   4.185
 6501TIP3    H219510   4.382   4.606   4.234
 6502TIP3   OH219511   1.376   4.037   5.066
 6502TIP3    H119512   1.390   4.041   4.971
 6502TIP3    H219513   1.425   4.112   5.101
 6503TIP3   OH219514   1.221   1.843   2.495
 6503TIP3    H119515   1.175   1.894   2.428
 6503TIP3    H219516   1.158   1.835   2.567
 6504TIP3   OH219517   2.040   5.253   2.450
 6504TIP3    H119518   2.113   5.277   2.507
 6504TIP3    H219519   2.010   5.337   2.414
 6505TIP3   OH219520   0.100   2.005   2.835
 6505TIP3    H119521   0.114   1.951   2.913
 6505TIP3    H219522   0.137   1.953   2.763
 6506TIP3   OH219523   3.123   0.337   3.312
 6506TIP3    H119524   3.091   0.422   3.343
 6506TIP3    H219525   3.043   0.290   3.287
 6507TIP3   OH219526   1.485   0.443   3.914
 6507TIP3    H119527   1.455   0.354   3.891
 6507TIP3    H219528   1.460   0.453   4.005
 6508TIP3   OH219529   3.419   2.809   3.644
 6508TIP3    H119530   3.338   2.774   3.681
 6508TIP3    H219531   3.444   2.880   3.704
 6509TIP3   OH219532   0.921   2.026   3.229
 6509TIP3    H119533   0.980   2.101   3.222
 6509TIP3    H219534   0.972   1.959   3.275
 6510TIP3   OH219535   6.328   3.664   5.102
 6510TIP3    H119536   6.306   3.754   5.077
 6510TIP3    H219537   6.387   3.674   5.177
 6511TIP3   OH219538   1.991   3.554   3.109
 6511TIP3    H119539   1.982   3.591   3.197
 6511TIP3    H219540   1.958   3.623   3.051
 6512TIP3   OH219541   0.899   3.768   0.974
 6512TIP3    H119542   0.914   3.772   1.069
 6512TIP3    H219543   0.807   3.795   0.963
 6513TIP3   OH219544   3.270   4.836   2.601
 6513TIP3    H119545   3.223   4.918   2.590
 6513TIP3    H219546   3.225   4.775   2.542
 6514TIP3   OH219547   0.467   2.972   4.247
 6514TIP3    H119548   0.501   2.918   4.318
 6514TIP3    H219549   0.376   2.946   4.238
 6515TIP3   OH219550   3.179   2.801   1.729
 6515TIP3    H119551   3.208   2.886   1.695
 6515TIP3    H219552   3.094   2.819   1.768
 6516TIP3   OH219553   3.567   4.514   3.456
 6516TIP3    H119554   3.655   4.552   3.456
 6516TIP3    H219555   3.508   4.588   3.446
 6517TIP3   OH219556   3.173   4.605   2.235
 6517TIP3    H119557   3.182   4.593   2.329
 6517TIP3    H219558   3.173   4.700   2.223
 6518TIP3   OH219559   5.605   0.203   0.472
 6518TIP3    H119560   5.583   0.110   0.476
 6518TIP3    H219561   5.696   0.208   0.500
 6519TIP3   OH219562   6.135   3.215   1.032
 6519TIP3    H119563   6.079   3.271   0.978
 6519TIP3    H219564   6.212   3.269   1.049
 6520TIP3   OH219565   3.652   2.109   4.086
 6520TIP3    H119566   3.586   2.125   4.018
 6520TIP3    H219567   3.605   2.060   4.153
 6521TIP3   OH219568   3.830   1.475   2.607
 6521TIP3    H119569   3.774   1.443   2.536
 6521TIP3    H219570   3.915   1.488   2.566
 6522TIP3   OH219571   5.787   5.877   4.095
 6522TIP3    H119572   5.692   5.872   4.100
 6522TIP3    H219573   5.813   5.924   4.174
 6523TIP3   OH219574   0.201   1.187   3.513
 6523TIP3    H119575   0.108   1.170   3.500
 6523TIP3    H219576   0.242   1.164   3.429
 6524TIP3   OH219577   0.569   5.921   2.574
 6524TIP3    H119578   0.581   5.911   2.668
 6524TIP3    H219579   0.658   5.918   2.538
 6525TIP3   OH219580   1.769   5.482   0.602
 6525TIP3    H119581   1.726   5.409   0.647
 6525TIP3    H219582   1.804   5.536   0.672
 6526TIP3   OH219583   4.298   0.948   3.217
 6526TIP3    H119584   4.229   1.014   3.220
 6526TIP3    H219585   4.324   0.936   3.308
 6527TIP3   OH219586   0.263   1.231   0.088
 6527TIP3    H119587   0.187   1.284   0.112
 6527TIP3    H219588   0.225   1.152   0.048
 6528TIP3   OH219589   6.138   0.008   4.558
 6528TIP3    H119590   6.152   0.102   4.571
 6528TIP3    H219591   6.110  -0.024   4.643
 6529TIP3   OH219592   5.736   1.795   0.998
 6529TIP3    H119593   5.814   1.837   0.961
 6529TIP3    H219594   5.665   1.857   0.983
 6530TIP3   OH219595   1.246   2.382   4.226
 6530TIP3    H119596   1.257   2.312   4.290
 6530TIP3    H219597   1.265   2.462   4.275
 6531TIP3   OH219598   4.392   0.998   4.094
 6531TIP3    H119599   4.474   0.983   4.047
 6531TIP3    H219600   4.329   0.941   4.051
 6532TIP3   OH219601   5.524   0.161   5.062
 6532TIP3    H119602   5.553   0.092   5.002
 6532TIP3    H219603   5.490   0.114   5.138
 6533TIP3   OH219604   0.496   5.948   1.947
 6533TIP3    H119605   0.417   5.911   1.909
 6533TIP3    H219606   0.484   5.937   2.042
 6534TIP3   OH219607   0.735   1.593   1.273
 6534TIP3    H119608   0.704   1.631   1.356
 6534TIP3    H219609   0.655   1.571   1.225
 6535TIP3   OH219610   1.723   0.231   4.673
 6535TIP3    H119611   1.803   0.182   4.691
 6535TIP3    H219612   1.752   0.310   4.627
 6536TIP3   OH219613   0.789   4.052   4.768
 6536TIP3    H119614   0.837   3.972   4.743
 6536TIP3    H219615   0.808   4.062   4.861
 6537TIP3   OH219616   1.029   2.236   2.825
 6537TIP3    H119617   0.935   2.236   2.806
 6537TIP3    H219618   1.068   2.284   2.752
 6538TIP3   OH219619   0.789   3.075   0.338
 6538TIP3    H119620   0.792   3.166   0.309
 6538TIP3    H219621   0.704   3.043   0.307
 6539TIP3   OH219622   3.165   3.511   1.424
 6539TIP3    H119623   3.119   3.577   1.372
 6539TIP3    H219624   3.256   3.541   1.426
 6540TIP3   OH219625   5.336   1.824   1.316
 6540TIP3    H119626   5.431   1.825   1.303
 6540TIP3    H219627   5.323   1.783   1.401
 6541TIP3   OH219628   4.135   3.960   4.123
 6541TIP3    H119629   4.130   4.001   4.037
 6541TIP3    H219630   4.111   4.030   4.184
 6542TIP3   OH219631   0.286   4.541   4.300
 6542TIP3    H119632   0.336   4.462   4.279
 6542TIP3    H219633   0.210   4.538   4.242
 6543TIP3   OH219634   4.856   3.647   0.743
 6543TIP3    H119635   4.793   3.712   0.774
 6543TIP3    H219636   4.840   3.570   0.798
 6544TIP3   OH219637   0.820   1.421   1.631
 6544TIP3    H119638   0.822   1.328   1.653
 6544TIP3    H219639   0.788   1.464   1.710
 6545TIP3   OH219640   4.446   4.176   2.117
 6545TIP3    H119641   4.462   4.083   2.135
 6545TIP3    H219642   4.526   4.205   2.074
 6546TIP3   OH219643   4.830   3.624   3.844
 6546TIP3    H119644   4.746   3.603   3.805
 6546TIP3    H219645   4.848   3.714   3.816
 6547TIP3   OH219646   5.625   2.735   0.622
 6547TIP3    H119647   5.639   2.732   0.717
 6547TIP3    H219648   5.529   2.741   0.613
 6548TIP3   OH219649   3.542   4.619   5.053
 6548TIP3    H119650   3.473   4.555   5.032
 6548TIP3    H219651   3.581   4.640   4.968
 6549TIP3   OH219652   5.237   0.366   1.835
 6549TIP3    H119653   5.328   0.391   1.851
 6549TIP3    H219654   5.237   0.328   1.748
 6550TIP3   OH219655   2.234   3.706   1.801
 6550TIP3    H119656   2.146   3.690   1.767
 6550TIP3    H219657   2.237   3.800   1.817
 6551TIP3   OH219658   1.154   3.873   2.622
 6551TIP3    H119659   1.216   3.820   2.673
 6551TIP3    H219660   1.201   3.893   2.541
 6552TIP3   OH219661   4.024   5.782   0.121
 6552TIP3    H119662   3.952   5.813   0.065
 6552TIP3    H219663   4.002   5.815   0.208
 6553TIP3   OH219664   4.276   2.136   0.869
 6553TIP3    H119665   4.215   2.070   0.902
 6553TIP3    H219666   4.362   2.095   0.875
 6554TIP3   OH219667   3.298   3.002   4.899
 6554TIP3    H119668   3.380   2.955   4.885
 6554TIP3    H219669   3.242   2.939   4.946
 6555TIP3   OH219670   3.005   4.938   2.609
 6555TIP3    H119671   2.957   5.014   2.642
 6555TIP3    H219672   2.940   4.890   2.558
 6556TIP3   OH219673   3.785   1.821   2.673
 6556TIP3    H119674   3.774   1.848   2.582
 6556TIP3    H219675   3.875   1.790   2.678
 6557TIP3   OH219676   0.041   1.749   2.210
 6557TIP3    H119677   0.058   1.843   2.208
 6557TIP3    H219678   0.059   1.724   2.301
 6558TIP3   OH219679   4.935   5.869   3.577
 6558TIP3    H119680   4.866   5.807   3.553
 6558TIP3    H219681   4.976   5.831   3.655
 6559TIP3   OH219682   6.019   0.850   2.806
 6559TIP3    H119683   6.088   0.786   2.821
 6559TIP3    H219684   6.004   0.889   2.892
 6560TIP3   OH219685   6.208   0.825   3.243
 6560TIP3    H119686   6.255   0.888   3.188
 6560TIP3    H219687   6.233   0.849   3.333
 6561TIP3   OH219688   4.921   4.213   0.208
 6561TIP3    H119689   4.868   4.282   0.168
 6561TIP3    H219690   4.865   4.136   0.205
 6562TIP3   OH219691   6.311   5.710   0.897
 6562TIP3    H119692   6.223   5.673   0.888
 6562TIP3    H219693   6.343   5.673   0.979
 6563TIP3   OH219694   5.409   4.502   3.617
 6563TIP3    H119695   5.410   4.525   3.709
 6563TIP3    H219696   5.316   4.494   3.594
 6564TIP3   OH219697   0.680   5.276   3.693
 6564TIP3    H119698   0.717   5.361   3.669
 6564TIP3    H219699   0.663   5.233   3.609
 6565TIP3   OH219700   4.745   1.992   3.120
 6565TIP3    H119701   4.837   1.999   3.145
 6565TIP3    H219702   4.746   1.968   3.027
 6566TIP3   OH219703   5.574   5.047   3.724
 6566TIP3    H119704   5.649   4.989   3.711
 6566TIP3    H219705   5.609   5.119   3.777
 6567TIP3   OH219706   3.579   0.613   3.762
 6567TIP3    H119707   3.669   0.629   3.737
 6567TIP3    H219708   3.538   0.700   3.766
 6568TIP3   OH219709   5.860   0.307   1.818
 6568TIP3    H119710   5.851   0.232   1.759
 6568TIP3    H219711   5.777   0.310   1.866
 6569TIP3   OH219712   3.038   3.414   5.051
 6569TIP3    H119713   3.111   3.432   4.992
 6569TIP3    H219714   3.078   3.403   5.137
 6570TIP3   OH219715   2.946   0.154   1.813
 6570TIP3    H119716   2.946   0.176   1.906
 6570TIP3    H219717   2.898   0.226   1.771
 6571TIP3   OH219718   2.627   4.712   0.414
 6571TIP3    H119719   2.641   4.790   0.468
 6571TIP3    H219720   2.701   4.711   0.353
 6572TIP3   OH219721   0.928   2.532   2.675
 6572TIP3    H119722   0.965   2.620   2.687
 6572TIP3    H219723   1.004   2.477   2.657
 6573TIP3   OH219724   5.801   1.521   3.787
 6573TIP3    H119725   5.799   1.528   3.882
 6573TIP3    H219726   5.794   1.611   3.756
 6574TIP3   OH219727   2.320   3.537   2.610
 6574TIP3    H119728   2.303   3.625   2.642
 6574TIP3    H219729   2.331   3.547   2.515
 6575TIP3   OH219730   2.673   3.279   3.683
 6575TIP3    H119731   2.766   3.263   3.695
 6575TIP3    H219732   2.637   3.195   3.655
 6576TIP3   OH219733   3.291   1.068   1.138
 6576TIP3    H119734   3.203   1.035   1.157
 6576TIP3    H219735   3.318   1.111   1.218
 6577TIP3   OH219736   0.280   4.069   0.869
 6577TIP3    H119737   0.239   4.082   0.955
 6577TIP3    H219738   0.346   4.138   0.863
 6578TIP3   OH219739   4.990   1.159   5.109
 6578TIP3    H119740   4.908   1.154   5.058
 6578TIP3    H219741   5.043   1.223   5.062
 6579TIP3   OH219742   0.140   2.536   4.683
 6579TIP3    H119743   0.049   2.564   4.668
 6579TIP3    H219744   0.171   2.509   4.597
 6580TIP3   OH219745   2.935   0.379   0.899
 6580TIP3    H119746   2.878   0.375   0.975
 6580TIP3    H219747   2.903   0.455   0.850
 6581TIP3   OH219748   0.026   4.407   0.043
 6581TIP3    H119749   0.077   4.357  -0.021
 6581TIP3    H219750   0.086   4.473   0.076
 6582TIP3   OH219751   1.019   3.170   4.103
 6582TIP3    H119752   0.963   3.093   4.118
 6582TIP3    H219753   0.980   3.213   4.028
 6583TIP3   OH219754   0.675   0.977   3.329
 6583TIP3    H119755   0.635   0.892   3.314
 6583TIP3    H219756   0.658   1.027   3.249
 6584TIP3   OH219757   6.299   3.172   3.069
 6584TIP3    H119758   6.239   3.126   3.011
 6584TIP3    H219759   6.249   3.246   3.103
 6585TIP3   OH219760   4.888   4.611   3.526
 6585TIP3    H119761   4.870   4.705   3.521
 6585TIP3    H219762   4.805   4.572   3.554
 6586TIP3   OH219763   4.774   5.405   4.528
 6586TIP3    H119764   4.759   5.499   4.539
 6586TIP3    H219765   4.812   5.377   4.612
 6587TIP3   OH219766   6.116   2.784   4.437
 6587TIP3    H119767   6.057   2.709   4.444
 6587TIP3    H219768   6.134   2.808   4.528
 6588TIP3   OH219769   0.054   2.597   0.389
 6588TIP3    H119770  -0.034   2.573   0.419
 6588TIP3    H219771   0.106   2.517   0.399
 6589TIP3   OH219772   5.761   0.451   0.164
 6589TIP3    H119773   5.694   0.489   0.221
 6589TIP3    H219774   5.729   0.466   0.075
 6590TIP3   OH219775   5.952   3.031   2.872
 6590TIP3    H119776   5.928   2.964   2.936
 6590TIP3    H219777   6.047   3.021   2.862
 6591TIP3   OH219778   1.775   3.184   5.135
 6591TIP3    H119779   1.713   3.162   5.204
 6591TIP3    H219780   1.738   3.262   5.093
 6592TIP3   OH219781   4.860   0.255   4.016
 6592TIP3    H119782   4.828   0.170   4.047
 6592TIP3    H219783   4.811   0.272   3.936
 6593TIP3   OH219784   5.621   0.596   1.727
 6593TIP3    H119785   5.600   0.680   1.769
 6593TIP3    H219786   5.548   0.580   1.667
 6594TIP3   OH219787   3.791   0.338   2.163
 6594TIP3    H119788   3.813   0.420   2.118
 6594TIP3    H219789   3.697   0.329   2.153
 6595TIP3   OH219790   2.841   2.248   3.464
 6595TIP3    H119791   2.857   2.154   3.458
 6595TIP3    H219792   2.844   2.266   3.558
 6596TIP3   OH219793   1.059   1.049   4.164
 6596TIP3    H119794   0.977   1.095   4.142
 6596TIP3    H219795   1.038   0.957   4.154
 6597TIP3   OH219796   4.958   1.290   0.762
 6597TIP3    H119797   4.958   1.376   0.805
 6597TIP3    H219798   4.872   1.254   0.780
 6598TIP3   OH219799   1.014   1.806   4.663
 6598TIP3    H119800   0.992   1.713   4.672
 6598TIP3    H219801   0.969   1.849   4.736
 6599TIP3   OH219802   2.336   2.905   3.774
 6599TIP3    H119803   2.279   2.941   3.706
 6599TIP3    H219804   2.348   2.813   3.751
 6600TIP3   OH219805   4.561   2.818   0.080
 6600TIP3    H119806   4.547   2.865  -0.002
 6600TIP3    H219807   4.652   2.839   0.105
 6601TIP3   OH219808   3.903   3.752   4.086
 6601TIP3    H119809   3.936   3.736   3.998
 6601TIP3    H219810   3.965   3.813   4.125
 6602TIP3   OH219811   5.980   2.851   3.084
 6602TIP3    H119812   6.051   2.798   3.049
 6602TIP3    H219813   5.978   2.831   3.178
 6603TIP3   OH219814   4.112   1.450   4.917
 6603TIP3    H119815   4.064   1.400   4.850
 6603TIP3    H219816   4.176   1.388   4.951
 6604TIP3   OH219817   3.580   3.493   1.303
 6604TIP3    H119818   3.533   3.574   1.324
 6604TIP3    H219819   3.662   3.499   1.351
 6605TIP3   OH219820   2.751   1.764   2.895
 6605TIP3    H119821   2.711   1.743   2.811
 6605TIP3    H219822   2.818   1.828   2.874
 6606TIP3   OH219823   2.717   2.488   4.341
 6606TIP3    H119824   2.636   2.468   4.389
 6606TIP3    H219825   2.743   2.405   4.302
 6607TIP3   OH219826   1.069   1.491   1.556
 6607TIP3    H119827   1.055   1.575   1.512
 6607TIP3    H219828   0.983   1.467   1.589
 6608TIP3   OH219829   4.779   4.063   2.201
 6608TIP3    H119830   4.866   4.102   2.190
 6608TIP3    H219831   4.750   4.093   2.287
 6609TIP3   OH219832   1.770   1.145   4.512
 6609TIP3    H119833   1.747   1.126   4.602
 6609TIP3    H219834   1.859   1.112   4.502
 6610TIP3   OH219835   5.376   3.947   3.702
 6610TIP3    H119836   5.441   3.917   3.765
 6610TIP3    H219837   5.291   3.927   3.742
 6611TIP3   OH219838   2.124   2.184   2.974
 6611TIP3    H119839   2.095   2.213   2.887
 6611TIP3    H219840   2.140   2.266   3.022
 6612TIP3   OH219841   4.212   0.672   2.304
 6612TIP3    H119842   4.209   0.765   2.280
 6612TIP3    H219843   4.280   0.666   2.371
 6613TIP3   OH219844   3.021   0.440   4.865
 6613TIP3    H119845   3.012   0.487   4.783
 6613TIP3    H219846   3.090   0.375   4.849
 6614TIP3   OH219847   1.049   1.675   4.967
 6614TIP3    H119848   0.954   1.660   4.959
 6614TIP3    H219849   1.057   1.744   5.032
 6615TIP3   OH219850   1.238   0.197   2.300
 6615TIP3    H119851   1.158   0.249   2.312
 6615TIP3    H219852   1.219   0.140   2.225
 6616TIP3   OH219853   3.512   0.964   2.057
 6616TIP3    H119854   3.536   0.991   1.969
 6616TIP3    H219855   3.506   0.869   2.052
 6617TIP3   OH219856   4.900   3.758   4.607
 6617TIP3    H119857   4.814   3.725   4.632
 6617TIP3    H219858   4.960   3.688   4.634
 6618TIP3   OH219859   5.394   0.405   3.942
 6618TIP3    H119860   5.338   0.466   3.894
 6618TIP3    H219861   5.352   0.395   4.027
 6619TIP3   OH219862   1.882   3.575   2.631
 6619TIP3    H119863   1.929   3.557   2.550
 6619TIP3    H219864   1.936   3.538   2.700
 6620TIP3   OH219865   5.894   5.733   3.709
 6620TIP3    H119866   5.910   5.726   3.803
 6620TIP3    H219867   5.874   5.825   3.695
 6621TIP3   OH219868   5.890   0.374   3.901
 6621TIP3    H119869   5.879   0.288   3.860
 6621TIP3    H219870   5.812   0.383   3.957
 6622TIP3   OH219871   6.039   5.828   4.520
 6622TIP3    H119872   5.977   5.761   4.494
 6622TIP3    H219873   6.069   5.801   4.607
 6623TIP3   OH219874   1.089   5.237   0.029
 6623TIP3    H119875   0.994   5.226   0.032
 6623TIP3    H219876   1.122   5.156  -0.009
 6624TIP3   OH219877   0.032   3.413   0.717
 6624TIP3    H119878   0.067   3.494   0.682
 6624TIP3    H219879   0.107   3.372   0.762
 6625TIP3   OH219880   0.506   3.890   1.132
 6625TIP3    H119881   0.435   3.840   1.173
 6625TIP3    H219882   0.491   3.980   1.160
 6626TIP3   OH219883   1.190   4.037   3.693
 6626TIP3    H119884   1.254   3.987   3.641
 6626TIP3    H219885   1.132   4.075   3.627
 6627TIP3   OH219886   2.779   0.785   3.263
 6627TIP3    H119887   2.739   0.799   3.177
 6627TIP3    H219888   2.866   0.824   3.256
 6628TIP3   OH219889   1.659   3.396   5.010
 6628TIP3    H119890   1.661   3.491   5.017
 6628TIP3    H219891   1.569   3.372   5.033
 6629TIP3   OH219892   3.252   5.441   4.506
 6629TIP3    H119893   3.203   5.407   4.431
 6629TIP3    H219894   3.185   5.468   4.569
 6630TIP3   OH219895   6.033   0.422   0.498
 6630TIP3    H119896   5.953   0.431   0.550
 6630TIP3    H219897   6.104   0.427   0.563
 6631TIP3   OH219898   2.009   3.349   4.022
 6631TIP3    H119899   2.102   3.366   4.037
 6631TIP3    H219900   1.997   3.259   4.050
 6632TIP3   OH219901   5.693   2.806   0.026
 6632TIP3    H119902   5.617   2.759  -0.008
 6632TIP3    H219903   5.752   2.736   0.056
 6633TIP3   OH219904   3.397   0.806   0.640
 6633TIP3    H119905   3.409   0.760   0.557
 6633TIP3    H219906   3.346   0.883   0.618
 6634TIP3   OH219907   0.320   4.908   3.298
 6634TIP3    H119908   0.304   4.936   3.208
 6634TIP3    H219909   0.309   4.813   3.296
 6635TIP3   OH219910   3.165   0.560   5.170
 6635TIP3    H119911   3.166   0.513   5.086
 6635TIP3    H219912   3.258   0.575   5.190
 6636TIP3   OH219913   1.583   4.816   4.035
 6636TIP3    H119914   1.581   4.739   3.979
 6636TIP3    H219915   1.555   4.783   4.121
 6637TIP3   OH219916   3.319   5.431   0.224
 6637TIP3    H119917   3.225   5.447   0.213
 6637TIP3    H219918   3.344   5.377   0.149
 6638TIP3   OH219919   0.087   1.471   0.108
 6638TIP3    H119920   0.156   1.536   0.123
 6638TIP3    H219921   0.039   1.466   0.191
 6639TIP3   OH219922   5.339   0.516   1.335
 6639TIP3    H119923   5.270   0.582   1.345
 6639TIP3    H219924   5.351   0.509   1.240
 6640TIP3   OH219925   5.951   4.076   2.406
 6640TIP3    H119926   6.018   4.055   2.472
 6640TIP3    H219927   5.968   4.166   2.382
 6641TIP3   OH219928   5.904   5.412   3.211
 6641TIP3    H119929   5.886   5.481   3.147
 6641TIP3    H219930   5.934   5.460   3.289
 6642TIP3   OH219931   2.790   0.961   1.610
 6642TIP3    H119932   2.841   0.933   1.534
 6642TIP3    H219933   2.701   0.928   1.592
 6643TIP3   OH219934   3.102   2.117   3.792
 6643TIP3    H119935   3.178   2.089   3.844
 6643TIP3    H219936   3.135   2.120   3.702
 6644TIP3   OH219937   4.433   3.220   5.149
 6644TIP3    H119938   4.448   3.226   5.054
 6644TIP3    H219939   4.501   3.160   5.180
 6645TIP3   OH219940   2.653   0.944   1.183
 6645TIP3    H119941   2.610   1.019   1.223
 6645TIP3    H219942   2.585   0.876   1.180
   6.34878   5.98569   5.18376   0.00000   0.00000  -2.11627   0.00000  -2.11627  -2.99285
