        66  EXT
         1         1  ASP       N               3.3680000000       11.1600000000       10.3270000000  PROA      1              92.3600000000
         2         1  ASP       CA              3.5590000000       10.5040000000        9.0370000000  PROA      1              93.9000000000
         3         1  ASP       C               2.3430000000        9.6580000000        8.6660000000  PROA      1              95.4900000000
         4         1  ASP       CB              4.8180000000        9.6350000000        9.0580000000  PROA      1              87.2500000000
         5         1  ASP       O               1.7120000000        9.0540000000        9.5360000000  PROA      1              92.8200000000
         6         1  ASP       CG              6.0880000000       10.4360000000        9.2850000000  PROA      1              70.5200000000
         7         1  ASP       OD1             6.0590000000       11.6770000000        9.1460000000  PROA      1              58.6300000000
         8         1  ASP       OD2             7.1280000000        9.8190000000        9.6030000000  PROA      1              67.8900000000
         9         2  GLY       N               1.4300000000        9.7250000000        7.5430000000  PROA      2              91.8000000000
        10         2  GLY       CA              0.2550000000        9.0360000000        7.0320000000  PROA      2              91.1700000000
        11         2  GLY       C               0.5490000000        7.6240000000        6.5630000000  PROA      2              91.8500000000
        12         2  GLY       O               1.7120000000        7.2340000000        6.4380000000  PROA      2              88.7000000000
        13         3  ASP       N              -0.4660000000        6.9500000000        6.3560000000  PROA      3              94.1300000000
        14         3  ASP       CA             -0.2770000000        5.6240000000        5.7760000000  PROA      3              93.8800000000
        15         3  ASP       C               0.3540000000        5.7160000000        4.3880000000  PROA      3              94.4200000000
        16         3  ASP       CB             -1.6090000000        4.8760000000        5.7000000000  PROA      3              92.1700000000
        17         3  ASP       O               0.1960000000        6.7230000000        3.6950000000  PROA      3              93.2400000000
        18         3  ASP       CG             -2.2820000000        4.7230000000        7.0530000000  PROA      3              87.3200000000
        19         3  ASP       OD1            -1.7670000000        3.9710000000        7.9080000000  PROA      3              84.4800000000
        20         3  ASP       OD2            -3.3370000000        5.3580000000        7.2640000000  PROA      3              85.1600000000
        21         4  GLY       N               1.4790000000        5.0250000000        4.0650000000  PROA      4              91.0200000000
        22         4  GLY       CA              1.9890000000        4.9070000000        2.7080000000  PROA      4              90.7600000000
        23         4  GLY       C               0.9020000000        4.6470000000        1.6820000000  PROA      4              90.6200000000
        24         4  GLY       O              -0.2650000000        4.4700000000        2.0380000000  PROA      4              88.1700000000
        25         5  PRO       N               1.1990000000        4.6010000000        0.2750000000  PROA      5              92.8900000000
        26         5  PRO       CA              0.2470000000        4.2510000000       -0.7820000000  PROA      5              93.2400000000
        27         5  PRO       C              -0.2290000000        2.8030000000       -0.6910000000  PROA      5              93.9300000000
        28         5  PRO       CB              1.0450000000        4.4840000000       -2.0670000000  PROA      5              92.1400000000
        29         5  PRO       O               0.4270000000        1.9720000000       -0.0560000000  PROA      5              93.0100000000
        30         5  PRO       CG              2.4770000000        4.4380000000       -1.6410000000  PROA      5              89.6700000000
        31         5  PRO       CD              2.5470000000        4.7360000000       -0.1710000000  PROA      5              88.7800000000
        32         6  GLY       N              -1.3470000000        2.6590000000       -1.0870000000  PROA      6              93.7200000000
        33         6  GLY       CA             -1.9100000000        1.3190000000       -1.0570000000  PROA      6              93.7200000000
        34         6  GLY       C              -1.0880000000        0.3090000000       -1.8360000000  PROA      6              95.0500000000
        35         6  GLY       O              -0.2710000000        0.6840000000       -2.6780000000  PROA      6              94.6100000000
        36         7  ASP       N              -1.1650000000       -1.0450000000       -1.5570000000  PROA      7              94.3900000000
        37         7  ASP       CA             -0.5730000000       -2.1440000000       -2.3140000000  PROA      7              94.8000000000
        38         7  ASP       C              -1.0390000000       -2.1220000000       -3.7680000000  PROA      7              96.0700000000
        39         7  ASP       CB             -0.9210000000       -3.4870000000       -1.6700000000  PROA      7              93.4500000000
        40         7  ASP       O              -2.1360000000       -1.6450000000       -4.0670000000  PROA      7              95.8400000000
        41         7  ASP       CG             -0.1150000000       -3.7690000000       -0.4140000000  PROA      7              89.5100000000
        42         7  ASP       OD1             0.8700000000       -3.0480000000       -0.1470000000  PROA      7              89.3900000000
        43         7  ASP       OD2            -0.4680000000       -4.7220000000        0.3140000000  PROA      7              89.8300000000
        44         8  PRO       N              -0.3250000000       -2.5930000000       -4.7570000000  PROA      8              94.0000000000
        45         8  PRO       CA             -0.8820000000       -2.7440000000       -6.1030000000  PROA      8              93.9500000000
        46         8  PRO       C              -2.0730000000       -3.6990000000       -6.1460000000  PROA      8              95.1400000000
        47         8  PRO       CB              0.2940000000       -3.3010000000       -6.9100000000  PROA      8              92.6200000000
        48         8  PRO       O              -2.1590000000       -4.6210000000       -5.3300000000  PROA      8              94.5900000000
        49         8  PRO       CG              1.4770000000       -3.1620000000       -6.0070000000  PROA      8              88.4000000000
        50         8  PRO       CD              0.9840000000       -2.9980000000       -4.5980000000  PROA      8              89.4200000000
        51         9  GLY       N              -3.1240000000       -3.3220000000       -6.9730000000  PROA      9              94.5000000000
        52         9  GLY       CA             -4.2820000000       -4.1800000000       -7.1740000000  PROA      9              94.3800000000
        53         9  GLY       C              -3.9290000000       -5.5280000000       -7.7720000000  PROA      9              95.5400000000
        54         9  GLY       O              -2.8460000000       -5.6990000000       -8.3360000000  PROA      9              95.3200000000
        55        10  ASP       N              -4.5630000000       -6.5940000000       -7.6200000000  PROA      10             95.6200000000
        56        10  ASP       CA             -4.4280000000       -7.9030000000       -8.2520000000  PROA      10             95.3100000000
        57        10  ASP       C              -4.5640000000       -7.7960000000       -9.7690000000  PROA      10             95.5200000000
        58        10  ASP       CB             -5.4690000000       -8.8770000000       -7.6980000000  PROA      10             92.8500000000
        59        10  ASP       O              -5.4450000000       -7.0950000000      -10.2710000000  PROA      10             94.0900000000
        60        10  ASP       CG             -5.1680000000       -9.3220000000       -6.2770000000  PROA      10             84.1200000000
        61        10  ASP       OD1            -4.0120000000       -9.1760000000       -5.8240000000  PROA      10             82.4000000000
        62        10  ASP       OD2            -6.0940000000       -9.8260000000       -5.6060000000  PROA      10             84.4100000000
        63        11  GLY       N              -3.3170000000       -7.9340000000      -10.7950000000  PROA      11             87.7200000000
        64        11  GLY       CA             -3.3580000000       -7.9070000000      -12.2480000000  PROA      11             88.0300000000
        65        11  GLY       C              -4.3650000000       -8.8770000000      -12.8360000000  PROA      11             88.2900000000
        66        11  GLY       O              -4.8410000000       -9.7800000000      -12.1440000000  PROA      11             84.6200000000
